 Entering Link 1 = C:\G09W\l1.exe PID=      7684.
  
 Copyright (c) 1988,1990,1992,1993,1995,1998,2003,2009, Gaussian, Inc.
                  All Rights Reserved.
  
 This is part of the Gaussian(R) 09 program.  It is based on
 the Gaussian(R) 03 system (copyright 2003, Gaussian, Inc.),
 the Gaussian(R) 98 system (copyright 1998, Gaussian, Inc.),
 the Gaussian(R) 94 system (copyright 1995, Gaussian, Inc.),
 the Gaussian 92(TM) system (copyright 1992, Gaussian, Inc.),
 the Gaussian 90(TM) system (copyright 1990, Gaussian, Inc.),
 the Gaussian 88(TM) system (copyright 1988, Gaussian, Inc.),
 the Gaussian 86(TM) system (copyright 1986, Carnegie Mellon
 University), and the Gaussian 82(TM) system (copyright 1983,
 Carnegie Mellon University). Gaussian is a federally registered
 trademark of Gaussian, Inc.
  
 This software contains proprietary and confidential information,
 including trade secrets, belonging to Gaussian, Inc.
  
 This software is provided under written license and may be
 used, copied, transmitted, or stored only in accord with that
 written license.
  
 The following legend is applicable only to US Government
 contracts under FAR:
  
                    RESTRICTED RIGHTS LEGEND
  
 Use, reproduction and disclosure by the US Government is
 subject to restrictions as set forth in subparagraphs (a)
 and (c) of the Commercial Computer Software - Restricted
 Rights clause in FAR 52.227-19.
  
 Gaussian, Inc.
 340 Quinnipiac St., Bldg. 40, Wallingford CT 06492
  
  
 ---------------------------------------------------------------
 Warning -- This program may not be used in any manner that
 competes with the business of Gaussian, Inc. or will provide
 assistance to any competitor of Gaussian, Inc.  The licensee
 of this program is prohibited from giving any competitor of
 Gaussian, Inc. access to this program.  By using this program,
 the user acknowledges that Gaussian, Inc. is engaged in the
 business of creating and licensing software in the field of
 computational chemistry and represents and warrants to the
 licensee that it is not a competitor of Gaussian, Inc. and that
 it will not use this program in any manner prohibited above.
 ---------------------------------------------------------------
  

 Cite this work as:
 Gaussian 09, Revision A.02,
 M. J. Frisch, G. W. Trucks, H. B. Schlegel, G. E. Scuseria, 
 M. A. Robb, J. R. Cheeseman, G. Scalmani, V. Barone, B. Mennucci, 
 G. A. Petersson, H. Nakatsuji, M. Caricato, X. Li, H. P. Hratchian, 
 A. F. Izmaylov, J. Bloino, G. Zheng, J. L. Sonnenberg, M. Hada, 
 M. Ehara, K. Toyota, R. Fukuda, J. Hasegawa, M. Ishida, T. Nakajima, 
 Y. Honda, O. Kitao, H. Nakai, T. Vreven, J. A. Montgomery, Jr., 
 J. E. Peralta, F. Ogliaro, M. Bearpark, J. J. Heyd, E. Brothers, 
 K. N. Kudin, V. N. Staroverov, R. Kobayashi, J. Normand, 
 K. Raghavachari, A. Rendell, J. C. Burant, S. S. Iyengar, J. Tomasi, 
 M. Cossi, N. Rega, J. M. Millam, M. Klene, J. E. Knox, J. B. Cross, 
 V. Bakken, C. Adamo, J. Jaramillo, R. Gomperts, R. E. Stratmann, 
 O. Yazyev, A. J. Austin, R. Cammi, C. Pomelli, J. W. Ochterski, 
 R. L. Martin, K. Morokuma, V. G. Zakrzewski, G. A. Voth, 
 P. Salvador, J. J. Dannenberg, S. Dapprich, A. D. Daniels, 
 O. Farkas, J. B. Foresman, J. V. Ortiz, J. Cioslowski, 
 and D. J. Fox, Gaussian, Inc., Wallingford CT, 2009.
 
 ******************************************
 Gaussian 09:  IA32W-G09RevA.02 11-Jun-2009
                08-Feb-2021 
 ******************************************
 %chk=D:\Documents\rayGit\FQ\quimicaComputacional\proyecto\decompositionHydrogenP
 eroxide\descompositionByRadicals\gasPhase\step2\ts\pruebaTS\tsM062X.chk
 %mem=1500mb
 %nproc=4
 Will use up to    4 processors via shared memory.
 ----------------------------------------------------------------
 # opt=(calcfc,qst2,maxcycles=100) freq=noraman m062x/6-31+g(d,p)
 ----------------------------------------------------------------
 1/5=1,6=100,10=4,14=-1,18=20,26=3,27=202,38=1/1,3;
 2/9=110,12=2,17=6,18=5,40=1/2;
 3/5=1,6=6,7=111,11=2,16=1,25=1,30=1,71=2,74=-55/1,2,3;
 4//1;
 5/5=2,38=5/2;
 8/6=4,10=90,11=11/1;
 11/6=1,8=1,9=11,15=111,16=1/1,2,10;
 10/6=1,7=6,13=1/2;
 6/7=2,8=2,9=2,10=2,28=1/1;
 7/10=1,18=20,25=1/1,2,3,16;
 1/5=1,6=100,10=4,14=-1,18=20,27=202/3(2);
 2/9=110/2;
 99//99;
 2/9=110/2;
 3/5=1,6=6,7=111,11=2,16=1,25=1,30=1,71=1,74=-55/1,2,3;
 4/5=5,16=3/1;
 5/5=2,38=5/2;
 7//1,2,3,16;
 1/5=1,6=100,14=-1,18=20,27=202/3(-5);
 2/9=110/2;
 6/7=2,8=2,9=2,10=2,19=2,28=1/1;
 99/9=1/99;
 ---------
 reactivos
 ---------
 Symbolic Z-matrix:
 Charge =  0 Multiplicity = 2
 O                    -0.65177  -0.0075    0. 
 H                    -0.97222  -0.0075   -0.90494 
 O                     0.66823  -0.0075    0. 
 H                     0.98823   0.8976    0. 
 O                     1.60157   2.63237   0. 
 H                     2.56157   2.63237   0. 
 
 ---------
 productos
 ---------
 Symbolic Z-matrix:
 Charge =  0 Multiplicity = 2
 O                    -0.65177  -0.0075    0. 
 H                    -0.97222  -0.0075   -0.90494 
 O                     0.66823  -0.0075    0. 
 H                     1.28157   1.72727   0. 
 O                     1.60157   2.63237   0. 
 H                     2.56157   2.63237   0. 
 
 Iteration  1 RMS(Cart)=  0.05246761 RMS(Int)=  0.25780173
 Iteration  2 RMS(Cart)=  0.05246513 RMS(Int)=  0.17615262
 Iteration  3 RMS(Cart)=  0.05246792 RMS(Int)=  0.09450331
 Iteration  4 RMS(Cart)=  0.05246883 RMS(Int)=  0.01285466
 Iteration  5 RMS(Cart)=  0.00826218 RMS(Int)=  0.00000386
 Iteration  6 RMS(Cart)=  0.00000336 RMS(Int)=  0.00000000
 Iteration  7 RMS(Cart)=  0.00000000 RMS(Int)=  0.00000001

 GradGradGradGradGradGradGradGradGradGradGradGradGradGradGradGradGradGrad
 Berny optimization.
 Initialization pass.
                           ----------------------------
                           !    Initial Parameters    !
                           ! (Angstroms and Degrees)  !
 --------------------------                            --------------------------
 ! Name  Definition        TS        Reactant  Product Derivative Info.         !
 --------------------------------------------------------------------------------
 ! R1    R(1,2)             0.96      0.96      0.96   calculate D2E/DX2 analyti!
 ! R2    R(1,3)             1.32      1.32      1.32   calculate D2E/DX2 analyti!
 ! R3    R(3,4)             1.4       0.96      1.84   calculate D2E/DX2 analyti!
 ! R4    R(4,5)             1.4       1.84      0.96   calculate D2E/DX2 analyti!
 ! R5    R(5,6)             0.96      0.96      0.96   calculate D2E/DX2 analyti!
 ! A1    A(2,1,3)         109.5     109.5     109.5    calculate D2E/DX2 analyti!
 ! A2    A(1,3,4)         109.4712  109.4712  109.4712 calculate D2E/DX2 analyti!
 ! A3    A(4,5,6)         109.4712  109.4712  109.4712 calculate D2E/DX2 analyti!
 ! A4    L(3,4,5,1,-1)    180.0     180.0     180.0    calculate D2E/DX2 analyti!
 ! A5    L(3,4,5,1,-2)    180.0     180.0     180.0    calculate D2E/DX2 analyti!
 ! D1    D(2,1,3,4)        90.0      90.0      90.0    calculate D2E/DX2 analyti!
 ! D2    D(1,3,5,6)       180.0     180.0     180.0    calculate D2E/DX2 analyti!
 --------------------------------------------------------------------------------
 Trust Radius=3.00D-01 FncErr=1.00D-07 GrdErr=1.00D-06
 Number of steps in this run= 100 maximum allowed number of steps= 100.
 Search for a saddle point of order  1.
 GradGradGradGradGradGradGradGradGradGradGradGradGradGradGradGradGradGrad

                          Input orientation:                          
 ---------------------------------------------------------------------
 Center     Atomic      Atomic             Coordinates (Angstroms)
 Number     Number       Type             X           Y           Z
 ---------------------------------------------------------------------
      1          8           0       -0.683028   -0.068634   -0.004201
      2          1           0       -1.007599   -0.057734   -0.907603
      3          8           0        0.636927   -0.077637   -0.010309
      4          1           0        1.112639    1.239021    0.000200
      5          8           0        1.588350    2.555679    0.010710
      6          1           0        2.548317    2.549132    0.006268
 ---------------------------------------------------------------------
                    Distance matrix (angstroms):
                    1          2          3          4          5
     1  O    0.000000
     2  H    0.960000   0.000000
     3  O    1.320000   1.873499   0.000000
     4  H    2.221351   2.645957   1.400000   0.000000
     5  O    3.470792   3.796338   2.800000   1.400000   0.000000
     6  H    4.158654   4.502827   3.248630   1.943605   0.960000
                    6
     6  H    0.000000
 Stoichiometry    H3O3(2)
 Framework group  C1[X(H3O3)]
 Deg. of freedom    12
 Full point group                 C1      NOp   1
 Largest Abelian subgroup         C1      NOp   1
 Largest concise Abelian subgroup C1      NOp   1
                         Standard orientation:                         
 ---------------------------------------------------------------------
 Center     Atomic      Atomic             Coordinates (Angstroms)
 Number     Number       Type             X           Y           Z
 ---------------------------------------------------------------------
      1          8           0       -1.488460   -0.390995   -0.116214
      2          1           0       -1.707553   -0.746138    0.748351
      3          8           0       -0.677962    0.641397    0.023997
      4          1           0        0.649885    0.198140    0.005441
      5          8           0        1.977733   -0.245117   -0.013114
      6          1           0        2.567185    0.505714    0.088857
 ---------------------------------------------------------------------
 Rotational constants (GHZ):     43.7398063      4.3514370      4.0047167
 Standard basis: 6-31+G(d,p) (6D, 7F)
 There are    72 symmetry adapted basis functions of A   symmetry.
 Integral buffers will be    262144 words long.
 Raffenetti 2 integral format.
 Two-electron integral symmetry is turned on.
    72 basis functions,   117 primitive gaussians,    72 cartesian basis functions
    14 alpha electrons       13 beta electrons
       nuclear repulsion energy        70.5691747934 Hartrees.
 NAtoms=    6 NActive=    6 NUniq=    6 SFac= 7.50D-01 NAtFMM=   80 NAOKFM=F Big=F
 One-electron integrals computed using PRISM.
 NBasis=    72 RedAO= T  NBF=    72
 NBsUse=    72 1.00D-06 NBFU=    72
 Harris functional with IExCor= 1009 diagonalized for initial guess.
 ExpMin= 8.45D-02 ExpMax= 5.48D+03 ExpMxC= 8.25D+02 IAcc=2 IRadAn=         0 AccDes= 0.00D+00
 HarFok:  IExCor= 1009 AccDes= 0.00D+00 IRadAn=         0 IDoV= 1
 ScaDFX=  1.000000  1.000000  1.000000  1.000000
 FoFCou: FMM=F IPFlag=           0 FMFlag=      100000 FMFlg1=           0
         NFxFlg=           0 DoJE=T BraDBF=F KetDBF=T FulRan=T
         Omega=  0.000000  0.000000  1.000000  0.000000  0.000000 ICntrl=     500 IOpCl=  0
         NMat0=    1 NMatS0=    1 NMatT0=    0 NMatD0=    1 NMtDS0=    0 NMtDT0=    0
         I1Cent=           4 NGrid=           0.
 Petite list used in FoFCou.
 Initial guess orbital symmetries:
 Alpha Orbitals:
       Occupied  (A) (A) (A) (A) (A) (A) (A) (A) (A) (A) (A) (A)
                 (A) (A)
       Virtual   (A) (A) (A) (A) (A) (A) (A) (A) (A) (A) (A) (A)
                 (A) (A) (A) (A) (A) (A) (A) (A) (A) (A) (A) (A)
                 (A) (A) (A) (A) (A) (A) (A) (A) (A) (A) (A) (A)
                 (A) (A) (A) (A) (A) (A) (A) (A) (A) (A) (A) (A)
                 (A) (A) (A) (A) (A) (A) (A) (A) (A) (A)
 Beta  Orbitals:
       Occupied  (A) (A) (A) (A) (A) (A) (A) (A) (A) (A) (A) (A)
                 (A)
       Virtual   (A) (A) (A) (A) (A) (A) (A) (A) (A) (A) (A) (A)
                 (A) (A) (A) (A) (A) (A) (A) (A) (A) (A) (A) (A)
                 (A) (A) (A) (A) (A) (A) (A) (A) (A) (A) (A) (A)
                 (A) (A) (A) (A) (A) (A) (A) (A) (A) (A) (A) (A)
                 (A) (A) (A) (A) (A) (A) (A) (A) (A) (A) (A)
 The electronic state of the initial guess is 2-A.
 Initial guess <Sx>= 0.0000 <Sy>= 0.0000 <Sz>= 0.5000 <S**2>= 0.7500 S= 0.5000
 Requested convergence on RMS density matrix=1.00D-08 within 128 cycles.
 Requested convergence on MAX density matrix=1.00D-06.
 Requested convergence on             energy=1.00D-06.
 No special actions if energy rises.
 Keep R1 and R2 ints in memory in canonical form, NReq=7883010.
 Integral accuracy reduced to 1.0D-05 until final iterations.
 Initial convergence to 1.0D-05 achieved.  Increase integral accuracy.
 SCF Done:  E(UM062X) =  -227.170842697     A.U. after   29 cycles
             Convg  =    0.6037D-08             -V/T =  2.0091
 <Sx>= 0.0000 <Sy>= 0.0000 <Sz>= 0.5000 <S**2>= 0.7729 S= 0.5114
 <L.S>= 0.000000000000E+00
 Annihilation of the first spin contaminant:
 S**2 before annihilation     0.7729,   after     0.7502
 Range of M.O.s used for correlation:     1    72
 NBasis=    72 NAE=    14 NBE=    13 NFC=     0 NFV=     0
 NROrb=     72 NOA=    14 NOB=    13 NVA=    58 NVB=    59

 **** Warning!!: The largest alpha MO coefficient is  0.14316542D+02


 **** Warning!!: The largest beta MO coefficient is  0.14615960D+02

 Symmetrizing basis deriv contribution to polar:
 IMax=3 JMax=2 DiffMx= 0.00D+00
 G2DrvN: will do     7 centers at a time, making    1 passes doing MaxLOS=2.
 Calling FoFCou, ICntrl=  3107 FMM=F I1Cent=   0 AccDes= 0.00D+00.
 FoFDir/FoFCou used for L=0 through L=2.
 End of G2Drv Frequency-dependent properties file   721 does not exist.
 End of G2Drv Frequency-dependent properties file   722 does not exist.
          IDoAtm=111111
          Differentiating once with respect to nuclear coordinates.
          Keep R1 and R2 ints in memory in canonical form, NReq=7730408.
          There are    21 degrees of freedom in the 1st order CPHF.  IDoFFX=5.
     15 vectors produced by pass  0 Test12= 7.52D-11 4.76D-07 XBig12= 2.22D-01 3.84D-01.
 AX will form    15 AO Fock derivatives at one time.
     15 vectors produced by pass  1 Test12= 7.52D-11 4.76D-07 XBig12= 2.46D-02 5.32D-02.
     15 vectors produced by pass  2 Test12= 7.52D-11 4.76D-07 XBig12= 1.30D-03 9.50D-03.
     15 vectors produced by pass  3 Test12= 7.52D-11 4.76D-07 XBig12= 2.37D-05 1.17D-03.
     15 vectors produced by pass  4 Test12= 7.52D-11 4.76D-07 XBig12= 2.91D-07 9.40D-05.
     14 vectors produced by pass  5 Test12= 7.52D-11 4.76D-07 XBig12= 3.97D-09 1.22D-05.
      3 vectors produced by pass  6 Test12= 7.52D-11 4.76D-07 XBig12= 3.77D-11 1.16D-06.
 Inverted reduced A of dimension    92 with in-core refinement.
 End of Minotr Frequency-dependent properties file   721 does not exist.
 End of Minotr Frequency-dependent properties file   722 does not exist.

 **********************************************************************

            Population analysis using the SCF density.

 **********************************************************************

 Orbital symmetries:
 Alpha Orbitals:
       Occupied  (A) (A) (A) (A) (A) (A) (A) (A) (A) (A) (A) (A)
                 (A) (A)
       Virtual   (A) (A) (A) (A) (A) (A) (A) (A) (A) (A) (A) (A)
                 (A) (A) (A) (A) (A) (A) (A) (A) (A) (A) (A) (A)
                 (A) (A) (A) (A) (A) (A) (A) (A) (A) (A) (A) (A)
                 (A) (A) (A) (A) (A) (A) (A) (A) (A) (A) (A) (A)
                 (A) (A) (A) (A) (A) (A) (A) (A) (A) (A)
 Beta  Orbitals:
       Occupied  (A) (A) (A) (A) (A) (A) (A) (A) (A) (A) (A) (A)
                 (A)
       Virtual   (A) (A) (A) (A) (A) (A) (A) (A) (A) (A) (A) (A)
                 (A) (A) (A) (A) (A) (A) (A) (A) (A) (A) (A) (A)
                 (A) (A) (A) (A) (A) (A) (A) (A) (A) (A) (A) (A)
                 (A) (A) (A) (A) (A) (A) (A) (A) (A) (A) (A) (A)
                 (A) (A) (A) (A) (A) (A) (A) (A) (A) (A) (A)
 The electronic state is 2-A.
 Alpha  occ. eigenvalues --  -19.80678 -19.78483 -19.64914  -1.38011  -1.07767
 Alpha  occ. eigenvalues --   -1.04163  -0.70489  -0.64854  -0.60925  -0.52751
 Alpha  occ. eigenvalues --   -0.45631  -0.43001  -0.39854  -0.37239
 Alpha virt. eigenvalues --    0.03468   0.05449   0.11431   0.13243   0.14373
 Alpha virt. eigenvalues --    0.17407   0.18566   0.19394   0.20473   0.21661
 Alpha virt. eigenvalues --    0.23375   0.24539   0.24706   0.30435   0.34770
 Alpha virt. eigenvalues --    0.36857   0.95752   1.02570   1.04700   1.07098
 Alpha virt. eigenvalues --    1.09671   1.11347   1.17128   1.20000   1.20703
 Alpha virt. eigenvalues --    1.22619   1.24567   1.26114   1.30220   1.40266
 Alpha virt. eigenvalues --    1.45381   1.50269   1.54210   1.61315   1.61656
 Alpha virt. eigenvalues --    1.68861   1.70661   1.73568   1.84096   2.12503
 Alpha virt. eigenvalues --    2.14560   2.21829   2.32668   2.35537   2.45045
 Alpha virt. eigenvalues --    2.49218   2.53597   2.62615   2.70630   2.79751
 Alpha virt. eigenvalues --    2.90221   3.01753   3.29844   3.37649   3.55016
 Alpha virt. eigenvalues --    3.84998   4.02895   4.21545
  Beta  occ. eigenvalues --  -19.79926 -19.77353 -19.64330  -1.35244  -1.05624
  Beta  occ. eigenvalues --   -1.00437  -0.68770  -0.60327  -0.56084  -0.50471
  Beta  occ. eigenvalues --   -0.40901  -0.37995  -0.35984
  Beta virt. eigenvalues --   -0.15596   0.03973   0.06585   0.12000   0.13670
  Beta virt. eigenvalues --    0.15094   0.17929   0.19317   0.20244   0.21272
  Beta virt. eigenvalues --    0.23559   0.23811   0.24795   0.25356   0.30916
  Beta virt. eigenvalues --    0.34870   0.37390   0.96224   1.02825   1.05020
  Beta virt. eigenvalues --    1.07265   1.10775   1.13541   1.17900   1.20599
  Beta virt. eigenvalues --    1.21223   1.23437   1.27001   1.27481   1.32606
  Beta virt. eigenvalues --    1.41568   1.46716   1.51546   1.55332   1.61886
  Beta virt. eigenvalues --    1.62495   1.70175   1.71772   1.74378   1.86042
  Beta virt. eigenvalues --    2.12224   2.14835   2.22953   2.33383   2.35209
  Beta virt. eigenvalues --    2.45499   2.49830   2.54806   2.63011   2.70810
  Beta virt. eigenvalues --    2.79920   2.90397   3.02412   3.29013   3.37632
  Beta virt. eigenvalues --    3.54633   3.85635   4.04029   4.22430
          Condensed to atoms (all electrons):
              1          2          3          4          5          6
     1  O    7.777890   0.260021   0.166704   0.013357   0.015925   0.000113
     2  H    0.260021   0.388016  -0.043316  -0.000766  -0.000151   0.000009
     3  O    0.166704  -0.043316   8.074392   0.011037  -0.030902   0.002038
     4  H    0.013357  -0.000766   0.011037   0.403818   0.185179  -0.012310
     5  O    0.015925  -0.000151  -0.030902   0.185179   8.316057   0.258387
     6  H    0.000113   0.000009   0.002038  -0.012310   0.258387   0.389177
 Mulliken atomic charges:
              1
     1  O   -0.234011
     2  H    0.396187
     3  O   -0.179952
     4  H    0.399685
     5  O   -0.744496
     6  H    0.362587
 Sum of Mulliken atomic charges =   0.00000
 Mulliken charges with hydrogens summed into heavy atoms:
              1
     1  O    0.162176
     3  O   -0.179952
     5  O    0.017776
 Sum of Mulliken charges with hydrogens summed into heavy atoms =   0.00000
          Atomic-Atomic Spin Densities.
              1          2          3          4          5          6
     1  O    0.379379  -0.000370  -0.100014  -0.008385   0.008306  -0.000195
     2  H   -0.000370  -0.012191   0.001851   0.000094   0.000045   0.000000
     3  O   -0.100014   0.001851   0.617926   0.039720  -0.019922   0.000235
     4  H   -0.008385   0.000094   0.039720  -0.146679  -0.009865  -0.000556
     5  O    0.008306   0.000045  -0.019922  -0.009865   0.346291   0.002150
     6  H   -0.000195   0.000000   0.000235  -0.000556   0.002150  -0.010913
 Mulliken atomic spin densities:
              1
     1  O    0.278721
     2  H   -0.010571
     3  O    0.539795
     4  H   -0.125671
     5  O    0.327005
     6  H   -0.009279
 Sum of Mulliken atomic spin densities =   1.00000
 APT atomic charges:
              1
     1  O   -0.450147
     2  H    0.640572
     3  O   -0.227788
     4  H    0.345241
     5  O   -1.010054
     6  H    0.702177
 Sum of APT charges=   0.00000
 APT Atomic charges with hydrogens summed into heavy atoms:
              1
     1  O    0.190425
     2  H    0.000000
     3  O   -0.227788
     4  H    0.000000
     5  O    0.037363
     6  H    0.000000
 Sum of APT charges=   0.00000
 Electronic spatial extent (au):  <R**2>=            285.5968
 Charge=              0.0000 electrons
 Dipole moment (field-independent basis, Debye):
    X=             -2.3578    Y=              0.4845    Z=              1.8532  Tot=              3.0378
 Quadrupole moment (field-independent basis, Debye-Ang):
   XX=            -15.6839   YY=            -17.8327   ZZ=            -18.4811
   XY=              6.5250   XZ=             -2.5293   YZ=             -1.2933
 Traceless Quadrupole moment (field-independent basis, Debye-Ang):
   XX=              1.6486   YY=             -0.5001   ZZ=             -1.1486
   XY=              6.5250   XZ=             -2.5293   YZ=             -1.2933
 Octapole moment (field-independent basis, Debye-Ang**2):
  XXX=             -3.0732  YYY=             -0.1295  ZZZ=              1.6642  XYY=             -2.5499
  XXY=              6.9946  XXZ=              7.0409  XZZ=             -5.0862  YZZ=             -0.9194
  YYZ=              1.3822  XYZ=              2.8278
 Hexadecapole moment (field-independent basis, Debye-Ang**3):
 XXXX=           -224.3121 YYYY=            -36.5496 ZZZZ=            -17.7220 XXXY=             33.5568
 XXXZ=             -7.0643 YYYX=              6.6588 YYYZ=             -1.2052 ZZZX=             -2.7501
 ZZZY=             -1.4671 XXYY=            -46.3409 XXZZ=            -48.1845 YYZZ=             -9.1436
 XXYZ=             -3.4877 YYXZ=             -2.1036 ZZXY=              3.2946
 N-N= 7.056917479344D+01 E-N=-1.007682131910D+03  KE= 3.358973838162D+02
  Exact polarizability:   0.000   0.000   0.000   0.000   0.000   0.000
 Approx polarizability:  61.931   0.179  22.331   0.135  -0.225  14.938
                          Isotropic Fermi Contact Couplings
        Atom                 a.u.       MegaHertz       Gauss      10(-4) cm-1
     1  O(17)              0.06598     -39.99389     -14.27081     -13.34053
     2  H(1)              -0.00602     -26.92218      -9.60650      -8.98027
     3  O(17)              0.06532     -39.59764     -14.12942     -13.20835
     4  H(1)              -0.04740    -211.85148     -75.59387     -70.66605
     5  O(17)              0.00713      -4.32230      -1.54230      -1.44176
     6  H(1)              -0.00470     -21.00339      -7.49453      -7.00598
 --------------------------------------------------------
       Center         ----  Spin Dipole Couplings  ----
                      3XX-RR        3YY-RR        3ZZ-RR
 --------------------------------------------------------
     1   Atom        0.571113      0.071202     -0.642315
     2   Atom       -0.021152     -0.014524      0.035676
     3   Atom        0.875336      0.223280     -1.098617
     4   Atom        0.130532     -0.057316     -0.073216
     5   Atom        0.606369     -0.028932     -0.577438
     6   Atom        0.013035      0.032175     -0.045211
 --------------------------------------------------------
                        XY            XZ            YZ
 --------------------------------------------------------
     1   Atom       -0.994339     -0.099054      0.037131
     2   Atom        0.003588     -0.027474     -0.040438
     3   Atom       -1.649456     -0.122758      0.105809
     4   Atom       -0.051100     -0.001222      0.000659
     5   Atom       -0.826394     -0.066021      0.043546
     6   Atom        0.035340      0.005585      0.010014
 --------------------------------------------------------


 ---------------------------------------------------------------------------------
              Anisotropic Spin Dipole Couplings in Principal Axis System
 ---------------------------------------------------------------------------------

       Atom             a.u.   MegaHertz   Gauss  10(-4) cm-1        Axes

              Baa    -0.7182    51.969    18.544    17.335  0.5772  0.7079  0.4070
     1 O(17)  Bbb    -0.6333    45.827    16.352    15.286 -0.2139 -0.3499  0.9120
              Bcc     1.3515   -97.797   -34.896   -32.622  0.7881 -0.6135 -0.0506
 
              Baa    -0.0436   -23.254    -8.298    -7.757  0.5354  0.6626  0.5237
     2 H(1)   Bbb    -0.0223   -11.897    -4.245    -3.968  0.7944 -0.6056 -0.0459
              Bcc     0.0659    35.151    12.543    11.725 -0.2867 -0.4406  0.8507
 
              Baa    -1.1326    81.955    29.244    27.337  0.6228  0.7689 -0.1442
     3 O(17)  Bbb    -1.1059    80.024    28.555    26.693  0.1287  0.0811  0.9884
              Bcc     2.2385  -161.979   -57.798   -54.031  0.7717 -0.6342 -0.0485
 
              Baa    -0.0733   -39.090   -13.948   -13.039 -0.0221 -0.1117  0.9935
     4 H(1)   Bbb    -0.0703   -37.497   -13.380   -12.508  0.2457  0.9627  0.1137
              Bcc     0.1435    76.587    27.328    25.547  0.9691 -0.2466 -0.0062
 
              Baa    -0.5968    43.181    15.408    14.404  0.5672  0.8182  0.0939
     5 O(17)  Bbb    -0.5809    42.031    14.998    14.020 -0.0163 -0.1028  0.9946
              Bcc     1.1776   -85.212   -30.406   -28.424  0.8234 -0.5656 -0.0450
 
              Baa    -0.0465   -24.817    -8.855    -8.278 -0.0247 -0.1153  0.9930
     6 H(1)   Bbb    -0.0139    -7.430    -2.651    -2.478  0.7979 -0.6008 -0.0499
              Bcc     0.0604    32.246    11.506    10.756  0.6023  0.7911  0.1068
 

 ---------------------------------------------------------------------------------

 Calling FoFJK, ICntrl=    100147 FMM=F ISym2X=0 I1Cent= 0 IOpClX= 1 NMat=1 NMatS=1 NMatT=0.
 ***** Axes restored to original set *****
 -------------------------------------------------------------------
 Center     Atomic                   Forces (Hartrees/Bohr)
 Number     Number              X              Y              Z
 -------------------------------------------------------------------
      1        8           0.000577667    0.001077218    0.025721155
      2        1           0.002800278    0.000293632   -0.018943430
      3        8           0.003198895    0.017468637   -0.007463979
      4        1           0.031087376    0.063144568    0.002272963
      5        8          -0.045142992   -0.072914243   -0.001616804
      6        1           0.007478777   -0.009069812    0.000030095
 -------------------------------------------------------------------
 Cartesian Forces:  Max     0.072914243 RMS     0.027743831

 GradGradGradGradGradGradGradGradGradGradGradGradGradGradGradGradGradGrad
 Berny optimization.
 Internal  Forces:  Max     0.089887151 RMS     0.027984039
 Search for a saddle point.
 Step number   1 out of a maximum of  100
 All quantities printed in internal units (Hartrees-Bohrs-Radians)
 Second derivative matrix not updated -- analytic derivatives used.
 The second derivative matrix:
                          R1        R2        R3        R4        R5
           R1           0.54959
           R2           0.01546   0.47857
           R3          -0.00457   0.03971  -0.02543
           R4           0.00339  -0.03029   0.07455  -0.04194
           R5           0.00137  -0.00678   0.00463  -0.00952   0.56924
           A1          -0.00489   0.06564  -0.00081   0.00033  -0.00056
           A2           0.00042   0.03347  -0.01307   0.00666   0.00160
           A3           0.00008  -0.00465   0.01455   0.00023   0.00867
           A4           0.00117  -0.01193  -0.00086  -0.00307   0.00023
           A5          -0.00064   0.00059   0.00045   0.00042   0.00011
           D1           0.00282   0.00052   0.00093  -0.00127   0.00004
           D2           0.00027  -0.00036  -0.00008  -0.00003   0.00105
                          A1        A2        A3        A4        A5
           A1           0.23311
           A2           0.00225   0.09592
           A3          -0.00054   0.00406   0.09336
           A4          -0.00241  -0.00048   0.00358   0.01344
           A5           0.00132   0.00226  -0.00003   0.00294   0.00642
           D1           0.00381   0.00461  -0.00044  -0.00318  -0.00620
           D2          -0.00074  -0.00195   0.00186  -0.00190  -0.00051
                          D1        D2
           D1          -0.00155
           D2          -0.00188   0.00266
 LST/QST climbing along tangent vector
     Eigenvalues ---   -0.10824  -0.00584   0.00247   0.00730   0.01577
     Eigenvalues ---    0.03848   0.09122   0.09799   0.21680   0.49412
     Eigenvalues ---    0.55327   0.57005
 Eigenvectors required to have negative eigenvalues:
                          R4        R3        A4        A2        A3
   1                   -0.70711   0.70711   0.00000   0.00000   0.00000
                          A5        R5        D1        R1        A1
   1                    0.00000   0.00000   0.00000   0.00000   0.00000
 QST in optimization variable space.
                        Tangent   TS vect  // Eig F  Eigenval
   1         R1         0.00000   0.00000   0.04948  -0.10824
   2         R2         0.00000   0.00000   0.00018  -0.00584
   3         R3         0.70711   0.70711  -0.00197   0.00247
   4         R4        -0.70711  -0.70711   0.00368   0.00730
   5         R5         0.00000   0.00000  -0.00449   0.01577
   6         A1         0.00000   0.00000  -0.03596   0.03848
   7         A2         0.00000   0.00000   0.01141   0.09122
   8         A3         0.00000   0.00000  -0.01098   0.09799
   9         A4         0.00000   0.00000  -0.00695   0.21680
  10         A5         0.00000   0.00000  -0.00576   0.49412
  11         D1         0.00000   0.00000   0.00752   0.55327
  12         D2         0.00000   0.00000   0.00421   0.57005
 RFO step:  Lambda0=1.920848398D-02 Lambda=-2.42132203D-02.
 Linear search not attempted -- option 19 set.
 Maximum step size (   0.300) exceeded in Quadratic search.
    -- Step size scaled by   0.287
 Iteration  1 RMS(Cart)=  0.08812830 RMS(Int)=  0.00403434
 Iteration  2 RMS(Cart)=  0.00320951 RMS(Int)=  0.00000549
 Iteration  3 RMS(Cart)=  0.00000639 RMS(Int)=  0.00000000
 Iteration  4 RMS(Cart)=  0.00000000 RMS(Int)=  0.00000000
 Variable       Old X    -DE/DX   Delta X   Delta X   Delta X     New X
                                 (Linear)    (Quad)   (Total)
    R1        1.81414   0.01690   0.00000   0.00294   0.00294   1.81708
    R2        2.49444  -0.00339   0.00000   0.00401   0.00401   2.49845
    R3        2.64562  -0.01992   0.00000  -0.20116  -0.20116   2.44446
    R4        2.64562  -0.08989   0.00000  -0.04361  -0.04361   2.60201
    R5        1.81414   0.00751   0.00000   0.00083   0.00083   1.81497
    A1        1.91114  -0.01649   0.00000  -0.01366  -0.01366   1.89748
    A2        1.91063  -0.00354   0.00000  -0.02137  -0.02137   1.88926
    A3        1.91063  -0.01630   0.00000  -0.00355  -0.00355   1.90708
    A4        3.14159  -0.00388   0.00000  -0.00732  -0.00732   3.13427
    A5        3.14159   0.00139   0.00000   0.10590   0.10590   3.24750
    D1        1.57080  -0.00015   0.00000   0.18377   0.18377   1.75457
    D2        3.14159  -0.00031   0.00000   0.04372   0.04372  -3.09788
         Item               Value     Threshold  Converged?
 Maximum Force            0.089887     0.000450     NO 
 RMS     Force            0.027984     0.000300     NO 
 Maximum Displacement     0.158532     0.001800     NO 
 RMS     Displacement     0.088786     0.001200     NO 
 Predicted change in Energy=-8.572463D-03
 GradGradGradGradGradGradGradGradGradGradGradGradGradGradGradGradGradGrad

                          Input orientation:                          
 ---------------------------------------------------------------------
 Center     Atomic      Atomic             Coordinates (Angstroms)
 Number     Number       Type             X           Y           Z
 ---------------------------------------------------------------------
      1          8           0       -0.652864    0.015258   -0.007696
      2          1           0       -0.983014   -0.082655   -0.905475
      3          8           0        0.668667   -0.012044   -0.036288
      4          1           0        1.100646    1.204914    0.039067
      5          8           0        1.551792    2.505817    0.032525
      6          1           0        2.510379    2.508538   -0.027068
 ---------------------------------------------------------------------
                    Distance matrix (angstroms):
                    1          2          3          4          5
     1  O    0.000000
     2  H    0.961557   0.000000
     3  O    1.322123   1.867759   0.000000
     4  H    2.119498   2.625192   1.293551   0.000000
     5  O    3.326411   3.742362   2.669133   1.376925   0.000000
     6  H    4.027770   4.437304   3.121750   1.921237   0.960441
                    6
     6  H    0.000000
 Stoichiometry    H3O3(2)
 Framework group  C1[X(H3O3)]
 Deg. of freedom    12
 Full point group                 C1      NOp   1
 Largest Abelian subgroup         C1      NOp   1
 Largest concise Abelian subgroup C1      NOp   1
                         Standard orientation:                         
 ---------------------------------------------------------------------
 Center     Atomic      Atomic             Coordinates (Angstroms)
 Number     Number       Type             X           Y           Z
 ---------------------------------------------------------------------
      1          8           0       -1.431886   -0.397340   -0.110507
      2          1           0       -1.751029   -0.646594    0.761624
      3          8           0       -0.624864    0.642454    0.014206
      4          1           0        0.595455    0.216659   -0.038652
      5          8           0        1.889803   -0.252073   -0.009068
      6          1           0        2.491149    0.485612    0.119977
 ---------------------------------------------------------------------
 Rotational constants (GHZ):     43.7048100      4.7382620      4.3301519
 Standard basis: 6-31+G(d,p) (6D, 7F)
 There are    72 symmetry adapted basis functions of A   symmetry.
 Integral buffers will be    262144 words long.
 Raffenetti 2 integral format.
 Two-electron integral symmetry is turned on.
    72 basis functions,   117 primitive gaussians,    72 cartesian basis functions
    14 alpha electrons       13 beta electrons
       nuclear repulsion energy        72.0420397921 Hartrees.
 NAtoms=    6 NActive=    6 NUniq=    6 SFac= 7.50D-01 NAtFMM=   80 NAOKFM=F Big=F
 One-electron integrals computed using PRISM.
 NBasis=    72 RedAO= T  NBF=    72
 NBsUse=    72 1.00D-06 NBFU=    72
 Initial guess read from the read-write file.
 B after Tr=     0.000000    0.000000    0.000000
         Rot=    1.000000    0.000000    0.000000    0.000000 Ang=   0.00 deg.
 Initial guess orbital symmetries:
 Alpha Orbitals:
       Occupied  (A) (A) (A) (A) (A) (A) (A) (A) (A) (A) (A) (A)
                 (A) (A)
       Virtual   (A) (A) (A) (A) (A) (A) (A) (A) (A) (A) (A) (A)
                 (A) (A) (A) (A) (A) (A) (A) (A) (A) (A) (A) (A)
                 (A) (A) (A) (A) (A) (A) (A) (A) (A) (A) (A) (A)
                 (A) (A) (A) (A) (A) (A) (A) (A) (A) (A) (A) (A)
                 (A) (A) (A) (A) (A) (A) (A) (A) (A) (A)
 Beta  Orbitals:
       Occupied  (A) (A) (A) (A) (A) (A) (A) (A) (A) (A) (A) (A)
                 (A)
       Virtual   (A) (A) (A) (A) (A) (A) (A) (A) (A) (A) (A) (A)
                 (A) (A) (A) (A) (A) (A) (A) (A) (A) (A) (A) (A)
                 (A) (A) (A) (A) (A) (A) (A) (A) (A) (A) (A) (A)
                 (A) (A) (A) (A) (A) (A) (A) (A) (A) (A) (A) (A)
                 (A) (A) (A) (A) (A) (A) (A) (A) (A) (A) (A)
 Initial guess <Sx>= 0.0000 <Sy>= 0.0000 <Sz>= 0.5000 <S**2>= 0.7711 S= 0.5105
 Harris functional with IExCor= 1009 diagonalized for initial guess.
 ExpMin= 8.45D-02 ExpMax= 5.48D+03 ExpMxC= 8.25D+02 IAcc=2 IRadAn=         0 AccDes= 0.00D+00
 HarFok:  IExCor= 1009 AccDes= 0.00D+00 IRadAn=         0 IDoV= 1
 ScaDFX=  1.000000  1.000000  1.000000  1.000000
 FoFCou: FMM=F IPFlag=           0 FMFlag=      100000 FMFlg1=           0
         NFxFlg=           0 DoJE=T BraDBF=F KetDBF=T FulRan=T
         Omega=  0.000000  0.000000  1.000000  0.000000  0.000000 ICntrl=     500 IOpCl=  0
         NMat0=    1 NMatS0=    1 NMatT0=    0 NMatD0=    1 NMtDS0=    0 NMtDT0=    0
         I1Cent=           4 NGrid=           0.
 Petite list used in FoFCou.
 Requested convergence on RMS density matrix=1.00D-08 within 128 cycles.
 Requested convergence on MAX density matrix=1.00D-06.
 Requested convergence on             energy=1.00D-06.
 No special actions if energy rises.
 Keep R1 and R2 ints in memory in canonical form, NReq=7883010.
 Integral accuracy reduced to 1.0D-05 until final iterations.
 Initial convergence to 1.0D-05 achieved.  Increase integral accuracy.
 SCF Done:  E(UM062X) =  -227.179204390     A.U. after   29 cycles
             Convg  =    0.3441D-08             -V/T =  2.0088
 <Sx>= 0.0000 <Sy>= 0.0000 <Sz>= 0.5000 <S**2>= 0.7711 S= 0.5105
 <L.S>= 0.000000000000E+00
 Annihilation of the first spin contaminant:
 S**2 before annihilation     0.7711,   after     0.7501
 Calling FoFJK, ICntrl=      2127 FMM=F ISym2X=0 I1Cent= 0 IOpClX= 1 NMat=1 NMatS=1 NMatT=0.
 ***** Axes restored to original set *****
 -------------------------------------------------------------------
 Center     Atomic                   Forces (Hartrees/Bohr)
 Number     Number              X              Y              Z
 -------------------------------------------------------------------
      1        8          -0.006256207    0.004744958    0.021696556
      2        1           0.002705458   -0.002030900   -0.015686260
      3        8           0.010671579    0.016454433   -0.006479123
      4        1           0.022830904    0.048819032    0.001206296
      5        8          -0.037754185   -0.061114610   -0.000000682
      6        1           0.007802452   -0.006872914   -0.000736787
 -------------------------------------------------------------------
 Cartesian Forces:  Max     0.061114610 RMS     0.022841900

 GradGradGradGradGradGradGradGradGradGradGradGradGradGradGradGradGradGrad
 Berny optimization.
 Internal  Forces:  Max     0.074004010 RMS     0.023399197
 Search for a saddle point.
 Step number   2 out of a maximum of  100
 All quantities printed in internal units (Hartrees-Bohrs-Radians)
 Update second derivatives using D2CorX and points    1    2
 The second derivative matrix:
                          R1        R2        R3        R4        R5
           R1           0.54959
           R2           0.01545   0.47915
           R3          -0.00453   0.04234  -0.01933
           R4           0.00338  -0.02861   0.08070  -0.03745
           R5           0.00137  -0.00666   0.00516  -0.00918   0.56926
           A1          -0.00488   0.06563  -0.00120   0.00022  -0.00056
           A2           0.00043   0.03376  -0.01239   0.00734   0.00166
           A3           0.00007  -0.00435   0.01579   0.00108   0.00873
           A4           0.00117  -0.01185  -0.00067  -0.00287   0.00024
           A5          -0.00067  -0.00016  -0.00004  -0.00103  -0.00004
           D1           0.00278  -0.00121  -0.00171  -0.00497  -0.00031
           D2           0.00026  -0.00050   0.00046  -0.00015   0.00102
                          A1        A2        A3        A4        A5
           A1           0.23309
           A2           0.00221   0.09600
           A3          -0.00055   0.00420   0.09351
           A4          -0.00242  -0.00046   0.00363   0.01345
           A5           0.00151   0.00220  -0.00035   0.00293   0.00591
           D1           0.00415   0.00431  -0.00122  -0.00326  -0.00658
           D2          -0.00066  -0.00189   0.00181  -0.00188  -0.00093
                          D1        D2
           D1          -0.00103
           D2          -0.00251   0.00246
 LST/QST climbing along tangent vector
     Eigenvalues ---   -0.10903  -0.00696   0.00268   0.00724   0.01603
     Eigenvalues ---    0.04857   0.09231   0.09871   0.21687   0.49485
     Eigenvalues ---    0.55329   0.57005
 Eigenvectors required to have negative eigenvalues:
                          R4        R3        D1        A5        D2
   1                    0.72527  -0.68764  -0.02825  -0.01628  -0.00672
                          A2        A1        A4        R2        A3
   1                    0.00329   0.00210   0.00113  -0.00062   0.00055
 QST in optimization variable space.
                        Tangent   TS vect  // Eig F  Eigenval
   1         R1         0.00045  -0.00045  -0.03977  -0.10903
   2         R2         0.00062  -0.00062  -0.00231  -0.00696
   3         R3         0.68764  -0.68764  -0.00038   0.00268
   4         R4        -0.72527   0.72527   0.00339   0.00724
   5         R5         0.00013  -0.00013  -0.00188   0.01603
   6         A1        -0.00210   0.00210  -0.02971   0.04857
   7         A2        -0.00329   0.00329   0.00918   0.09231
   8         A3        -0.00055   0.00055  -0.01218   0.09871
   9         A4        -0.00113   0.00113  -0.00658   0.21687
  10         A5         0.01628  -0.01628  -0.00220   0.49485
  11         D1         0.02825  -0.02825   0.00689   0.55329
  12         D2         0.00672  -0.00672   0.00396   0.57005
 RFO step:  Lambda0=1.296671763D-02 Lambda=-1.69531377D-02.
 Linear search not attempted -- option 19 set.
 Maximum step size (   0.300) exceeded in Quadratic search.
    -- Step size scaled by   0.313
 Iteration  1 RMS(Cart)=  0.12823188 RMS(Int)=  0.00560288
 Iteration  2 RMS(Cart)=  0.00459747 RMS(Int)=  0.00000748
 Iteration  3 RMS(Cart)=  0.00001198 RMS(Int)=  0.00000000
 Iteration  4 RMS(Cart)=  0.00000000 RMS(Int)=  0.00000000
 Variable       Old X    -DE/DX   Delta X   Delta X   Delta X     New X
                                 (Linear)    (Quad)   (Total)
    R1        1.81708   0.01396   0.00000   0.00447   0.00447   1.82155
    R2        2.49845   0.00369   0.00000   0.00323   0.00323   2.50168
    R3        2.44446  -0.02038   0.00000  -0.18618  -0.18618   2.25828
    R4        2.60201  -0.07400   0.00000  -0.04572  -0.04572   2.55629
    R5        1.81497   0.00777   0.00000   0.00124   0.00124   1.81621
    A1        1.89748  -0.01466   0.00000  -0.00691  -0.00691   1.89057
    A2        1.88926  -0.00470   0.00000  -0.00329  -0.00329   1.88597
    A3        1.90708  -0.01245   0.00000   0.00066   0.00066   1.90774
    A4        3.13427  -0.00366   0.00000  -0.05475  -0.05475   3.07952
    A5        3.24750   0.00205   0.00000  -0.08186  -0.08186   3.16564
    D1        1.75457   0.00040   0.00000  -0.19980  -0.19980   1.55477
    D2       -3.09788   0.00017   0.00000  -0.05950  -0.05950   3.12581
         Item               Value     Threshold  Converged?
 Maximum Force            0.074004     0.000450     NO 
 RMS     Force            0.023399     0.000300     NO 
 Maximum Displacement     0.255977     0.001800     NO 
 RMS     Displacement     0.129229     0.001200     NO 
 Predicted change in Energy=-7.276368D-03
 GradGradGradGradGradGradGradGradGradGradGradGradGradGradGradGradGradGrad

                          Input orientation:                          
 ---------------------------------------------------------------------
 Center     Atomic      Atomic             Coordinates (Angstroms)
 Number     Number       Type             X           Y           Z
 ---------------------------------------------------------------------
      1          8           0       -0.613151    0.032996    0.012301
      2          1           0       -0.918343    0.052802   -0.901816
      3          8           0        0.710329    0.002665    0.008604
      4          1           0        1.106695    1.130042    0.005266
      5          8           0        1.475416    2.431305   -0.019952
      6          1           0        2.434661    2.490017   -0.009338
 ---------------------------------------------------------------------
                    Distance matrix (angstroms):
                    1          2          3          4          5
     1  O    0.000000
     2  H    0.963921   0.000000
     3  O    1.323833   1.866534   0.000000
     4  H    2.039958   2.466581   1.195030   0.000000
     5  O    3.180415   3.487842   2.546461   1.352729   0.000000
     6  H    3.914917   4.240184   3.026642   1.900852   0.961098
                    6
     6  H    0.000000
 Stoichiometry    H3O3(2)
 Framework group  C1[X(H3O3)]
 Deg. of freedom    12
 Full point group                 C1      NOp   1
 Largest Abelian subgroup         C1      NOp   1
 Largest concise Abelian subgroup C1      NOp   1
                         Standard orientation:                         
 ---------------------------------------------------------------------
 Center     Atomic      Atomic             Coordinates (Angstroms)
 Number     Number       Type             X           Y           Z
 ---------------------------------------------------------------------
      1          8           0       -1.383396   -0.391728   -0.118112
      2          1           0       -1.573878   -0.750506    0.756039
      3          8           0       -0.584727    0.654126    0.026286
      4          1           0        0.544548    0.263888    0.002846
      5          8           0        1.792445   -0.258028   -0.012317
      6          1           0        2.434754    0.451658    0.074254
 ---------------------------------------------------------------------
 Rotational constants (GHZ):     42.3478703      5.2077528      4.7035232
 Standard basis: 6-31+G(d,p) (6D, 7F)
 There are    72 symmetry adapted basis functions of A   symmetry.
 Integral buffers will be    262144 words long.
 Raffenetti 2 integral format.
 Two-electron integral symmetry is turned on.
    72 basis functions,   117 primitive gaussians,    72 cartesian basis functions
    14 alpha electrons       13 beta electrons
       nuclear repulsion energy        73.6548524073 Hartrees.
 NAtoms=    6 NActive=    6 NUniq=    6 SFac= 7.50D-01 NAtFMM=   80 NAOKFM=F Big=F
 One-electron integrals computed using PRISM.
 NBasis=    72 RedAO= T  NBF=    72
 NBsUse=    72 1.00D-06 NBFU=    72
 Initial guess read from the read-write file.
 B after Tr=     0.000000    0.000000    0.000000
         Rot=    1.000000    0.000000    0.000000    0.000000 Ang=   0.00 deg.
 Initial guess orbital symmetries:
 Alpha Orbitals:
       Occupied  (A) (A) (A) (A) (A) (A) (A) (A) (A) (A) (A) (A)
                 (A) (A)
       Virtual   (A) (A) (A) (A) (A) (A) (A) (A) (A) (A) (A) (A)
                 (A) (A) (A) (A) (A) (A) (A) (A) (A) (A) (A) (A)
                 (A) (A) (A) (A) (A) (A) (A) (A) (A) (A) (A) (A)
                 (A) (A) (A) (A) (A) (A) (A) (A) (A) (A) (A) (A)
                 (A) (A) (A) (A) (A) (A) (A) (A) (A) (A)
 Beta  Orbitals:
       Occupied  (A) (A) (A) (A) (A) (A) (A) (A) (A) (A) (A) (A)
                 (A)
       Virtual   (A) (A) (A) (A) (A) (A) (A) (A) (A) (A) (A) (A)
                 (A) (A) (A) (A) (A) (A) (A) (A) (A) (A) (A) (A)
                 (A) (A) (A) (A) (A) (A) (A) (A) (A) (A) (A) (A)
                 (A) (A) (A) (A) (A) (A) (A) (A) (A) (A) (A) (A)
                 (A) (A) (A) (A) (A) (A) (A) (A) (A) (A) (A)
 Initial guess <Sx>= 0.0000 <Sy>= 0.0000 <Sz>= 0.5000 <S**2>= 0.7693 S= 0.5096
 Harris functional with IExCor= 1009 diagonalized for initial guess.
 ExpMin= 8.45D-02 ExpMax= 5.48D+03 ExpMxC= 8.25D+02 IAcc=2 IRadAn=         0 AccDes= 0.00D+00
 HarFok:  IExCor= 1009 AccDes= 0.00D+00 IRadAn=         0 IDoV= 1
 ScaDFX=  1.000000  1.000000  1.000000  1.000000
 FoFCou: FMM=F IPFlag=           0 FMFlag=      100000 FMFlg1=           0
         NFxFlg=           0 DoJE=T BraDBF=F KetDBF=T FulRan=T
         Omega=  0.000000  0.000000  1.000000  0.000000  0.000000 ICntrl=     500 IOpCl=  0
         NMat0=    1 NMatS0=    1 NMatT0=    0 NMatD0=    1 NMtDS0=    0 NMtDT0=    0
         I1Cent=           4 NGrid=           0.
 Petite list used in FoFCou.
 Requested convergence on RMS density matrix=1.00D-08 within 128 cycles.
 Requested convergence on MAX density matrix=1.00D-06.
 Requested convergence on             energy=1.00D-06.
 No special actions if energy rises.
 Keep R1 and R2 ints in memory in canonical form, NReq=7882864.
 Integral accuracy reduced to 1.0D-05 until final iterations.
 Initial convergence to 1.0D-05 achieved.  Increase integral accuracy.
 SCF Done:  E(UM062X) =  -227.185704984     A.U. after   29 cycles
             Convg  =    0.6936D-08             -V/T =  2.0084
 <Sx>= 0.0000 <Sy>= 0.0000 <Sz>= 0.5000 <S**2>= 0.7681 S= 0.5090
 <L.S>= 0.000000000000E+00
 Annihilation of the first spin contaminant:
 S**2 before annihilation     0.7681,   after     0.7501
 Calling FoFJK, ICntrl=      2127 FMM=F ISym2X=0 I1Cent= 0 IOpClX= 1 NMat=1 NMatS=1 NMatT=0.
 ***** Axes restored to original set *****
 -------------------------------------------------------------------
 Center     Atomic                   Forces (Hartrees/Bohr)
 Number     Number              X              Y              Z
 -------------------------------------------------------------------
      1        8          -0.014872595    0.003118361    0.017649325
      2        1           0.003000269   -0.000139066   -0.012311998
      3        8           0.017800700    0.009539282   -0.006656859
      4        1           0.013401709    0.038201479    0.001324426
      5        8          -0.028048179   -0.046096271   -0.000491894
      6        1           0.008718096   -0.004623786    0.000487000
 -------------------------------------------------------------------
 Cartesian Forces:  Max     0.046096271 RMS     0.017958815

 GradGradGradGradGradGradGradGradGradGradGradGradGradGradGradGradGradGrad
 Berny optimization.
 Internal  Forces:  Max     0.054021651 RMS     0.017632090
 Search for a saddle point.
 Step number   3 out of a maximum of  100
 All quantities printed in internal units (Hartrees-Bohrs-Radians)
 Update second derivatives using D2CorX and points    1    2    3
 The second derivative matrix:
                          R1        R2        R3        R4        R5
           R1           0.54971
           R2           0.01484   0.48209
           R3          -0.00643   0.05430   0.00371
           R4           0.00187  -0.02060   0.10647  -0.01744
           R5           0.00124  -0.00605   0.00769  -0.00750   0.56939
           A1          -0.00496   0.06614  -0.00035   0.00129  -0.00045
           A2           0.00058   0.03315  -0.01597   0.00538   0.00154
           A3           0.00004  -0.00417   0.01639   0.00153   0.00877
           A4           0.00093  -0.01014   0.00123   0.00045   0.00061
           A5          -0.00081   0.00082   0.00158   0.00100   0.00017
           D1           0.00217   0.00281   0.00544   0.00351   0.00055
           D2           0.00018   0.00021   0.00021   0.00095   0.00118
                          A1        A2        A3        A4        A5
           A1           0.23312
           A2           0.00205   0.09607
           A3          -0.00053   0.00416   0.09352
           A4          -0.00236  -0.00102   0.00371   0.01341
           A5           0.00158   0.00194  -0.00029   0.00291   0.00556
           D1           0.00444   0.00317  -0.00100  -0.00299  -0.00703
           D2          -0.00068  -0.00215   0.00184  -0.00215  -0.00124
                          D1        D2
           D1          -0.00078
           D2          -0.00319   0.00210
 LST/QST climbing along tangent vector
     Eigenvalues ---   -0.11291  -0.00732   0.00252   0.00780   0.01600
     Eigenvalues ---    0.07515   0.09757   0.11188   0.21692   0.49951
     Eigenvalues ---    0.55328   0.57007
 Eigenvectors required to have negative eigenvalues:
                          R4        R3        A4        A2        A5
   1                    0.77215  -0.63505   0.01785   0.00709  -0.00692
                          A1        D1        D2        R1        R2
   1                    0.00591   0.00461   0.00454  -0.00213  -0.00208
 QST in optimization variable space.
                        Tangent   TS vect  // Eig F  Eigenval
   1         R1         0.00213  -0.00213  -0.03323  -0.11291
   2         R2         0.00208  -0.00208   0.00202  -0.00732
   3         R3         0.63505  -0.63505  -0.00125   0.00252
   4         R4        -0.77215   0.77215   0.00019   0.00780
   5         R5         0.00060  -0.00060  -0.00074   0.01600
   6         A1        -0.00591   0.00591   0.01327   0.07515
   7         A2        -0.00709   0.00709  -0.00454   0.09757
   8         A3        -0.00083   0.00083  -0.01908   0.11188
   9         A4        -0.01785   0.01785  -0.00587   0.21692
  10         A5         0.00692  -0.00692   0.00136   0.49951
  11         D1        -0.00461   0.00461   0.00626   0.55328
  12         D2        -0.00454   0.00454   0.00376   0.57007
 RFO step:  Lambda0=9.054390279D-03 Lambda=-8.69442863D-03.
 Linear search not attempted -- option 19 set.
 Maximum step size (   0.300) exceeded in Quadratic search.
    -- Step size scaled by   0.358
 Iteration  1 RMS(Cart)=  0.06961498 RMS(Int)=  0.00629467
 Iteration  2 RMS(Cart)=  0.00778332 RMS(Int)=  0.00006583
 Iteration  3 RMS(Cart)=  0.00006676 RMS(Int)=  0.00000000
 Iteration  4 RMS(Cart)=  0.00000000 RMS(Int)=  0.00000000
 Variable       Old X    -DE/DX   Delta X   Delta X   Delta X     New X
                                 (Linear)    (Quad)   (Total)
    R1        1.82155   0.01073   0.00000   0.00144   0.00144   1.82299
    R2        2.50168   0.01190   0.00000   0.01255   0.01255   2.51423
    R3        2.25828  -0.01374   0.00000  -0.13560  -0.13560   2.12268
    R4        2.55629  -0.05402   0.00000   0.01465   0.01465   2.57094
    R5        1.81621   0.00839   0.00000   0.00257   0.00257   1.81878
    A1        1.89057  -0.01239   0.00000  -0.01616  -0.01616   1.87441
    A2        1.88597  -0.00661   0.00000  -0.02992  -0.02992   1.85606
    A3        1.90774  -0.00929   0.00000  -0.00065  -0.00065   1.90710
    A4        3.07952  -0.00316   0.00000   0.00327   0.00327   3.08279
    A5        3.16564   0.00155   0.00000   0.13569   0.13569   3.30133
    D1        1.55477   0.00051   0.00000   0.21865   0.21865   1.77342
    D2        3.12581  -0.00049   0.00000   0.06202   0.06202  -3.09535
         Item               Value     Threshold  Converged?
 Maximum Force            0.054022     0.000450     NO 
 RMS     Force            0.017632     0.000300     NO 
 Maximum Displacement     0.130846     0.001800     NO 
 RMS     Displacement     0.072697     0.001200     NO 
 Predicted change in Energy=-2.635398D-03
 GradGradGradGradGradGradGradGradGradGradGradGradGradGradGradGradGradGrad

                          Input orientation:                          
 ---------------------------------------------------------------------
 Center     Atomic      Atomic             Coordinates (Angstroms)
 Number     Number       Type             X           Y           Z
 ---------------------------------------------------------------------
      1          8           0       -0.599400    0.102237    0.003177
      2          1           0       -0.912630    0.007687   -0.904326
      3          8           0        0.729476    0.044209   -0.026612
      4          1           0        1.094091    1.103308    0.057682
      5          8           0        1.462647    2.412154    0.012989
      6          1           0        2.421422    2.470233   -0.047845
 ---------------------------------------------------------------------
                    Distance matrix (angstroms):
                    1          2          3          4          5
     1  O    0.000000
     2  H    0.964683   0.000000
     3  O    1.330475   1.862317   0.000000
     4  H    1.968000   2.480478   1.123272   0.000000
     5  O    3.096425   3.502124   2.479168   1.360482   0.000000
     6  H    3.838667   4.232445   2.957824   1.908252   0.962456
                    6
     6  H    0.000000
 Stoichiometry    H3O3(2)
 Framework group  C1[X(H3O3)]
 Deg. of freedom    12
 Full point group                 C1      NOp   1
 Largest Abelian subgroup         C1      NOp   1
 Largest concise Abelian subgroup C1      NOp   1
                         Standard orientation:                         
 ---------------------------------------------------------------------
 Center     Atomic      Atomic             Coordinates (Angstroms)
 Number     Number       Type             X           Y           Z
 ---------------------------------------------------------------------
      1          8           0       -1.345776   -0.404081   -0.111659
      2          1           0       -1.646588   -0.647605    0.771982
      3          8           0       -0.555531    0.658644    0.015983
      4          1           0        0.499055    0.279161   -0.058736
      5          8           0        1.745727   -0.263246   -0.008615
      6          1           0        2.392172    0.437904    0.121080
 ---------------------------------------------------------------------
 Rotational constants (GHZ):     41.7992820      5.4800591      4.9181798
 Standard basis: 6-31+G(d,p) (6D, 7F)
 There are    72 symmetry adapted basis functions of A   symmetry.
 Integral buffers will be    262144 words long.
 Raffenetti 2 integral format.
 Two-electron integral symmetry is turned on.
    72 basis functions,   117 primitive gaussians,    72 cartesian basis functions
    14 alpha electrons       13 beta electrons
       nuclear repulsion energy        74.5038029879 Hartrees.
 NAtoms=    6 NActive=    6 NUniq=    6 SFac= 7.50D-01 NAtFMM=   80 NAOKFM=F Big=F
 One-electron integrals computed using PRISM.
 NBasis=    72 RedAO= T  NBF=    72
 NBsUse=    72 1.00D-06 NBFU=    72
 Initial guess read from the read-write file.
 B after Tr=     0.000000    0.000000    0.000000
         Rot=    1.000000    0.000000    0.000000    0.000000 Ang=   0.00 deg.
 Initial guess orbital symmetries:
 Alpha Orbitals:
       Occupied  (A) (A) (A) (A) (A) (A) (A) (A) (A) (A) (A) (A)
                 (A) (A)
       Virtual   (A) (A) (A) (A) (A) (A) (A) (A) (A) (A) (A) (A)
                 (A) (A) (A) (A) (A) (A) (A) (A) (A) (A) (A) (A)
                 (A) (A) (A) (A) (A) (A) (A) (A) (A) (A) (A) (A)
                 (A) (A) (A) (A) (A) (A) (A) (A) (A) (A) (A) (A)
                 (A) (A) (A) (A) (A) (A) (A) (A) (A) (A)
 Beta  Orbitals:
       Occupied  (A) (A) (A) (A) (A) (A) (A) (A) (A) (A) (A) (A)
                 (A)
       Virtual   (A) (A) (A) (A) (A) (A) (A) (A) (A) (A) (A) (A)
                 (A) (A) (A) (A) (A) (A) (A) (A) (A) (A) (A) (A)
                 (A) (A) (A) (A) (A) (A) (A) (A) (A) (A) (A) (A)
                 (A) (A) (A) (A) (A) (A) (A) (A) (A) (A) (A) (A)
                 (A) (A) (A) (A) (A) (A) (A) (A) (A) (A) (A)
 Initial guess <Sx>= 0.0000 <Sy>= 0.0000 <Sz>= 0.5000 <S**2>= 0.7671 S= 0.5085
 Harris functional with IExCor= 1009 diagonalized for initial guess.
 ExpMin= 8.45D-02 ExpMax= 5.48D+03 ExpMxC= 8.25D+02 IAcc=2 IRadAn=         0 AccDes= 0.00D+00
 HarFok:  IExCor= 1009 AccDes= 0.00D+00 IRadAn=         0 IDoV= 1
 ScaDFX=  1.000000  1.000000  1.000000  1.000000
 FoFCou: FMM=F IPFlag=           0 FMFlag=      100000 FMFlg1=           0
         NFxFlg=           0 DoJE=T BraDBF=F KetDBF=T FulRan=T
         Omega=  0.000000  0.000000  1.000000  0.000000  0.000000 ICntrl=     500 IOpCl=  0
         NMat0=    1 NMatS0=    1 NMatT0=    0 NMatD0=    1 NMtDS0=    0 NMtDT0=    0
         I1Cent=           4 NGrid=           0.
 Petite list used in FoFCou.
 Requested convergence on RMS density matrix=1.00D-08 within 128 cycles.
 Requested convergence on MAX density matrix=1.00D-06.
 Requested convergence on             energy=1.00D-06.
 No special actions if energy rises.
 Keep R1 and R2 ints in memory in canonical form, NReq=7882864.
 Integral accuracy reduced to 1.0D-05 until final iterations.
 Initial convergence to 1.0D-05 achieved.  Increase integral accuracy.
 SCF Done:  E(UM062X) =  -227.187587895     A.U. after   30 cycles
             Convg  =    0.4297D-08             -V/T =  2.0081
 <Sx>= 0.0000 <Sy>= 0.0000 <Sz>= 0.5000 <S**2>= 0.7657 S= 0.5078
 <L.S>= 0.000000000000E+00
 Annihilation of the first spin contaminant:
 S**2 before annihilation     0.7657,   after     0.7501
 Calling FoFJK, ICntrl=      2127 FMM=F ISym2X=0 I1Cent= 0 IOpClX= 1 NMat=1 NMatS=1 NMatT=0.
 ***** Axes restored to original set *****
 -------------------------------------------------------------------
 Center     Atomic                   Forces (Hartrees/Bohr)
 Number     Number              X              Y              Z
 -------------------------------------------------------------------
      1        8          -0.021459727    0.004807363    0.014108560
      2        1           0.002907850   -0.001187921   -0.009315598
      3        8           0.023014033    0.003830910   -0.006289807
      4        1           0.008038435    0.025962155    0.001763687
      5        8          -0.021288202   -0.030663121    0.000668281
      6        1           0.008787612   -0.002749387   -0.000935123
 -------------------------------------------------------------------
 Cartesian Forces:  Max     0.030663121 RMS     0.014111638

 GradGradGradGradGradGradGradGradGradGradGradGradGradGradGradGradGradGrad
 Berny optimization.
 Internal  Forces:  Max     0.035510957 RMS     0.012987345
 Search for a saddle point.
 Step number   4 out of a maximum of  100
 All quantities printed in internal units (Hartrees-Bohrs-Radians)
 Update second derivatives using D2CorX and points    1    2    3    4
 The second derivative matrix:
                          R1        R2        R3        R4        R5
           R1           0.54978
           R2           0.01436   0.48515
           R3          -0.00818   0.06927   0.04368
           R4           0.00120  -0.01640   0.12424  -0.01091
           R5           0.00116  -0.00556   0.01023  -0.00677   0.56947
           A1          -0.00500   0.06657  -0.00054   0.00185  -0.00037
           A2           0.00038   0.03521  -0.01070   0.00726   0.00186
           A3          -0.00005  -0.00349   0.01920   0.00227   0.00887
           A4           0.00080  -0.00899   0.00361   0.00180   0.00081
           A5          -0.00053  -0.00240  -0.00210  -0.00252  -0.00039
           D1           0.00282  -0.00383  -0.00983  -0.00317  -0.00053
           D2           0.00025  -0.00061   0.00005  -0.00008   0.00103
                          A1        A2        A3        A4        A5
           A1           0.23304
           A2           0.00191   0.09706
           A3          -0.00049   0.00462   0.09368
           A4          -0.00240  -0.00073   0.00391   0.01348
           A5           0.00201   0.00160  -0.00082   0.00267   0.00367
           D1           0.00499   0.00070  -0.00237  -0.00411  -0.00795
           D2          -0.00053  -0.00201   0.00174  -0.00221  -0.00227
                          D1        D2
           D1           0.00306
           D2          -0.00452   0.00162
 LST/QST climbing along tangent vector
     Eigenvalues ---   -0.10735  -0.00883   0.00291   0.00844   0.01687
     Eigenvalues ---    0.08165   0.09784   0.14312   0.21803   0.50672
     Eigenvalues ---    0.55333   0.57008
 Eigenvectors required to have negative eigenvalues:
                          R4        R3        D1        A5        A4
   1                    0.81282  -0.57165  -0.08177  -0.06446   0.02373
                          A2        D2        A1        R2        R1
   1                    0.02202  -0.01866   0.01482  -0.00799  -0.00357
 QST in optimization variable space.
                        Tangent   TS vect  // Eig F  Eigenval
   1         R1         0.00357  -0.00357  -0.02479  -0.10735
   2         R2         0.00799  -0.00799  -0.00042  -0.00883
   3         R3         0.57165  -0.57165  -0.00021   0.00291
   4         R4        -0.81282   0.81282  -0.00125   0.00844
   5         R5         0.00187  -0.00187   0.00091   0.01687
   6         A1        -0.01482   0.01482   0.00514   0.08165
   7         A2        -0.02202   0.02202  -0.00364   0.09784
   8         A3        -0.00143   0.00143  -0.01473   0.14312
   9         A4        -0.02373   0.02373  -0.00492   0.21803
  10         A5         0.06446  -0.06446   0.00476   0.50672
  11         D1         0.08177  -0.08177   0.00582   0.55333
  12         D2         0.01866  -0.01866   0.00355   0.57008
 RFO step:  Lambda0=5.447225514D-03 Lambda=-8.85694578D-03.
 Linear search not attempted -- option 19 set.
 Maximum step size (   0.300) exceeded in Quadratic search.
    -- Step size scaled by   0.377
 Iteration  1 RMS(Cart)=  0.09238173 RMS(Int)=  0.00735307
 Iteration  2 RMS(Cart)=  0.00820955 RMS(Int)=  0.00004518
 Iteration  3 RMS(Cart)=  0.00004399 RMS(Int)=  0.00000000
 Iteration  4 RMS(Cart)=  0.00000000 RMS(Int)=  0.00000000
 Variable       Old X    -DE/DX   Delta X   Delta X   Delta X     New X
                                 (Linear)    (Quad)   (Total)
    R1        1.82299   0.00800   0.00000   0.00295   0.00295   1.82593
    R2        2.51423   0.01879   0.00000   0.00617   0.00617   2.52040
    R3        2.12268  -0.00842   0.00000  -0.07106  -0.07106   2.05162
    R4        2.57094  -0.03551   0.00000   0.01709   0.01709   2.58802
    R5        1.81878   0.00864   0.00000   0.00265   0.00265   1.82143
    A1        1.87441  -0.01082   0.00000  -0.00338  -0.00338   1.87103
    A2        1.85606  -0.00592   0.00000  -0.00744  -0.00744   1.84862
    A3        1.90710  -0.00599   0.00000  -0.00754  -0.00754   1.89955
    A4        3.08279  -0.00201   0.00000  -0.03143  -0.03143   3.05136
    A5        3.30133   0.00278   0.00000  -0.14548  -0.14548   3.15585
    D1        1.77342   0.00007   0.00000  -0.21739  -0.21739   1.55603
    D2       -3.09535   0.00065   0.00000  -0.12276  -0.12276   3.06507
         Item               Value     Threshold  Converged?
 Maximum Force            0.035511     0.000450     NO 
 RMS     Force            0.012987     0.000300     NO 
 Maximum Displacement     0.185289     0.001800     NO 
 RMS     Displacement     0.097616     0.001200     NO 
 Predicted change in Energy=-3.404566D-04
 GradGradGradGradGradGradGradGradGradGradGradGradGradGradGradGradGradGrad

                          Input orientation:                          
 ---------------------------------------------------------------------
 Center     Atomic      Atomic             Coordinates (Angstroms)
 Number     Number       Type             X           Y           Z
 ---------------------------------------------------------------------
      1          8           0       -0.582329    0.094972    0.027300
      2          1           0       -0.876602    0.105738   -0.892978
      3          8           0        0.749615    0.026919    0.014738
      4          1           0        1.100047    1.054218   -0.008307
      5          8           0        1.423407    2.384334   -0.050987
      6          1           0        2.381468    2.473647    0.005299
 ---------------------------------------------------------------------
                    Distance matrix (angstroms):
                    1          2          3          4          5
     1  O    0.000000
     2  H    0.966243   0.000000
     3  O    1.333740   1.864066   0.000000
     4  H    1.936959   2.364191   1.085668   0.000000
     5  O    3.044714   3.345294   2.452696   1.369523   0.000000
     6  H    3.800351   4.126611   2.941005   1.912330   0.963860
                    6
     6  H    0.000000
 Stoichiometry    H3O3(2)
 Framework group  C1[X(H3O3)]
 Deg. of freedom    12
 Full point group                 C1      NOp   1
 Largest Abelian subgroup         C1      NOp   1
 Largest concise Abelian subgroup C1      NOp   1
                         Standard orientation:                         
 ---------------------------------------------------------------------
 Center     Atomic      Atomic             Coordinates (Angstroms)
 Number     Number       Type             X           Y           Z
 ---------------------------------------------------------------------
      1          8           0       -1.326520   -0.405148   -0.121629
      2          1           0       -1.506345   -0.752762    0.761803
      3          8           0       -0.553801    0.671607    0.027928
      4          1           0        0.469190    0.308366    0.013028
      5          8           0        1.712783   -0.264947   -0.006466
      6          1           0        2.377452    0.432301    0.026506
 ---------------------------------------------------------------------
 Rotational constants (GHZ):     40.2350046      5.6780825      5.0534748
 Standard basis: 6-31+G(d,p) (6D, 7F)
 There are    72 symmetry adapted basis functions of A   symmetry.
 Integral buffers will be    262144 words long.
 Raffenetti 2 integral format.
 Two-electron integral symmetry is turned on.
    72 basis functions,   117 primitive gaussians,    72 cartesian basis functions
    14 alpha electrons       13 beta electrons
       nuclear repulsion energy        74.9926221284 Hartrees.
 NAtoms=    6 NActive=    6 NUniq=    6 SFac= 7.50D-01 NAtFMM=   80 NAOKFM=F Big=F
 One-electron integrals computed using PRISM.
 NBasis=    72 RedAO= T  NBF=    72
 NBsUse=    72 1.00D-06 NBFU=    72
 Initial guess read from the read-write file.
 B after Tr=     0.000000    0.000000    0.000000
         Rot=    1.000000    0.000000    0.000000    0.000000 Ang=   0.00 deg.
 Initial guess orbital symmetries:
 Alpha Orbitals:
       Occupied  (A) (A) (A) (A) (A) (A) (A) (A) (A) (A) (A) (A)
                 (A) (A)
       Virtual   (A) (A) (A) (A) (A) (A) (A) (A) (A) (A) (A) (A)
                 (A) (A) (A) (A) (A) (A) (A) (A) (A) (A) (A) (A)
                 (A) (A) (A) (A) (A) (A) (A) (A) (A) (A) (A) (A)
                 (A) (A) (A) (A) (A) (A) (A) (A) (A) (A) (A) (A)
                 (A) (A) (A) (A) (A) (A) (A) (A) (A) (A)
 Beta  Orbitals:
       Occupied  (A) (A) (A) (A) (A) (A) (A) (A) (A) (A) (A) (A)
                 (A)
       Virtual   (A) (A) (A) (A) (A) (A) (A) (A) (A) (A) (A) (A)
                 (A) (A) (A) (A) (A) (A) (A) (A) (A) (A) (A) (A)
                 (A) (A) (A) (A) (A) (A) (A) (A) (A) (A) (A) (A)
                 (A) (A) (A) (A) (A) (A) (A) (A) (A) (A) (A) (A)
                 (A) (A) (A) (A) (A) (A) (A) (A) (A) (A) (A)
 Initial guess <Sx>= 0.0000 <Sy>= 0.0000 <Sz>= 0.5000 <S**2>= 0.7654 S= 0.5077
 Harris functional with IExCor= 1009 diagonalized for initial guess.
 ExpMin= 8.45D-02 ExpMax= 5.48D+03 ExpMxC= 8.25D+02 IAcc=2 IRadAn=         0 AccDes= 0.00D+00
 HarFok:  IExCor= 1009 AccDes= 0.00D+00 IRadAn=         0 IDoV= 1
 ScaDFX=  1.000000  1.000000  1.000000  1.000000
 FoFCou: FMM=F IPFlag=           0 FMFlag=      100000 FMFlg1=           0
         NFxFlg=           0 DoJE=T BraDBF=F KetDBF=T FulRan=T
         Omega=  0.000000  0.000000  1.000000  0.000000  0.000000 ICntrl=     500 IOpCl=  0
         NMat0=    1 NMatS0=    1 NMatT0=    0 NMatD0=    1 NMtDS0=    0 NMtDT0=    0
         I1Cent=           4 NGrid=           0.
 Petite list used in FoFCou.
 Requested convergence on RMS density matrix=1.00D-08 within 128 cycles.
 Requested convergence on MAX density matrix=1.00D-06.
 Requested convergence on             energy=1.00D-06.
 No special actions if energy rises.
 Keep R1 and R2 ints in memory in canonical form, NReq=7882860.
 Integral accuracy reduced to 1.0D-05 until final iterations.
 Initial convergence to 1.0D-05 achieved.  Increase integral accuracy.
 SCF Done:  E(UM062X) =  -227.187353220     A.U. after   32 cycles
             Convg  =    0.1720D-08             -V/T =  2.0079
 <Sx>= 0.0000 <Sy>= 0.0000 <Sz>= 0.5000 <S**2>= 0.7643 S= 0.5071
 <L.S>= 0.000000000000E+00
 Annihilation of the first spin contaminant:
 S**2 before annihilation     0.7643,   after     0.7501
 Calling FoFJK, ICntrl=      2127 FMM=F ISym2X=0 I1Cent= 0 IOpClX= 1 NMat=1 NMatS=1 NMatT=0.
 ***** Axes restored to original set *****
 -------------------------------------------------------------------
 Center     Atomic                   Forces (Hartrees/Bohr)
 Number     Number              X              Y              Z
 -------------------------------------------------------------------
      1        8          -0.025297167    0.003794046    0.011529543
      2        1           0.002712126   -0.000747584   -0.007297846
      3        8           0.024424944   -0.002411709   -0.005765225
      4        1           0.005940380    0.023340924    0.001717468
      5        8          -0.016137171   -0.022633368   -0.001076667
      6        1           0.008356887   -0.001342308    0.000892728
 -------------------------------------------------------------------
 Cartesian Forces:  Max     0.025297167 RMS     0.012722217

 GradGradGradGradGradGradGradGradGradGradGradGradGradGradGradGradGradGrad
 Berny optimization.
 Internal  Forces:  Max     0.025110668 RMS     0.010694029
 Search for a saddle point.
 Step number   5 out of a maximum of  100
 All quantities printed in internal units (Hartrees-Bohrs-Radians)
 Update second derivatives using D2CorX and points    2    3    4    5
 The second derivative matrix:
                          R1        R2        R3        R4        R5
           R1           0.54979
           R2           0.01414   0.48697
           R3          -0.00891   0.08241   0.09095
           R4           0.00100  -0.01547   0.13418  -0.01063
           R5           0.00114  -0.00559   0.01092  -0.00683   0.56946
           A1          -0.00502   0.06732   0.00126   0.00248  -0.00031
           A2           0.00025   0.03766  -0.00152   0.00907   0.00197
           A3          -0.00009  -0.00295   0.02128   0.00272   0.00890
           A4           0.00072  -0.00708   0.00945   0.00327   0.00092
           A5          -0.00060  -0.00018   0.00340  -0.00056  -0.00021
           D1           0.00263   0.00154   0.00946   0.00060  -0.00033
           D2           0.00017   0.00218   0.00440   0.00265   0.00133
                          A1        A2        A3        A4        A5
           A1           0.23307
           A2           0.00228   0.09886
           A3          -0.00041   0.00500   0.09378
           A4          -0.00221   0.00045   0.00416   0.01413
           A5           0.00215   0.00272  -0.00061   0.00306   0.00285
           D1           0.00581   0.00476  -0.00166  -0.00194  -0.00765
           D2          -0.00058  -0.00115   0.00195  -0.00206  -0.00320
                          D1        D2
           D1           0.00923
           D2          -0.00448   0.00016
     Eigenvalues ---   -0.11158  -0.00678   0.00285   0.01146   0.01727
     Eigenvalues ---    0.08778   0.09876   0.17612   0.22021   0.51846
     Eigenvalues ---    0.55388   0.57019
 Eigenvectors required to have negative eigenvalues:
                          R4        R3        R2        A2        A3
   1                    0.79761  -0.58386   0.10855  -0.06055   0.05201
                          D1        A4        A5        A1        R5
   1                    0.04721   0.02737   0.02610  -0.02528   0.01774
 QST in optimization variable space.
                        Tangent   TS vect  // Eig F  Eigenval
   1         R1         0.00590  -0.01178  -0.01643  -0.11158
   2         R2         0.01299   0.10855   0.00286  -0.00678
   3         R3         0.52325  -0.58386  -0.00206   0.00285
   4         R4        -0.84911   0.79761   0.00218   0.01146
   5         R5         0.00365   0.01774  -0.00011   0.01727
   6         A1        -0.02006  -0.02528   0.00462   0.08778
   7         A2        -0.03101  -0.06055  -0.00639   0.09876
   8         A3        -0.00554   0.05201  -0.02221   0.17612
   9         A4        -0.04513   0.02737  -0.00885   0.22021
  10         A5         0.00713   0.02610   0.01582   0.51846
  11         D1        -0.00739   0.04721   0.01238   0.55388
  12         D2        -0.03827   0.00324   0.00694   0.57019
 RFO step:  Lambda0=2.369233001D-03 Lambda=-8.89804574D-03.
 Linear search not attempted -- option 19 set.
 Maximum step size (   0.300) exceeded in Quadratic search.
    -- Step size scaled by   0.372
 Iteration  1 RMS(Cart)=  0.07472210 RMS(Int)=  0.00536469
 Iteration  2 RMS(Cart)=  0.00574575 RMS(Int)=  0.00001414
 Iteration  3 RMS(Cart)=  0.00001346 RMS(Int)=  0.00000000
 Iteration  4 RMS(Cart)=  0.00000000 RMS(Int)=  0.00000000
 Variable       Old X    -DE/DX   Delta X   Delta X   Delta X     New X
                                 (Linear)    (Quad)   (Total)
    R1        1.82593   0.00615   0.00000   0.00138   0.00138   1.82731
    R2        2.52040   0.02272   0.00000   0.03323   0.03323   2.55363
    R3        2.05162  -0.00122   0.00000  -0.06129  -0.06129   1.99033
    R4        2.58802  -0.02511   0.00000  -0.00377  -0.00377   2.58425
    R5        1.82143   0.00823   0.00000   0.00671   0.00671   1.82814
    A1        1.87103  -0.00893   0.00000  -0.02776  -0.02776   1.84326
    A2        1.84862  -0.00434   0.00000  -0.03846  -0.03846   1.81016
    A3        1.89955  -0.00387   0.00000   0.00238   0.00238   1.90193
    A4        3.05136  -0.00112   0.00000   0.01388   0.01388   3.06524
    A5        3.15585   0.00152   0.00000   0.19811   0.19811   3.35396
    D1        1.55603   0.00104   0.00000   0.17252   0.17252   1.72855
    D2        3.06507  -0.00058   0.00000   0.11670   0.11670  -3.10142
         Item               Value     Threshold  Converged?
 Maximum Force            0.025111     0.000450     NO 
 RMS     Force            0.010694     0.000300     NO 
 Maximum Displacement     0.166411     0.001800     NO 
 RMS     Displacement     0.075724     0.001200     NO 
 Predicted change in Energy=-1.908428D-03
 GradGradGradGradGradGradGradGradGradGradGradGradGradGradGradGradGradGrad

                          Input orientation:                          
 ---------------------------------------------------------------------
 Center     Atomic      Atomic             Coordinates (Angstroms)
 Number     Number       Type             X           Y           Z
 ---------------------------------------------------------------------
      1          8           0       -0.578827    0.132674    0.014240
      2          1           0       -0.861535    0.094619   -0.909700
      3          8           0        0.769247    0.043343   -0.013977
      4          1           0        1.087752    1.042880    0.079754
      5          8           0        1.408577    2.369212   -0.009922
      6          1           0        2.370392    2.457100   -0.065330
 ---------------------------------------------------------------------
                    Distance matrix (angstroms):
                    1          2          3          4          5
     1  O    0.000000
     2  H    0.966973   0.000000
     3  O    1.351325   1.861289   0.000000
     4  H    1.900066   2.382842   1.053236   0.000000
     5  O    2.992066   3.337181   2.412141   1.367526   0.000000
     6  H    3.755952   4.091409   2.896985   1.914740   0.967411
                    6
     6  H    0.000000
 Stoichiometry    H3O3(2)
 Framework group  C1[X(H3O3)]
 Deg. of freedom    12
 Full point group                 C1      NOp   1
 Largest Abelian subgroup         C1      NOp   1
 Largest concise Abelian subgroup C1      NOp   1
                         Standard orientation:                         
 ---------------------------------------------------------------------
 Center     Atomic      Atomic             Coordinates (Angstroms)
[...]
 
              Baa    -0.0106    -5.646    -2.015    -1.883  0.0177  0.8902  0.4552
     2 H(1)   Bbb    -0.0046    -2.435    -0.869    -0.812  0.7510 -0.3124  0.5818
              Bcc     0.0151     8.082     2.884     2.696 -0.6601 -0.3315  0.6741
 
              Baa    -0.5727    41.442    14.788    13.824 -0.2632  0.0492  0.9635
     3 O(17)  Bbb    -0.5367    38.833    13.857    12.953  0.5818  0.8048  0.1178
              Bcc     1.1094   -80.275   -28.644   -26.777  0.7696 -0.5916  0.2405
 
              Baa    -0.0937   -49.996   -17.840   -16.677  0.3805  0.9173  0.1171
     4 H(1)   Bbb    -0.0488   -26.048    -9.295    -8.689  0.0388 -0.1423  0.9891
              Bcc     0.1425    76.044    27.134    25.366  0.9240 -0.3718 -0.0898
 
              Baa    -1.4365   103.943    37.089    34.672  0.4496  0.5729  0.6853
     5 O(17)  Bbb    -1.4336   103.737    37.016    34.603  0.0442  0.7521 -0.6576
              Bcc     2.8701  -207.680   -74.106   -69.275  0.8921 -0.3259 -0.3128
 
              Baa    -0.1080   -57.635   -20.566   -19.225  0.0514  0.7494 -0.6602
     6 H(1)   Bbb    -0.0353   -18.813    -6.713    -6.275  0.8873 -0.3377 -0.3142
              Bcc     0.1433    76.448    27.278    25.500  0.4584  0.5696  0.6822
 

 ---------------------------------------------------------------------------------

 Calling FoFJK, ICntrl=    100127 FMM=F ISym2X=0 I1Cent= 0 IOpClX= 1 NMat=1 NMatS=1 NMatT=0.
 Full mass-weighted force constant matrix:
 Low frequencies ----1050.1820   -0.0014   -0.0012   -0.0011   14.3840   28.1427
 Low frequencies ---   61.1740  168.3714  227.6696
 ******    1 imaginary frequencies (negative Signs) ****** 
 Diagonal vibrational polarizability:
      122.6676314      35.9520234      46.4432841
 Harmonic frequencies (cm**-1), IR intensities (KM/Mole), Raman scattering
 activities (A**4/AMU), depolarization ratios for plane and unpolarized
 incident light, reduced masses (AMU), force constants (mDyne/A),
 and normal coordinates:
                     1                      2                      3
                     A                      A                      A
 Frequencies -- -1050.1731               168.2128               227.5896
 Red. masses --     1.2742                 4.6670                 1.1164
 Frc consts  --     0.8280                 0.0778                 0.0341
 IR Inten    --  2590.9961                17.8550               135.2167
  Atom  AN      X      Y      Z        X      Y      Z        X      Y      Z
     1   8     0.04   0.04   0.00     0.31  -0.10   0.01    -0.01   0.00   0.04
     2   1    -0.05   0.04   0.00     0.59  -0.33   0.03     0.02   0.05   0.05
     3   8     0.01  -0.06  -0.02    -0.06   0.22  -0.02     0.01  -0.01  -0.04
     4   1     0.75  -0.32   0.56    -0.04   0.44  -0.12     0.00   0.02  -0.07
     5   8    -0.09   0.04  -0.02    -0.28  -0.10   0.01     0.02   0.04  -0.04
     6   1    -0.07  -0.01  -0.02    -0.07  -0.29   0.04    -0.40  -0.56   0.72
                     4                      5                      6
                     A                      A                      A
 Frequencies --   294.2471               403.2198               693.1750
 Red. masses --     1.4977                 1.5624                 1.3987
 Frc consts  --     0.0764                 0.1497                 0.3960
 IR Inten    --    21.4284               132.2897               174.4813
  Atom  AN      X      Y      Z        X      Y      Z        X      Y      Z
     1   8    -0.06   0.06   0.00     0.06  -0.03  -0.01     0.03   0.00   0.00
     2   1     0.62  -0.50   0.05    -0.58   0.52  -0.05    -0.02  -0.02  -0.02
     3   8     0.11  -0.08  -0.01     0.12  -0.05   0.05    -0.07   0.06   0.02
     4   1    -0.04  -0.07  -0.31    -0.13   0.05  -0.38     0.05  -0.07   0.20
     5   8    -0.07   0.03   0.02    -0.11   0.03  -0.01     0.09  -0.08  -0.03
     6   1    -0.36   0.30  -0.01    -0.36   0.24  -0.03    -0.81   0.52   0.04
                     7                      8                      9
                     A                      A                      A
 Frequencies --  1066.7442              1351.2682              1473.7776
 Red. masses --     7.4664                 1.0890                 1.0812
 Frc consts  --     5.0059                 1.1716                 1.3836
 IR Inten    --    99.4556               116.0072                76.5587
  Atom  AN      X      Y      Z        X      Y      Z        X      Y      Z
     1   8     0.29   0.35   0.04     0.05   0.02   0.02    -0.02   0.00   0.05
     2   1    -0.08   0.04  -0.11    -0.36  -0.46  -0.16    -0.51  -0.57  -0.15
     3   8    -0.30  -0.36  -0.02     0.01   0.04  -0.01     0.02   0.01  -0.04
     4   1    -0.32   0.36  -0.56    -0.39  -0.69   0.03     0.33   0.52  -0.10
     5   8     0.03  -0.01   0.02    -0.01   0.02   0.00     0.01  -0.01   0.00
     6   1     0.09  -0.04  -0.01     0.04  -0.05   0.02    -0.01   0.03  -0.02
                    10                     11                     12
                     A                      A                      A
 Frequencies --  2299.0406              3786.8469              3838.3112
 Red. masses --     1.1325                 1.0668                 1.0684
 Frc consts  --     3.5267                 9.0138                 9.2743
 IR Inten    --  2128.6650               124.7902               106.4167
  Atom  AN      X      Y      Z        X      Y      Z        X      Y      Z
     1   8    -0.01  -0.01  -0.01     0.00   0.00   0.00    -0.01  -0.01   0.06
     2   1     0.01   0.02   0.02    -0.01  -0.01   0.06     0.21   0.17  -0.96
     3   8    -0.06   0.05   0.04     0.00   0.00   0.00     0.00   0.00   0.00
     4   1     0.55  -0.38  -0.73    -0.02   0.02   0.01     0.02   0.00   0.00
     5   8     0.03  -0.01   0.01     0.03   0.04   0.04     0.00   0.00   0.00
     6   1     0.05  -0.05  -0.01    -0.44  -0.57  -0.69    -0.03  -0.03  -0.04

 -------------------
 - Thermochemistry -
 -------------------
 Temperature   298.150 Kelvin.  Pressure   1.00000 Atm.
 Atom     1 has atomic number  8 and mass  15.99491
 Atom     2 has atomic number  1 and mass   1.00783
 Atom     3 has atomic number  8 and mass  15.99491
 Atom     4 has atomic number  1 and mass   1.00783
 Atom     5 has atomic number  8 and mass  15.99491
 Atom     6 has atomic number  1 and mass   1.00783
 Molecular mass:    51.00822 amu.
 Principal axes and moments of inertia in atomic units:
                           1         2         3
     Eigenvalues --    46.34968 302.29815 338.76406
           X            0.99974   0.02269  -0.00268
           Y           -0.02279   0.99885  -0.04212
           Z            0.00172   0.04217   0.99911
 This molecule is an asymmetric top.
 Rotational symmetry number  1.
 Rotational temperatures (Kelvin)      1.86870     0.28652     0.25568
 Rotational constants (GHZ):          38.93752     5.97007     5.32743
    1 imaginary frequencies ignored.
 Zero-point vibrational energy      93323.3 (Joules/Mol)
                                   22.30480 (Kcal/Mol)
 Warning -- explicit consideration of   4 degrees of freedom as
           vibrations may cause significant error
 Vibrational temperatures:    242.02   327.45   423.36   580.14   997.32
          (Kelvin)           1534.81  1944.17  2120.43  3307.80  5448.42
                             5522.47
 
 Zero-point correction=                           0.035545 (Hartree/Particle)
 Thermal correction to Energy=                    0.040401
 Thermal correction to Enthalpy=                  0.041345
 Thermal correction to Gibbs Free Energy=         0.008399
 Sum of electronic and zero-point Energies=           -227.156185
 Sum of electronic and thermal Energies=              -227.151329
 Sum of electronic and thermal Enthalpies=            -227.150385
 Sum of electronic and thermal Free Energies=         -227.183331
 
                     E (Thermal)             CV                S
                      KCal/Mol        Cal/Mol-Kelvin    Cal/Mol-Kelvin
 Total                   25.352             14.152             69.341
 Electronic               0.000              0.000              1.377
 Translational            0.889              2.981             37.711
 Rotational               0.889              2.981             23.078
 Vibrational             23.574              8.191              7.175
 Vibration     1          0.625              1.882              2.455
 Vibration     2          0.651              1.799              1.898
 Vibration     3          0.689              1.684              1.449
 Vibration     4          0.769              1.463              0.951
                       Q            Log10(Q)             Ln(Q)
 Total Bot       0.137050D-03         -3.863122         -8.895168
 Total V=0       0.306470D+13         12.486389         28.750972
 Vib (Bot)       0.194042D-15        -15.712104        -36.178456
 Vib (Bot)    1  0.119874D+01          0.078724          0.181269
 Vib (Bot)    2  0.866319D+00         -0.062322         -0.143502
 Vib (Bot)    3  0.648394D+00         -0.188161         -0.433257
 Vib (Bot)    4  0.440989D+00         -0.355573         -0.818736
 Vib (V=0)       0.433917D+01          0.637407          1.467684
 Vib (V=0)    1  0.179883D+01          0.254991          0.587139
 Vib (V=0)    2  0.150025D+01          0.176165          0.405635
 Vib (V=0)    3  0.131879D+01          0.120175          0.276713
 Vib (V=0)    4  0.116669D+01          0.066954          0.154168
 Electronic      0.200000D+01          0.301030          0.693147
 Translational   0.143191D+08          7.155915         16.477104
 Rotational      0.246624D+05          4.392036         10.113037
 ***** Axes restored to original set *****
 -------------------------------------------------------------------
 Center     Atomic                   Forces (Hartrees/Bohr)
 Number     Number              X              Y              Z
 -------------------------------------------------------------------
      1        8          -0.000002005   -0.000008725    0.000000120
      2        1          -0.000002032   -0.000000347   -0.000008717
      3        8           0.000021263   -0.000039566   -0.000047865
      4        1           0.000020157    0.000031705    0.000012728
      5        8          -0.000020672   -0.000007513    0.000025888
      6        1          -0.000016710    0.000024446    0.000017847
 -------------------------------------------------------------------
 Cartesian Forces:  Max     0.000047865 RMS     0.000021592

 GradGradGradGradGradGradGradGradGradGradGradGradGradGradGradGradGradGrad
 Berny optimization.
 Internal  Forces:  Max     0.000039881 RMS     0.000013650
 Search for a saddle point.
 Step number   1 out of a maximum of    2
 All quantities printed in internal units (Hartrees-Bohrs-Radians)
 Swaping is turned off.
 Second derivative matrix not updated -- analytic derivatives used.
 The second derivative matrix:
                          R1        R2        R3        R4        R5
           R1           0.52784
           R2           0.00124   0.35122
           R3          -0.00427   0.03606   0.31849
           R4           0.00450  -0.04332   0.11850  -0.00105
           R5           0.00111  -0.00758   0.00524  -0.00886   0.51438
           A1          -0.00284   0.07512   0.00005   0.00105  -0.00015
           A2          -0.00033   0.06312   0.00079   0.01043  -0.00144
           A3           0.00041  -0.00120   0.00846  -0.00362   0.00588
           A4          -0.00039  -0.00561   0.00884   0.00146  -0.00057
           A5          -0.00005  -0.00219  -0.00515  -0.00948   0.00183
           D1           0.00095   0.00232   0.00112   0.00224   0.00084
           D2           0.00037  -0.00151   0.00039   0.00175   0.00175
                          A1        A2        A3        A4        A5
           A1           0.23561
           A2           0.01759   0.21653
           A3           0.00019   0.00882   0.05033
           A4          -0.00240   0.00884  -0.00182   0.02888
           A5          -0.00108  -0.00439   0.00391   0.00020   0.01760
           D1           0.00815   0.00310  -0.00145  -0.00050  -0.00173
           D2          -0.00092  -0.01000  -0.00516   0.00127  -0.00021
                          D1        D2
           D1           0.01254
           D2          -0.00040   0.00703
     Eigenvalues ---   -0.05037   0.00595   0.01175   0.01751   0.02818
     Eigenvalues ---    0.05164   0.19077   0.20888   0.35251   0.41953
     Eigenvalues ---    0.51499   0.52805
 Eigenvectors required to have negative eigenvalues:
                          R4        R3        R2        A5        A2
   1                    0.92581  -0.31286   0.14748   0.10031  -0.07015
                          A3        A1        A4        D2        D1
   1                    0.06139  -0.03672   0.03662  -0.03069  -0.02050
 Angle between quadratic step and forces=  79.33 degrees.
 Linear search not attempted -- option 19 set.
 Iteration  1 RMS(Cart)=  0.00056367 RMS(Int)=  0.00000032
 Iteration  2 RMS(Cart)=  0.00000025 RMS(Int)=  0.00000000
 Variable       Old X    -DE/DX   Delta X   Delta X   Delta X     New X
                                 (Linear)    (Quad)   (Total)
    R1        1.82976   0.00000   0.00000   0.00000   0.00000   1.82977
    R2        2.64556   0.00002   0.00000   0.00012   0.00012   2.64568
    R3        1.93942   0.00004   0.00000  -0.00002  -0.00002   1.93939
    R4        2.67675  -0.00001   0.00000   0.00037   0.00037   2.67713
    R5        1.84090   0.00000   0.00000   0.00001   0.00001   1.84091
    A1        1.78459   0.00000   0.00000  -0.00005  -0.00005   1.78455
    A2        1.80444  -0.00001   0.00000  -0.00016  -0.00016   1.80428
    A3        1.89106   0.00000   0.00000  -0.00006  -0.00006   1.89101
    A4        3.02536  -0.00001   0.00000  -0.00006  -0.00006   3.02531
    A5        3.99894   0.00000   0.00000  -0.00006  -0.00006   3.99889
    D1        2.05330   0.00001   0.00000   0.00060   0.00060   2.05390
    D2       -2.43890  -0.00001   0.00000  -0.00129  -0.00129  -2.44019
         Item               Value     Threshold  Converged?
 Maximum Force            0.000040     0.000450     YES
 RMS     Force            0.000014     0.000300     YES
 Maximum Displacement     0.000956     0.001800     YES
 RMS     Displacement     0.000564     0.001200     YES
 Predicted change in Energy=-6.507330D-09
 Optimization completed.
    -- Stationary point found.
                           ----------------------------
                           !   Optimized Parameters   !
                           ! (Angstroms and Degrees)  !
 --------------------------                            --------------------------
 ! Name  Definition              Value          Derivative Info.                !
 --------------------------------------------------------------------------------
 ! R1    R(1,2)                  0.9683         -DE/DX =    0.0                 !
 ! R2    R(1,3)                  1.4            -DE/DX =    0.0                 !
 ! R3    R(3,4)                  1.0263         -DE/DX =    0.0                 !
 ! R4    R(4,5)                  1.4165         -DE/DX =    0.0                 !
 ! R5    R(5,6)                  0.9742         -DE/DX =    0.0                 !
 ! A1    A(2,1,3)              102.2497         -DE/DX =    0.0                 !
 ! A2    A(1,3,4)              103.3867         -DE/DX =    0.0                 !
 ! A3    A(4,5,6)              108.3499         -DE/DX =    0.0                 !
 ! A4    L(3,4,5,1,-1)         173.3406         -DE/DX =    0.0                 !
 ! A5    L(3,4,5,1,-2)         229.1226         -DE/DX =    0.0                 !
 ! D1    D(2,1,3,4)            117.6453         -DE/DX =    0.0                 !
 ! D2    D(1,3,5,6)           -139.7388         -DE/DX =    0.0                 !
 --------------------------------------------------------------------------------
 GradGradGradGradGradGradGradGradGradGradGradGradGradGradGradGradGradGrad

 1|1|UNPC-DESKTOP-319GPER|Freq|UM062X|6-31+G(d,p)|H3O3(2)|SAGAD|08-Feb-
 2021|0||#N Geom=AllCheck Guess=TCheck SCRF=Check GenChk UM062X/6-31+G(
 d,p) Freq||productos||0,2|O,-0.5797589787,0.1499051368,-0.0618144831|H
 ,-0.7643069911,0.1477232469,-1.0123319149|O,0.8197342039,0.1304739381,
 -0.0309067905|H,1.0594455231,1.0139724845,0.433047584|O,1.4500309273,2
 .3532909535,0.1879418201|H,2.2104616656,2.34446186,-0.4208720456||Vers
 ion=IA32W-G09RevA.02|State=2-A|HF=-227.1917295|S2=0.759235|S2-1=0.|S2A
 =0.75004|RMSD=4.969e-010|RMSF=2.159e-005|ZeroPoint=0.035545|Thermal=0.
 0404007|Dipole=0.3780806,0.2328578,-0.8549542|DipoleDeriv=-1.0685171,-
 1.3492277,-0.19403,0.0496454,-0.3961738,-0.0088482,-0.1956321,-0.17669
 72,-0.1525659,0.2693375,0.0207872,0.0392939,0.0357954,0.4424858,0.0036
 168,0.1432849,0.1697759,0.2349828,0.7870349,1.5666343,0.1788948,0.2811
 261,0.4309412,0.1215047,0.3463918,0.5991264,-0.2701485,-0.1450606,-0.6
 372067,-0.0616903,-1.033571,-1.6331871,-0.2567705,-0.1864667,-0.434960
 4,0.2806371,-0.2373629,0.1697059,-0.0809516,0.6219845,0.7505806,0.1527
 318,-0.1176715,-0.0122999,-0.3875955,0.3945682,0.229307,0.1184833,0.04
 50195,0.4053532,-0.0122345,0.0100937,-0.1449448,0.2946899|Polar=36.448
 5046,27.338843,60.6410029,3.6211684,5.0213025,16.329095|PG=C01 [X(H3O3
 )]|NImag=1||0.35731266,0.01442735,0.02832028,0.08744082,0.01337518,0.5
 7767974,-0.04680364,0.00078719,-0.03428975,0.08645636,-0.00122591,-0.0
 0379837,-0.00065032,0.00178057,0.00401775,-0.09065733,-0.00226754,-0.5
 2231204,0.08412954,0.00135738,0.51195839,-0.27271377,0.01735000,-0.028
 69530,-0.03455719,0.00055334,0.00450988,0.33652053,0.01354971,-0.03187
 155,-0.01549436,-0.00557023,-0.00137796,-0.00251313,0.00737780,0.28478
 176,0.01546739,-0.01699948,-0.05474710,-0.04852109,0.00214351,0.008773
 89,0.03734150,0.14035944,0.11798108,-0.05177826,-0.02950298,-0.0272267
 0,-0.00515336,-0.00133297,0.00330194,-0.00748198,0.01355519,0.01274947
 ,0.06306703,-0.06744556,0.00716869,0.00117988,0.00446262,0.00253860,0.
 00752888,0.04592460,-0.15701744,-0.08367722,-0.01944094,0.05460165,-0.
 00346086,0.00434826,-0.00016246,-0.00157233,-0.00266749,0.00080380,-0.
 02780821,-0.13540781,-0.08449277,0.01556041,0.09644675,0.10220595,0.00
 803533,-0.00243616,0.00218846,0.00035256,0.00062553,-0.00055748,-0.013
 95134,-0.02722134,-0.01391086,-0.00105608,0.02586340,0.01300959,0.3201
 8938,0.03967429,0.00252752,0.00120029,-0.00146270,-0.00186886,-0.00382
 068,-0.06724630,-0.09284642,-0.03851992,0.04052709,0.08416251,0.027708
 95,-0.00339833,0.02738474,-0.00345900,0.00328466,0.00018210,0.00030982
 ,-0.00042089,0.00001799,0.01119095,0.00840045,0.01027623,-0.00553981,-
 0.01351829,-0.01618589,-0.25151765,0.01054096,0.20885689,0.00594769,-0
 .00062539,0.00058248,-0.00029474,-0.00040055,-0.00072656,-0.00781623,-
 0.00169113,-0.00312642,0.00240266,0.01063588,0.00427141,-0.31356984,-0
 .00809404,0.24901570,0.31333047,0.00102013,-0.00234657,0.00038932,0.00
 000256,0.00048884,-0.00028491,-0.00395944,-0.00166840,-0.00330634,-0.0
 0380539,0.00854600,0.00957133,0.00656691,-0.01935949,-0.00828689,0.000
 17523,0.01433962,-0.00533101,-0.00174109,-0.00064022,-0.00005619,0.000
 23781,0.00075798,0.00346118,0.00465540,0.00220868,0.00115469,-0.007960
 01,-0.00216862,0.25078794,0.00289040,-0.20314732,-0.25001661,0.0019174
 9,0.20298950||0.00000200,0.00000873,-0.00000012,0.00000203,0.00000035,
 0.00000872,-0.00002126,0.00003957,0.00004787,-0.00002016,-0.00003171,-
 0.00001273,0.00002067,0.00000751,-0.00002589,0.00001671,-0.00002445,-0
 .00001785|||@


 ... THE UNIVERSE IS NOT ONLY QUEERER THAN WE SUPPOSE,
 BUT QUEERER THAN WE CAN SUPPOSE ... 

                                   -- J. B. S. HALDANE
 Job cpu time:  0 days  0 hours  0 minutes 29.0 seconds.
 File lengths (MBytes):  RWF=     11 Int=      0 D2E=      0 Chk=      1 Scr=      1
 Normal termination of Gaussian 09 at Mon Feb 08 21:12:53 2021.
