 Entering Link 1 = C:\G09W\l1.exe PID=     11256.
  
 Copyright (c) 1988,1990,1992,1993,1995,1998,2003,2009, Gaussian, Inc.
                  All Rights Reserved.
  
 This is part of the Gaussian(R) 09 program.  It is based on
 the Gaussian(R) 03 system (copyright 2003, Gaussian, Inc.),
 the Gaussian(R) 98 system (copyright 1998, Gaussian, Inc.),
 the Gaussian(R) 94 system (copyright 1995, Gaussian, Inc.),
 the Gaussian 92(TM) system (copyright 1992, Gaussian, Inc.),
 the Gaussian 90(TM) system (copyright 1990, Gaussian, Inc.),
 the Gaussian 88(TM) system (copyright 1988, Gaussian, Inc.),
 the Gaussian 86(TM) system (copyright 1986, Carnegie Mellon
 University), and the Gaussian 82(TM) system (copyright 1983,
 Carnegie Mellon University). Gaussian is a federally registered
 trademark of Gaussian, Inc.
  
 This software contains proprietary and confidential information,
 including trade secrets, belonging to Gaussian, Inc.
  
 This software is provided under written license and may be
 used, copied, transmitted, or stored only in accord with that
 written license.
  
 The following legend is applicable only to US Government
 contracts under FAR:
  
                    RESTRICTED RIGHTS LEGEND
  
 Use, reproduction and disclosure by the US Government is
 subject to restrictions as set forth in subparagraphs (a)
 and (c) of the Commercial Computer Software - Restricted
 Rights clause in FAR 52.227-19.
  
 Gaussian, Inc.
 340 Quinnipiac St., Bldg. 40, Wallingford CT 06492
  
  
 ---------------------------------------------------------------
 Warning -- This program may not be used in any manner that
 competes with the business of Gaussian, Inc. or will provide
 assistance to any competitor of Gaussian, Inc.  The licensee
 of this program is prohibited from giving any competitor of
 Gaussian, Inc. access to this program.  By using this program,
 the user acknowledges that Gaussian, Inc. is engaged in the
 business of creating and licensing software in the field of
 computational chemistry and represents and warrants to the
 licensee that it is not a competitor of Gaussian, Inc. and that
 it will not use this program in any manner prohibited above.
 ---------------------------------------------------------------
  

 Cite this work as:
 Gaussian 09, Revision A.02,
 M. J. Frisch, G. W. Trucks, H. B. Schlegel, G. E. Scuseria, 
 M. A. Robb, J. R. Cheeseman, G. Scalmani, V. Barone, B. Mennucci, 
 G. A. Petersson, H. Nakatsuji, M. Caricato, X. Li, H. P. Hratchian, 
 A. F. Izmaylov, J. Bloino, G. Zheng, J. L. Sonnenberg, M. Hada, 
 M. Ehara, K. Toyota, R. Fukuda, J. Hasegawa, M. Ishida, T. Nakajima, 
 Y. Honda, O. Kitao, H. Nakai, T. Vreven, J. A. Montgomery, Jr., 
 J. E. Peralta, F. Ogliaro, M. Bearpark, J. J. Heyd, E. Brothers, 
 K. N. Kudin, V. N. Staroverov, R. Kobayashi, J. Normand, 
 K. Raghavachari, A. Rendell, J. C. Burant, S. S. Iyengar, J. Tomasi, 
 M. Cossi, N. Rega, J. M. Millam, M. Klene, J. E. Knox, J. B. Cross, 
 V. Bakken, C. Adamo, J. Jaramillo, R. Gomperts, R. E. Stratmann, 
 O. Yazyev, A. J. Austin, R. Cammi, C. Pomelli, J. W. Ochterski, 
 R. L. Martin, K. Morokuma, V. G. Zakrzewski, G. A. Voth, 
 P. Salvador, J. J. Dannenberg, S. Dapprich, A. D. Daniels, 
 O. Farkas, J. B. Foresman, J. V. Ortiz, J. Cioslowski, 
 and D. J. Fox, Gaussian, Inc., Wallingford CT, 2009.
 
 ******************************************
 Gaussian 09:  IA32W-G09RevA.02 11-Jun-2009
                02-Feb-2021 
 ******************************************
 %chk=D:\Documents\rayGit\FQ\quimicaComputacional\proyecto\decompositionHydrogenP
 eroxide\decompositionCatalyzedByIodine\step1\reacts\hydrogenPeroxyde.chk
 %mem=1500mb
 %nproc=4
 Will use up to    4 processors via shared memory.
 -----------------------------------------
 # opt freq=noraman LanL2DZ scrf=smd m062x
 -----------------------------------------
 1/14=-1,18=20,19=15,26=3,38=1/1,3;
 2/9=110,12=2,17=6,18=5,40=1/2;
 3/5=6,6=3,11=2,16=1,25=1,30=1,70=32201,71=1,72=1,74=-55/1,2,3;
 4//1;
 5/5=2,38=5/2;
 6/7=2,8=2,9=2,10=2,28=1/1;
 7//1,2,3,16;
 1/14=-1,18=20,19=15/3(2);
 2/9=110/2;
 99//99;
 2/9=110/2;
 3/5=6,6=3,11=2,16=1,25=1,30=1,70=32205,71=1,74=-55/1,2,3;
 4/5=5,16=3/1;
 5/5=2,38=5/2;
 7//1,2,3,16;
 1/14=-1,18=20,19=15/3(-5);
 2/9=110/2;
 6/7=2,8=2,9=2,10=2,19=2,28=1/1;
 99/9=1/99;
 -----------------------------------------------------
 Hydrogen peroxide for catalyzed descompostion with KI
 -----------------------------------------------------
 Symbolic Z-matrix:
 Charge =  0 Multiplicity = 1
 O                    -1.26074   0.70831   0. 
 H                    -1.5812    0.70831  -0.90494 
 O                     0.05926   0.70831   0. 
 H                     0.37926   1.61341   0. 
 

 GradGradGradGradGradGradGradGradGradGradGradGradGradGradGradGradGradGrad
 Berny optimization.
 Initialization pass.
                           ----------------------------
                           !    Initial Parameters    !
                           ! (Angstroms and Degrees)  !
 --------------------------                            --------------------------
 ! Name  Definition              Value          Derivative Info.                !
 --------------------------------------------------------------------------------
 ! R1    R(1,2)                  0.96           estimate D2E/DX2                !
 ! R2    R(1,3)                  1.32           estimate D2E/DX2                !
 ! R3    R(3,4)                  0.96           estimate D2E/DX2                !
 ! A1    A(2,1,3)              109.5            estimate D2E/DX2                !
 ! A2    A(1,3,4)              109.4712         estimate D2E/DX2                !
 ! D1    D(2,1,3,4)             90.0            estimate D2E/DX2                !
 --------------------------------------------------------------------------------
 Trust Radius=3.00D-01 FncErr=1.00D-07 GrdErr=1.00D-06
 Number of steps in this run=  20 maximum allowed number of steps= 100.
 GradGradGradGradGradGradGradGradGradGradGradGradGradGradGradGradGradGrad

                          Input orientation:                          
 ---------------------------------------------------------------------
 Center     Atomic      Atomic             Coordinates (Angstroms)
 Number     Number       Type             X           Y           Z
 ---------------------------------------------------------------------
      1          8           0       -1.260742    0.708312    0.000000
      2          1           0       -1.581197    0.708312   -0.904936
      3          8           0        0.059258    0.708312    0.000000
      4          1           0        0.379258    1.613409    0.000000
 ---------------------------------------------------------------------
                    Distance matrix (angstroms):
                    1          2          3          4
     1  O    0.000000
     2  H    0.960000   0.000000
     3  O    1.320000   1.873499   0.000000
     4  H    1.873179   2.341258   0.960000   0.000000
 Stoichiometry    H2O2
 Framework group  C1[X(H2O2)]
 Deg. of freedom     6
 Full point group                 C1      NOp   1
 Largest Abelian subgroup         C1      NOp   1
 Largest concise Abelian subgroup C1      NOp   1
                         Standard orientation:                         
 ---------------------------------------------------------------------
 Center     Atomic      Atomic             Coordinates (Angstroms)
 Number     Number       Type             X           Y           Z
 ---------------------------------------------------------------------
      1          8           0        0.652496   -0.070957   -0.099179
      2          1           0        1.065386    0.567994    0.486367
      3          8           0       -0.652546   -0.071252    0.098973
      4          1           0       -1.064985    0.569682   -0.484720
 ---------------------------------------------------------------------
 Rotational constants (GHZ):    337.7108214     30.2677234     30.1654926
 Standard basis: LANL2DZ (5D, 7F)
 There are    22 symmetry adapted basis functions of A   symmetry.
 Integral buffers will be    262144 words long.
 Raffenetti 2 integral format.
 Two-electron integral symmetry is turned on.
    22 basis functions,    58 primitive gaussians,    22 cartesian basis functions
     9 alpha electrons        9 beta electrons
       nuclear repulsion energy        39.2223681676 Hartrees.
 NAtoms=    4 NActive=    4 NUniq=    4 SFac= 7.50D-01 NAtFMM=   80 NAOKFM=F Big=F
 ------------------------------------------------------------------------------
 Polarizable Continuum Model (PCM)
 =================================
 Model                : PCM.
 Atomic radii         : SMD-Coulomb.
 Polarization charges : Total charges.
 Charge compensation  : None.
 Solution method      : Matrix inversion.
 Cavity type          : VdW (van der Waals Surface) (Alpha=1.000).
 Cavity algorithm     : GePol (No added spheres)
                        Default sphere list used, NSphG=    4.
                        Lebedev-Laikov grids with approx.  5.0 points / Ang**2.
                        Smoothing algorithm: Karplus/York (Gamma=1.0000).
                        Polarization charges: spherical gaussians, with
                                              point-specific exponents (IZeta= 3).
                        Self-potential: point-specific (ISelfS= 7).
                        Self-field    : sphere-specific E.n sum rule (ISelfD= 2).
 1st derivatives      : Analytical E(r).r(x)/FMM algorithm (CHGder, D1EAlg=3).
                        Cavity 1st derivative terms included.
 Solvent              : Water, Eps=  78.355300 Eps(inf)=   1.777849
 ------------------------------------------------------------------------------
 Spheres list:
 ISph  on   Nord    Re0     Alpha      Xe            Ye            Ze
    1   O      1    1.520   1.000      0.652496     -0.070957     -0.099179
    2   H      2    1.200   1.000      1.065386      0.567994      0.486367
    3   O      3    1.520   1.000     -0.652546     -0.071252      0.098973
    4   H      4    1.200   1.000     -1.064985      0.569682     -0.484720
 ------------------------------------------------------------------------------
 ------------------------------------------------------------------------------
 Atomic radii for non-electrostatic terms: SMD-CDS.
 ------------------------------------------------------------------------------
 Nuclear repulsion after PCM non-electrostatic terms =       39.2245874105 Hartrees.
 One-electron integrals computed using PRISM.
   1 Symmetry operations used in ECPInt.
 ECPInt:  NShTT=     105 NPrTT=     803 LenC2=     106 LenP2D=     728.
 LDataN:  DoStor=T MaxTD1= 2 Len=   12
 NBasis=    22 RedAO= T  NBF=    22
 NBsUse=    22 1.00D-06 NBFU=    22
 Harris functional with IExCor= 1009 diagonalized for initial guess.
 ExpMin= 1.78D-01 ExpMax= 7.82D+03 ExpMxC= 2.73D+02 IAcc=1 IRadAn=         1 AccDes= 0.00D+00
 HarFok:  IExCor= 1009 AccDes= 0.00D+00 IRadAn=         1 IDoV= 1
 ScaDFX=  1.000000  1.000000  1.000000  1.000000
 FoFCou: FMM=F IPFlag=           0 FMFlag=      100000 FMFlg1=           0
         NFxFlg=           0 DoJE=T BraDBF=F KetDBF=T FulRan=T
         Omega=  0.000000  0.000000  1.000000  0.000000  0.000000 ICntrl=     500 IOpCl=  0
         NMat0=    1 NMatS0=    1 NMatT0=    0 NMatD0=    1 NMtDS0=    0 NMtDT0=    0
         I1Cent=           4 NGrid=           0.
 Petite list used in FoFCou.
 Initial guess orbital symmetries:
       Occupied  (A) (A) (A) (A) (A) (A) (A) (A) (A)
       Virtual   (A) (A) (A) (A) (A) (A) (A) (A) (A) (A) (A) (A)
                 (A)
 The electronic state of the initial guess is 1-A.
 Requested convergence on RMS density matrix=1.00D-08 within 128 cycles.
 Requested convergence on MAX density matrix=1.00D-06.
 Requested convergence on             energy=1.00D-06.
 No special actions if energy rises.
 Keep R1 ints in memory in canonical form, NReq=3054521.
 Error on total polarization charges =  0.02091
 SCF Done:  E(RM062X) =  -151.478335457     A.U. after   10 cycles
             Convg  =    0.1652D-08             -V/T =  2.0021
 SMD-CDS (non-electrostatic) energy             (kcal/mol) =       1.39
 (included in total energy above)

 **********************************************************************

            Population analysis using the SCF density.

 **********************************************************************

 Orbital symmetries:
       Occupied  (A) (A) (A) (A) (A) (A) (A) (A) (A)
       Virtual   (A) (A) (A) (A) (A) (A) (A) (A) (A) (A) (A) (A)
                 (A)
 The electronic state is 1-A.
 Alpha  occ. eigenvalues --  -19.68407 -19.68382  -1.32519  -1.00313  -0.67121
 Alpha  occ. eigenvalues --   -0.57600  -0.52726  -0.37141  -0.36594
 Alpha virt. eigenvalues --    0.14262   0.15850   0.24435   0.63925   0.68455
 Alpha virt. eigenvalues --    0.70383   0.73711   0.75281   0.84085   1.00436
 Alpha virt. eigenvalues --    1.05484   1.49584   1.79675
          Condensed to atoms (all electrons):
              1          2          3          4
     1  O    8.215158   0.280953   0.000241  -0.053914
     2  H    0.280953   0.330501  -0.053881   0.000034
     3  O    0.000241  -0.053881   8.214998   0.280978
     4  H   -0.053914   0.000034   0.280978   0.330518
 Mulliken atomic charges:
              1
     1  O   -0.442439
     2  H    0.442393
     3  O   -0.442337
     4  H    0.442383
 Sum of Mulliken atomic charges =   0.00000
 Mulliken charges with hydrogens summed into heavy atoms:
              1
     1  O   -0.000047
     3  O    0.000047
 Sum of Mulliken charges with hydrogens summed into heavy atoms =   0.00000
 Electronic spatial extent (au):  <R**2>=             61.2693
 Charge=              0.0000 electrons
 Dipole moment (field-independent basis, Debye):
    X=              0.0008    Y=              3.4832    Z=              0.0053  Tot=              3.4832
 Quadrupole moment (field-independent basis, Debye-Ang):
   XX=             -9.9118   YY=            -10.9110   ZZ=            -11.4488
   XY=             -0.0050   XZ=              3.4023   YZ=              0.0004
 Traceless Quadrupole moment (field-independent basis, Debye-Ang):
   XX=              0.8454   YY=             -0.1538   ZZ=             -0.6916
   XY=             -0.0050   XZ=              3.4023   YZ=              0.0004
 Octapole moment (field-independent basis, Debye-Ang**2):
  XXX=              0.0037  YYY=              2.6366  ZZZ=              0.0050  XYY=             -0.0047
  XXY=              4.3925  XXZ=              0.0074  XZZ=              0.0045  YZZ=              1.1289
  YYZ=              0.0003  XYZ=              1.4380
 Hexadecapole moment (field-independent basis, Debye-Ang**3):
 XXXX=            -35.8658 YYYY=            -10.1510 ZZZZ=            -10.5437 XXXY=             -0.0056
 XXXZ=              4.6092 YYYX=             -0.0063 YYYZ=             -0.0012 ZZZX=              2.4645
 ZZZY=              0.0015 XXYY=             -7.8087 XXZZ=             -8.2570 YYZZ=             -3.1662
 XXYZ=              0.0009 YYXZ=              1.3453 ZZXY=              0.0003
 N-N= 3.922458741053D+01 E-N=-4.370855126142D+02  KE= 1.511591438595D+02
   1 Symmetry operations used in ECPInt.
 ECPInt:  NShTT=     105 NPrTT=     803 LenC2=     106 LenP2D=     728.
 LDataN:  DoStor=T MaxTD1= 3 Len=   28
 D1PCM: PCM CHGder 1st derivatives, ID1Alg=3 FixD1E=F DoIter=F DoCFld=F I1PDM=0.
 Calling FoFJK, ICntrl=      2127 FMM=F ISym2X=0 I1Cent= 0 IOpClX= 0 NMat=1 NMatS=1 NMatT=0.
 ***** Axes restored to original set *****
 -------------------------------------------------------------------
 Center     Atomic                   Forces (Hartrees/Bohr)
 Number     Number              X              Y              Z
 -------------------------------------------------------------------
      1        8          -0.118959382    0.001669918    0.023138061
      2        1          -0.005504715   -0.000225993   -0.021646281
      3        8           0.118904218   -0.023065556   -0.001716517
      4        1           0.005559879    0.021621632    0.000224737
 -------------------------------------------------------------------
 Cartesian Forces:  Max     0.118959382 RMS     0.050299142

 GradGradGradGradGradGradGradGradGradGradGradGradGradGradGradGradGradGrad
 Berny optimization.
 Internal  Forces:  Max     0.124478021 RMS     0.052455064
 Search for a local minimum.
 Step number   1 out of a maximum of   20
 All quantities printed in internal units (Hartrees-Bohrs-Radians)
 Mixed Optimization -- RFO/linear search
 Second derivative matrix not updated -- first step.
 The second derivative matrix:
                          R1        R2        R3        A1        A2
           R1           0.55473
           R2           0.00000   0.61931
           R3           0.00000   0.00000   0.55473
           A1           0.00000   0.00000   0.00000   0.16000
           A2           0.00000   0.00000   0.00000   0.00000   0.16000
           D1           0.00000   0.00000   0.00000   0.00000   0.00000
                          D1
           D1           0.02353
     Eigenvalues ---    0.02353   0.16000   0.16000   0.55473   0.55473
     Eigenvalues ---    0.61931
 RFO step:  Lambda=-2.58607262D-02 EMin= 2.35305152D-02
 Linear search not attempted -- first point.
 Iteration  1 RMS(Cart)=  0.07506677 RMS(Int)=  0.00029713
 Iteration  2 RMS(Cart)=  0.00034967 RMS(Int)=  0.00000005
 Iteration  3 RMS(Cart)=  0.00000005 RMS(Int)=  0.00000000
 Variable       Old X    -DE/DX   Delta X   Delta X   Delta X     New X
                                 (Linear)    (Quad)   (Total)
    R1        1.81414   0.02223   0.00000   0.03829   0.03829   1.85243
    R2        2.49444   0.12448   0.00000   0.19294   0.19294   2.68738
    R3        1.81414   0.02223   0.00000   0.03829   0.03829   1.85242
    A1        1.91114  -0.00366   0.00000  -0.01969  -0.01969   1.89144
    A2        1.91063  -0.00353   0.00000  -0.01902  -0.01902   1.89162
    D1        1.57080   0.00036   0.00000   0.00728   0.00728   1.57808
         Item               Value     Threshold  Converged?
 Maximum Force            0.124478     0.000450     NO 
 RMS     Force            0.052455     0.000300     NO 
 Maximum Displacement     0.096661     0.001800     NO 
 RMS     Displacement     0.074858     0.001200     NO 
 Predicted change in Energy=-1.345998D-02
 GradGradGradGradGradGradGradGradGradGradGradGradGradGradGradGradGradGrad

                          Input orientation:                          
 ---------------------------------------------------------------------
 Center     Atomic      Atomic             Coordinates (Angstroms)
 Number     Number       Type             X           Y           Z
 ---------------------------------------------------------------------
      1          8           0       -1.311893    0.701266    0.004037
      2          1           0       -1.618973    0.697301   -0.926877
      3          8           0        0.110199    0.704427    0.006896
      4          1           0        0.417244    1.635350    0.011009
 ---------------------------------------------------------------------
                    Distance matrix (angstroms):
                    1          2          3          4
     1  O    0.000000
     2  H    0.980263   0.000000
     3  O    1.422098   1.965202   0.000000
     4  H    1.965318   2.430174   0.980261   0.000000
 Stoichiometry    H2O2
 Framework group  C1[X(H2O2)]
 Deg. of freedom     6
 Full point group                 C1      NOp   1
 Largest Abelian subgroup         C1      NOp   1
 Largest concise Abelian subgroup C1      NOp   1
                         Standard orientation:                         
 ---------------------------------------------------------------------
 Center     Atomic      Atomic             Coordinates (Angstroms)
 Number     Number       Type             X           Y           Z
 ---------------------------------------------------------------------
      1          8           0       -0.704003   -0.072887    0.099871
      2          1           0       -1.102667    0.582953   -0.509930
      3          8           0        0.703985   -0.072758   -0.099963
      4          1           0        1.102810    0.582208    0.510667
 ---------------------------------------------------------------------
 Rotational constants (GHZ):    318.3029663     26.3909118     26.3341375
 Standard basis: LANL2DZ (5D, 7F)
 There are    22 symmetry adapted basis functions of A   symmetry.
 Integral buffers will be    262144 words long.
 Raffenetti 2 integral format.
 Two-electron integral symmetry is turned on.
    22 basis functions,    58 primitive gaussians,    22 cartesian basis functions
     9 alpha electrons        9 beta electrons
       nuclear repulsion energy        36.9783803524 Hartrees.
 NAtoms=    4 NActive=    4 NUniq=    4 SFac= 7.50D-01 NAtFMM=   80 NAOKFM=F Big=F
 ------------------------------------------------------------------------------
 Polarizable Continuum Model (PCM)
 =================================
 Model                : PCM.
 Atomic radii         : SMD-Coulomb.
 Polarization charges : Total charges.
 Charge compensation  : None.
 Solution method      : Matrix inversion.
 Cavity type          : VdW (van der Waals Surface) (Alpha=1.000).
 Cavity algorithm     : GePol (No added spheres)
                        Default sphere list used, NSphG=    4.
                        Lebedev-Laikov grids with approx.  5.0 points / Ang**2.
                        Smoothing algorithm: Karplus/York (Gamma=1.0000).
                        Polarization charges: spherical gaussians, with
                                              point-specific exponents (IZeta= 3).
                        Self-potential: point-specific (ISelfS= 7).
                        Self-field    : sphere-specific E.n sum rule (ISelfD= 2).
 1st derivatives      : Analytical E(r).r(x)/FMM algorithm (CHGder, D1EAlg=3).
                        Cavity 1st derivative terms included.
 Solvent              : Water, Eps=  78.355300 Eps(inf)=   1.777849
 ------------------------------------------------------------------------------
 Spheres list:
 ISph  on   Nord    Re0     Alpha      Xe            Ye            Ze
    1   O      1    1.520   1.000     -0.704003     -0.072887      0.099871
    2   H      2    1.200   1.000     -1.102667      0.582953     -0.509930
    3   O      3    1.520   1.000      0.703985     -0.072758     -0.099963
    4   H      4    1.200   1.000      1.102810      0.582208      0.510667
 ------------------------------------------------------------------------------
 ------------------------------------------------------------------------------
 Atomic radii for non-electrostatic terms: SMD-CDS.
 ------------------------------------------------------------------------------
 Nuclear repulsion after PCM non-electrostatic terms =       36.9806321288 Hartrees.
 One-electron integrals computed using PRISM.
   1 Symmetry operations used in ECPInt.
 ECPInt:  NShTT=     105 NPrTT=     803 LenC2=     106 LenP2D=     714.
 LDataN:  DoStor=T MaxTD1= 2 Len=   12
 NBasis=    22 RedAO= T  NBF=    22
 NBsUse=    22 1.00D-06 NBFU=    22
 Initial guess read from the read-write file.
 B after Tr=     0.000000    0.000000    0.000000
         Rot=    1.000000    0.000000    0.000000    0.000000 Ang=   0.00 deg.
 Initial guess orbital symmetries:
       Occupied  (A) (A) (A) (A) (A) (A) (A) (A) (A)
       Virtual   (A) (A) (A) (A) (A) (A) (A) (A) (A) (A) (A) (A)
                 (A)
 Harris functional with IExCor= 1009 diagonalized for initial guess.
 ExpMin= 1.78D-01 ExpMax= 7.82D+03 ExpMxC= 2.73D+02 IAcc=1 IRadAn=         1 AccDes= 0.00D+00
 HarFok:  IExCor= 1009 AccDes= 0.00D+00 IRadAn=         1 IDoV= 1
 ScaDFX=  1.000000  1.000000  1.000000  1.000000
 FoFCou: FMM=F IPFlag=           0 FMFlag=      100000 FMFlg1=           0
         NFxFlg=           0 DoJE=T BraDBF=F KetDBF=T FulRan=T
         Omega=  0.000000  0.000000  1.000000  0.000000  0.000000 ICntrl=     500 IOpCl=  0
         NMat0=    1 NMatS0=    1 NMatT0=    0 NMatD0=    1 NMtDS0=    0 NMtDT0=    0
         I1Cent=           4 NGrid=           0.
 Petite list used in FoFCou.
 Requested convergence on RMS density matrix=1.00D-08 within 128 cycles.
 Requested convergence on MAX density matrix=1.00D-06.
 Requested convergence on             energy=1.00D-06.
 No special actions if energy rises.
 Keep R1 ints in memory in canonical form, NReq=3061422.
 Error on total polarization charges =  0.02119
 SCF Done:  E(RM062X) =  -151.492969086     A.U. after   11 cycles
             Convg  =    0.4123D-08             -V/T =  2.0045
 SMD-CDS (non-electrostatic) energy             (kcal/mol) =       1.41
 (included in total energy above)
   1 Symmetry operations used in ECPInt.
 ECPInt:  NShTT=     105 NPrTT=     803 LenC2=     106 LenP2D=     714.
 LDataN:  DoStor=T MaxTD1= 3 Len=   28
 D1PCM: PCM CHGder 1st derivatives, ID1Alg=3 FixD1E=F DoIter=F DoCFld=F I1PDM=0.
 Calling FoFJK, ICntrl=      2127 FMM=F ISym2X=0 I1Cent= 0 IOpClX= 0 NMat=1 NMatS=1 NMatT=0.
 ***** Axes restored to original set *****
 -------------------------------------------------------------------
 Center     Atomic                   Forces (Hartrees/Bohr)
 Number     Number              X              Y              Z
 -------------------------------------------------------------------
      1        8          -0.028563352    0.004656540    0.010221861
      2        1           0.005488991    0.000048372   -0.005525184
      3        8           0.028582311   -0.010235641   -0.004650275
      4        1          -0.005507949    0.005530730   -0.000046402
 -------------------------------------------------------------------
 Cartesian Forces:  Max     0.028582311 RMS     0.012932403

 GradGradGradGradGradGradGradGradGradGradGradGradGradGradGradGradGradGrad
 Berny optimization.
 Using GEDIIS/GDIIS optimizer.
 Internal  Forces:  Max     0.023070683 RMS     0.012157293
 Search for a local minimum.
 Step number   2 out of a maximum of   20
 All quantities printed in internal units (Hartrees-Bohrs-Radians)
 Mixed Optimization -- RFO/linear search
 Update second derivatives using D2CorX and points    1    2
 DE= -1.46D-02 DEPred=-1.35D-02 R= 1.09D+00
 SS=  1.41D+00  RLast= 2.02D-01 DXNew= 5.0454D-01 6.0715D-01
 Trust test= 1.09D+00 RLast= 2.02D-01 DXMaxT set to 5.05D-01
 The second derivative matrix:
                          R1        R2        R3        A1        A2
           R1           0.55351
           R2          -0.01040   0.54177
           R3          -0.00122  -0.01040   0.55351
           A1           0.01101   0.06019   0.01100   0.16367
           A2           0.01106   0.06047   0.01106   0.00375   0.16384
           D1           0.00030   0.00158   0.00030   0.00024   0.00024
                          D1
           D1           0.02354
 Use linear search instead of GDIIS.
     Eigenvalues ---    0.02354   0.14747   0.16000   0.54685   0.55473
     Eigenvalues ---    0.56725
 RFO step:  Lambda=-3.79498079D-03 EMin= 2.35356865D-02
 Quartic linear search produced a step of  0.37985.
 Iteration  1 RMS(Cart)=  0.07579530 RMS(Int)=  0.00500481
 Iteration  2 RMS(Cart)=  0.00481551 RMS(Int)=  0.00001072
 Iteration  3 RMS(Cart)=  0.00000773 RMS(Int)=  0.00000000
 Iteration  4 RMS(Cart)=  0.00000000 RMS(Int)=  0.00000000
 Variable       Old X    -DE/DX   Delta X   Delta X   Delta X     New X
                                 (Linear)    (Quad)   (Total)
    R1        1.85243   0.00352   0.01455   0.00265   0.01719   1.86962
    R2        2.68738   0.02307   0.07329   0.01868   0.09196   2.77934
    R3        1.85242   0.00352   0.01454   0.00265   0.01719   1.86961
    A1        1.89144  -0.01282  -0.00748  -0.10950  -0.11698   1.77446
    A2        1.89162  -0.01286  -0.00722  -0.10976  -0.11698   1.77463
    D1        1.57808  -0.00013   0.00277   0.00633   0.00909   1.58717
         Item               Value     Threshold  Converged?
 Maximum Force            0.023071     0.000450     NO 
 RMS     Force            0.012157     0.000300     NO 
 Maximum Displacement     0.102825     0.001800     NO 
 RMS     Displacement     0.077533     0.001200     NO 
 Predicted change in Energy=-1.917132D-03
 GradGradGradGradGradGradGradGradGradGradGradGradGradGradGradGradGradGrad

                          Input orientation:                          
 ---------------------------------------------------------------------
 Center     Atomic      Atomic             Coordinates (Angstroms)
 Number     Number       Type             X           Y           Z
 ---------------------------------------------------------------------
      1          8           0       -1.335583    0.716045    0.035848
      2          1           0       -1.564560    0.714560   -0.926649
      3          8           0        0.133888    0.672619   -0.007896
      4          1           0        0.362832    1.635121   -0.006239
 ---------------------------------------------------------------------
                    Distance matrix (angstroms):
                    1          2          3          4
     1  O    0.000000
     2  H    0.989361   0.000000
     3  O    1.470764   1.931475   0.000000
     4  H    1.931602   2.325818   0.989357   0.000000
 Stoichiometry    H2O2
 Framework group  C1[X(H2O2)]
 Deg. of freedom     6
 Full point group                 C1      NOp   1
 Largest Abelian subgroup         C1      NOp   1
 Largest concise Abelian subgroup C1      NOp   1
                         Standard orientation:                         
 ---------------------------------------------------------------------
 Center     Atomic      Atomic             Coordinates (Angstroms)
 Number     Number       Type             X           Y           Z
 ---------------------------------------------------------------------
      1          8           0       -0.728847   -0.075601    0.097807
      2          1           0       -1.019109    0.604626   -0.559363
      3          8           0        0.728828   -0.075394   -0.097970
      4          1           0        1.019264    0.603336    0.560666
 ---------------------------------------------------------------------
 Rotational constants (GHZ):    289.8143119     25.2367181     25.2277814
 Standard basis: LANL2DZ (5D, 7F)
 There are    22 symmetry adapted basis functions of A   symmetry.
 Integral buffers will be    262144 words long.
 Raffenetti 2 integral format.
 Two-electron integral symmetry is turned on.
    22 basis functions,    58 primitive gaussians,    22 cartesian basis functions
     9 alpha electrons        9 beta electrons
       nuclear repulsion energy        36.1959363714 Hartrees.
 NAtoms=    4 NActive=    4 NUniq=    4 SFac= 7.50D-01 NAtFMM=   80 NAOKFM=F Big=F
 ------------------------------------------------------------------------------
 Polarizable Continuum Model (PCM)
 =================================
 Model                : PCM.
 Atomic radii         : SMD-Coulomb.
 Polarization charges : Total charges.
 Charge compensation  : None.
 Solution method      : Matrix inversion.
 Cavity type          : VdW (van der Waals Surface) (Alpha=1.000).
 Cavity algorithm     : GePol (No added spheres)
                        Default sphere list used, NSphG=    4.
                        Lebedev-Laikov grids with approx.  5.0 points / Ang**2.
                        Smoothing algorithm: Karplus/York (Gamma=1.0000).
                        Polarization charges: spherical gaussians, with
                                              point-specific exponents (IZeta= 3).
                        Self-potential: point-specific (ISelfS= 7).
                        Self-field    : sphere-specific E.n sum rule (ISelfD= 2).
 1st derivatives      : Analytical E(r).r(x)/FMM algorithm (CHGder, D1EAlg=3).
                        Cavity 1st derivative terms included.
 Solvent              : Water, Eps=  78.355300 Eps(inf)=   1.777849
 ------------------------------------------------------------------------------
 Spheres list:
 ISph  on   Nord    Re0     Alpha      Xe            Ye            Ze
    1   O      1    1.520   1.000     -0.728847     -0.075601      0.097807
    2   H      2    1.200   1.000     -1.019109      0.604626     -0.559363
    3   O      3    1.520   1.000      0.728828     -0.075394     -0.097970
    4   H      4    1.200   1.000      1.019264      0.603336      0.560666
 ------------------------------------------------------------------------------
 ------------------------------------------------------------------------------
 Atomic radii for non-electrostatic terms: SMD-CDS.
 ------------------------------------------------------------------------------
 Nuclear repulsion after PCM non-electrostatic terms =       36.1981335076 Hartrees.
 One-electron integrals computed using PRISM.
   1 Symmetry operations used in ECPInt.
 ECPInt:  NShTT=     105 NPrTT=     803 LenC2=     106 LenP2D=     710.
 LDataN:  DoStor=T MaxTD1= 2 Len=   12
 NBasis=    22 RedAO= T  NBF=    22
 NBsUse=    22 1.00D-06 NBFU=    22
 Initial guess read from the read-write file.
 B after Tr=     0.000000    0.000000    0.000000
         Rot=    1.000000    0.000000    0.000000    0.000000 Ang=   0.00 deg.
 Initial guess orbital symmetries:
       Occupied  (A) (A) (A) (A) (A) (A) (A) (A) (A)
       Virtual   (A) (A) (A) (A) (A) (A) (A) (A) (A) (A) (A) (A)
                 (A)
 Harris functional with IExCor= 1009 diagonalized for initial guess.
 ExpMin= 1.78D-01 ExpMax= 7.82D+03 ExpMxC= 2.73D+02 IAcc=1 IRadAn=         1 AccDes= 0.00D+00
 HarFok:  IExCor= 1009 AccDes= 0.00D+00 IRadAn=         1 IDoV= 1
 ScaDFX=  1.000000  1.000000  1.000000  1.000000
 FoFCou: FMM=F IPFlag=           0 FMFlag=      100000 FMFlg1=           0
         NFxFlg=           0 DoJE=T BraDBF=F KetDBF=T FulRan=T
         Omega=  0.000000  0.000000  1.000000  0.000000  0.000000 ICntrl=     500 IOpCl=  0
         NMat0=    1 NMatS0=    1 NMatT0=    0 NMatD0=    1 NMtDS0=    0 NMtDT0=    0
         I1Cent=           4 NGrid=           0.
 Petite list used in FoFCou.
 Requested convergence on RMS density matrix=1.00D-08 within 128 cycles.
 Requested convergence on MAX density matrix=1.00D-06.
 Requested convergence on             energy=1.00D-06.
 No special actions if energy rises.
 Keep R1 ints in memory in canonical form, NReq=3064536.
 Error on total polarization charges =  0.02106
 SCF Done:  E(RM062X) =  -151.494626545     A.U. after   10 cycles
             Convg  =    0.3896D-08             -V/T =  2.0051
 SMD-CDS (non-electrostatic) energy             (kcal/mol) =       1.38
 (included in total energy above)
   1 Symmetry operations used in ECPInt.
 ECPInt:  NShTT=     105 NPrTT=     803 LenC2=     106 LenP2D=     710.
 LDataN:  DoStor=T MaxTD1= 3 Len=   28
 D1PCM: PCM CHGder 1st derivatives, ID1Alg=3 FixD1E=F DoIter=F DoCFld=F I1PDM=0.
 Calling FoFJK, ICntrl=      2127 FMM=F ISym2X=0 I1Cent= 0 IOpClX= 0 NMat=1 NMatS=1 NMatT=0.
 ***** Axes restored to original set *****
 -------------------------------------------------------------------
 Center     Atomic                   Forces (Hartrees/Bohr)
 Number     Number              X              Y              Z
 -------------------------------------------------------------------
      1        8          -0.000870215   -0.002243284   -0.007709466
      2        1          -0.003548076   -0.000646696    0.004807824
      3        8           0.000893703    0.007691668    0.002255471
      4        1           0.003524589   -0.004801688    0.000646171
 -------------------------------------------------------------------
 Cartesian Forces:  Max     0.007709466 RMS     0.004105807

 GradGradGradGradGradGradGradGradGradGradGradGradGradGradGradGradGradGrad
 Berny optimization.
 Using GEDIIS/GDIIS optimizer.
 Internal  Forces:  Max     0.008539899 RMS     0.005705186
 Search for a local minimum.
 Step number   3 out of a maximum of   20
 All quantities printed in internal units (Hartrees-Bohrs-Radians)
 Mixed Optimization -- RFO/linear search
 Update second derivatives using D2CorX and points    1    2    3
 DE= -1.66D-03 DEPred=-1.92D-03 R= 8.65D-01
 SS=  1.41D+00  RLast= 1.91D-01 DXNew= 8.4853D-01 5.7316D-01
 Trust test= 8.65D-01 RLast= 1.91D-01 DXMaxT set to 5.73D-01
 The second derivative matrix:
                          R1        R2        R3        A1        A2
           R1           0.55682
           R2          -0.02468   0.36065
           R3           0.00209  -0.02468   0.55683
           A1          -0.00032   0.05740  -0.00032   0.19397
           A2          -0.00026   0.05759  -0.00026   0.03403   0.19409
           D1          -0.00213  -0.00668  -0.00213   0.00457   0.00457
                          D1
           D1           0.02388
 Use linear search instead of GDIIS.
     Eigenvalues ---    0.02336   0.16000   0.18934   0.39325   0.55473
     Eigenvalues ---    0.56555
 RFO step:  Lambda=-3.04801888D-04 EMin= 2.33619876D-02
 Quartic linear search produced a step of -0.26449.
 Iteration  1 RMS(Cart)=  0.04064199 RMS(Int)=  0.00078845
 Iteration  2 RMS(Cart)=  0.00074516 RMS(Int)=  0.00000012
 Iteration  3 RMS(Cart)=  0.00000014 RMS(Int)=  0.00000000
 Variable       Old X    -DE/DX   Delta X   Delta X   Delta X     New X
                                 (Linear)    (Quad)   (Total)
    R1        1.86962  -0.00387  -0.00455  -0.00235  -0.00690   1.86272
    R2        2.77934   0.00427  -0.02432   0.02278  -0.00154   2.77780
    R3        1.86961  -0.00387  -0.00455  -0.00235  -0.00690   1.86271
    A1        1.77446   0.00854   0.03094   0.00781   0.03875   1.81321
    A2        1.77463   0.00850   0.03094   0.00752   0.03846   1.81309
    D1        1.58717   0.00141  -0.00241   0.04321   0.04081   1.62798
         Item               Value     Threshold  Converged?
 Maximum Force            0.008540     0.000450     NO 
 RMS     Force            0.005705     0.000300     NO 
 Maximum Displacement     0.055363     0.001800     NO 
 RMS     Displacement     0.040238     0.001200     NO 
 Predicted change in Energy=-3.663706D-04
 GradGradGradGradGradGradGradGradGradGradGradGradGradGradGradGradGradGrad

                          Input orientation:                          
 ---------------------------------------------------------------------
 Center     Atomic      Atomic             Coordinates (Angstroms)
 Number     Number       Type             X           Y           Z
 ---------------------------------------------------------------------
      1          8           0       -1.335409    0.718582    0.022439
      2          1           0       -1.593857    0.696788   -0.928536
      3          8           0        0.133812    0.685972   -0.010369
      4          1           0        0.392031    1.637003    0.011531
 ---------------------------------------------------------------------
                    Distance matrix (angstroms):
                    1          2          3          4
     1  O    0.000000
     2  H    0.985710   0.000000
     3  O    1.469949   1.956525   0.000000
     4  H    1.956442   2.389871   0.985706   0.000000
 Stoichiometry    H2O2
 Framework group  C1[X(H2O2)]
 Deg. of freedom     6
 Full point group                 C1      NOp   1
 Largest Abelian subgroup         C1      NOp   1
 Largest concise Abelian subgroup C1      NOp   1
                         Standard orientation:                         
 ---------------------------------------------------------------------
 Center     Atomic      Atomic             Coordinates (Angstroms)
 Number     Number       Type             X           Y           Z
 ---------------------------------------------------------------------
      1          8           0        0.728005    0.100782   -0.073210
      2          1           0        1.057916   -0.554481    0.585130
      3          8           0       -0.728017   -0.101083   -0.072792
      4          1           0       -1.057818    0.556890    0.582889
 ---------------------------------------------------------------------
 Rotational constants (GHZ):    298.5634883     25.1395915     25.0701564
 Standard basis: LANL2DZ (5D, 7F)
 There are    22 symmetry adapted basis functions of A   symmetry.
 Integral buffers will be    262144 words long.
 Raffenetti 2 integral format.
 Two-electron integral symmetry is turned on.
    22 basis functions,    58 primitive gaussians,    22 cartesian basis functions
     9 alpha electrons        9 beta electrons
       nuclear repulsion energy        36.1784146892 Hartrees.
 NAtoms=    4 NActive=    4 NUniq=    4 SFac= 7.50D-01 NAtFMM=   80 NAOKFM=F Big=F
 ------------------------------------------------------------------------------
 Polarizable Continuum Model (PCM)
 =================================
 Model                : PCM.
 Atomic radii         : SMD-Coulomb.
 Polarization charges : Total charges.
 Charge compensation  : None.
 Solution method      : Matrix inversion.
 Cavity type          : VdW (van der Waals Surface) (Alpha=1.000).
 Cavity algorithm     : GePol (No added spheres)
                        Default sphere list used, NSphG=    4.
                        Lebedev-Laikov grids with approx.  5.0 points / Ang**2.
                        Smoothing algorithm: Karplus/York (Gamma=1.0000).
                        Polarization charges: spherical gaussians, with
                                              point-specific exponents (IZeta= 3).
                        Self-potential: point-specific (ISelfS= 7).
                        Self-field    : sphere-specific E.n sum rule (ISelfD= 2).
 1st derivatives      : Analytical E(r).r(x)/FMM algorithm (CHGder, D1EAlg=3).
                        Cavity 1st derivative terms included.
 Solvent              : Water, Eps=  78.355300 Eps(inf)=   1.777849
 ------------------------------------------------------------------------------
 Spheres list:
 ISph  on   Nord    Re0     Alpha      Xe            Ye            Ze
    1   O      1    1.520   1.000      0.728005      0.100782     -0.073210
    2   H      2    1.200   1.000      1.057916     -0.554481      0.585130
    3   O      3    1.520   1.000     -0.728017     -0.101083     -0.072792
    4   H      4    1.200   1.000     -1.057818      0.556890      0.582889
 ------------------------------------------------------------------------------
 ------------------------------------------------------------------------------
 Atomic radii for non-electrostatic terms: SMD-CDS.
 ------------------------------------------------------------------------------
 Nuclear repulsion after PCM non-electrostatic terms =       36.1806324255 Hartrees.
 One-electron integrals computed using PRISM.
   1 Symmetry operations used in ECPInt.
 ECPInt:  NShTT=     105 NPrTT=     803 LenC2=     106 LenP2D=     710.
 LDataN:  DoStor=T MaxTD1= 2 Len=   12
 NBasis=    22 RedAO= T  NBF=    22
 NBsUse=    22 1.00D-06 NBFU=    22
 Initial guess read from the read-write file.
 B after Tr=     0.000000    0.000000    0.000000
         Rot=    1.000000    0.000000    0.000000    0.000000 Ang=   0.00 deg.
 Initial guess orbital symmetries:
       Occupied  (A) (A) (A) (A) (A) (A) (A) (A) (A)
       Virtual   (A) (A) (A) (A) (A) (A) (A) (A) (A) (A) (A) (A)
                 (A)
 Harris functional with IExCor= 1009 diagonalized for initial guess.
 ExpMin= 1.78D-01 ExpMax= 7.82D+03 ExpMxC= 2.73D+02 IAcc=1 IRadAn=         1 AccDes= 0.00D+00
 HarFok:  IExCor= 1009 AccDes= 0.00D+00 IRadAn=         1 IDoV= 1
 ScaDFX=  1.000000  1.000000  1.000000  1.000000
 FoFCou: FMM=F IPFlag=           0 FMFlag=      100000 FMFlg1=           0
         NFxFlg=           0 DoJE=T BraDBF=F KetDBF=T FulRan=T
         Omega=  0.000000  0.000000  1.000000  0.000000  0.000000 ICntrl=     500 IOpCl=  0
         NMat0=    1 NMatS0=    1 NMatT0=    0 NMatD0=    1 NMtDS0=    0 NMtDT0=    0
         I1Cent=           4 NGrid=           0.
 Petite list used in FoFCou.
 Requested convergence on RMS density matrix=1.00D-08 within 128 cycles.
 Requested convergence on MAX density matrix=1.00D-06.
 Requested convergence on             energy=1.00D-06.
 No special actions if energy rises.
 Keep R1 ints in memory in canonical form, NReq=3066121.
 Error on total polarization charges =  0.02112
 SCF Done:  E(RM062X) =  -151.494996388     A.U. after   11 cycles
             Convg  =    0.5326D-08             -V/T =  2.0051
 SMD-CDS (non-electrostatic) energy             (kcal/mol) =       1.39
 (included in total energy above)
   1 Symmetry operations used in ECPInt.
 ECPInt:  NShTT=     105 NPrTT=     803 LenC2=     106 LenP2D=     710.
 LDataN:  DoStor=T MaxTD1= 3 Len=   28
 D1PCM: PCM CHGder 1st derivatives, ID1Alg=3 FixD1E=F DoIter=F DoCFld=F I1PDM=0.
 Calling FoFJK, ICntrl=      2127 FMM=F ISym2X=0 I1Cent= 0 IOpClX= 0 NMat=1 NMatS=1 NMatT=0.
 ***** Axes restored to original set *****
 -------------------------------------------------------------------
 Center     Atomic                   Forces (Hartrees/Bohr)
 Number     Number              X              Y              Z
 -------------------------------------------------------------------
      1        8           0.000220784    0.000554948   -0.000377570
      2        1           0.000502568   -0.000284063    0.000655768
      3        8          -0.000232055    0.000385780   -0.000573565
      4        1          -0.000491297   -0.000656664    0.000295367
 -------------------------------------------------------------------
 Cartesian Forces:  Max     0.000656664 RMS     0.000461343

 GradGradGradGradGradGradGradGradGradGradGradGradGradGradGradGradGradGrad
 Berny optimization.
 Using GEDIIS/GDIIS optimizer.
 Internal  Forces:  Max     0.000751332 RMS     0.000670432
 Search for a local minimum.
 Step number   4 out of a maximum of   20
 All quantities printed in internal units (Hartrees-Bohrs-Radians)
 Mixed Optimization -- En-DIIS/RFO-DIIS
 Update second derivatives using D2CorX and points    1    2    3    4
 DE= -3.70D-04 DEPred=-3.66D-04 R= 1.01D+00
 SS=  1.41D+00  RLast= 6.89D-02 DXNew= 9.6394D-01 2.0661D-01
 Trust test= 1.01D+00 RLast= 6.89D-02 DXMaxT set to 5.73D-01
 The second derivative matrix:
                          R1        R2        R3        A1        A2
           R1           0.55107
           R2          -0.01375   0.40239
           R3          -0.00365  -0.01379   0.55110
           A1           0.00725   0.07640   0.00721   0.20157
           A2           0.00738   0.07625   0.00734   0.04131   0.20106
           D1           0.00174  -0.01171   0.00174  -0.00047  -0.00047
                          D1
           D1           0.02200
 Use linear search instead of GDIIS.
     Eigenvalues ---    0.02160   0.16000   0.18704   0.45579   0.55003
     Eigenvalues ---    0.55473
 RFO step:  Lambda=-1.86560749D-05 EMin= 2.15999102D-02
 Quartic linear search produced a step of -0.01744.
 Iteration  1 RMS(Cart)=  0.00870741 RMS(Int)=  0.00007799
 Iteration  2 RMS(Cart)=  0.00005463 RMS(Int)=  0.00000000
 Iteration  3 RMS(Cart)=  0.00000000 RMS(Int)=  0.00000000
 Variable       Old X    -DE/DX   Delta X   Delta X   Delta X     New X
                                 (Linear)    (Quad)   (Total)
    R1        1.86272  -0.00075   0.00012  -0.00152  -0.00140   1.86133
    R2        2.77780  -0.00072   0.00003  -0.00031  -0.00028   2.77752
    R3        1.86271  -0.00075   0.00012  -0.00151  -0.00139   1.86132
    A1        1.81321  -0.00062  -0.00068  -0.00171  -0.00239   1.81082
    A2        1.81309  -0.00060  -0.00067  -0.00157  -0.00224   1.81086
    D1        1.62798   0.00055  -0.00071   0.02570   0.02498   1.65296
         Item               Value     Threshold  Converged?
 Maximum Force            0.000751     0.000450     NO 
 RMS     Force            0.000670     0.000300     NO 
 Maximum Displacement     0.010680     0.001800     NO 
 RMS     Displacement     0.008717     0.001200     NO 
 Predicted change in Energy=-9.539426D-06
 GradGradGradGradGradGradGradGradGradGradGradGradGradGradGradGradGradGrad

                          Input orientation:                          
 ---------------------------------------------------------------------
 Center     Atomic      Atomic             Coordinates (Angstroms)
 Number     Number       Type             X           Y           Z
 ---------------------------------------------------------------------
      1          8           0       -1.335241    0.724202    0.021826
      2          1           0       -1.594857    0.691314   -0.927745
      3          8           0        0.133591    0.686615   -0.016021
      4          1           0        0.393085    1.636214    0.017004
 ---------------------------------------------------------------------
                    Distance matrix (angstroms):
                    1          2          3          4
     1  O    0.000000
     2  H    0.984971   0.000000
     3  O    1.469800   1.954174   0.000000
     4  H    1.954201   2.395266   0.984970   0.000000
 Stoichiometry    H2O2
 Framework group  C1[X(H2O2)]
 Deg. of freedom     6
 Full point group                 C1      NOp   1
 Largest Abelian subgroup         C1      NOp   1
 Largest concise Abelian subgroup C1      NOp   1
                         Standard orientation:                         
 ---------------------------------------------------------------------
 Center     Atomic      Atomic             Coordinates (Angstroms)
 Number     Number       Type             X           Y           Z
 ---------------------------------------------------------------------
      1          8           0       -0.727773   -0.102133   -0.071994
      2          1           0       -1.057438    0.562368    0.576023
      3          8           0        0.727769    0.102101   -0.072040
      4          1           0        1.057472   -0.562112    0.576252
 ---------------------------------------------------------------------
 Rotational constants (GHZ):    298.7929779     25.1809637     25.0583290
 Standard basis: LANL2DZ (5D, 7F)
 There are    22 symmetry adapted basis functions of A   symmetry.
 Integral buffers will be    262144 words long.
 Raffenetti 2 integral format.
 Two-electron integral symmetry is turned on.
    22 basis functions,    58 primitive gaussians,    22 cartesian basis functions
     9 alpha electrons        9 beta electrons
       nuclear repulsion energy        36.1917605023 Hartrees.
 NAtoms=    4 NActive=    4 NUniq=    4 SFac= 7.50D-01 NAtFMM=   80 NAOKFM=F Big=F
 ------------------------------------------------------------------------------
 Polarizable Continuum Model (PCM)
 =================================
 Model                : PCM.
 Atomic radii         : SMD-Coulomb.
 Polarization charges : Total charges.
 Charge compensation  : None.
 Solution method      : Matrix inversion.
 Cavity type          : VdW (van der Waals Surface) (Alpha=1.000).
 Cavity algorithm     : GePol (No added spheres)
                        Default sphere list used, NSphG=    4.
                        Lebedev-Laikov grids with approx.  5.0 points / Ang**2.
                        Smoothing algorithm: Karplus/York (Gamma=1.0000).
                        Polarization charges: spherical gaussians, with
                                              point-specific exponents (IZeta= 3).
                        Self-potential: point-specific (ISelfS= 7).
                        Self-field    : sphere-specific E.n sum rule (ISelfD= 2).
 1st derivatives      : Analytical E(r).r(x)/FMM algorithm (CHGder, D1EAlg=3).
                        Cavity 1st derivative terms included.
 Solvent              : Water, Eps=  78.355300 Eps(inf)=   1.777849
 ------------------------------------------------------------------------------
 Spheres list:
 ISph  on   Nord    Re0     Alpha      Xe            Ye            Ze
    1   O      1    1.520   1.000     -0.727773     -0.102133     -0.071994
    2   H      2    1.200   1.000     -1.057438      0.562368      0.576023
    3   O      3    1.520   1.000      0.727769      0.102101     -0.072040
    4   H      4    1.200   1.000      1.057472     -0.562112      0.576252
 ------------------------------------------------------------------------------
 ------------------------------------------------------------------------------
 Atomic radii for non-electrostatic terms: SMD-CDS.
 ------------------------------------------------------------------------------
 Nuclear repulsion after PCM non-electrostatic terms =       36.1939754081 Hartrees.
 One-electron integrals computed using PRISM.
   1 Symmetry operations used in ECPInt.
 ECPInt:  NShTT=     105 NPrTT=     803 LenC2=     106 LenP2D=     708.
 LDataN:  DoStor=T MaxTD1= 2 Len=   12
 NBasis=    22 RedAO= T  NBF=    22
 NBsUse=    22 1.00D-06 NBFU=    22
 Initial guess read from the read-write file.
 B after Tr=     0.000000    0.000000    0.000000
         Rot=    1.000000    0.000000    0.000000    0.000000 Ang=   0.00 deg.
 Initial guess orbital symmetries:
       Occupied  (A) (A) (A) (A) (A) (A) (A) (A) (A)
       Virtual   (A) (A) (A) (A) (A) (A) (A) (A) (A) (A) (A) (A)
                 (A)
 Requested convergence on RMS density matrix=1.00D-08 within 128 cycles.
 Requested convergence on MAX density matrix=1.00D-06.
 Requested convergence on             energy=1.00D-06.
 No special actions if energy rises.
 Keep R1 ints in memory in canonical form, NReq=3066121.
 Error on total polarization charges =  0.02111
 SCF Done:  E(RM062X) =  -151.495012348     A.U. after   11 cycles
             Convg  =    0.9286D-08             -V/T =  2.0051
 SMD-CDS (non-electrostatic) energy             (kcal/mol) =       1.39
 (included in total energy above)
   1 Symmetry operations used in ECPInt.
 ECPInt:  NShTT=     105 NPrTT=     803 LenC2=     106 LenP2D=     708.
 LDataN:  DoStor=T MaxTD1= 3 Len=   28
 D1PCM: PCM CHGder 1st derivatives, ID1Alg=3 FixD1E=F DoIter=F DoCFld=F I1PDM=0.
 Calling FoFJK, ICntrl=      2127 FMM=F ISym2X=0 I1Cent= 0 IOpClX= 0 NMat=1 NMatS=1 NMatT=0.
 ***** Axes restored to original set *****
 -------------------------------------------------------------------
 Center     Atomic                   Forces (Hartrees/Bohr)
 Number     Number              X              Y              Z
 -------------------------------------------------------------------
      1        8           0.000245869    0.000400026    0.000041805
      2        1           0.000150299   -0.000257818    0.000097658
      3        8          -0.000242227   -0.000046374   -0.000396195
      4        1          -0.000153941   -0.000095833    0.000256733
 -------------------------------------------------------------------
 Cartesian Forces:  Max     0.000400026 RMS     0.000230472

 GradGradGradGradGradGradGradGradGradGradGradGradGradGradGradGradGradGrad
 Berny optimization.
 Using GEDIIS/GDIIS optimizer.
 Internal  Forces:  Max     0.000478120 RMS     0.000302515
 Search for a local minimum.
 Step number   5 out of a maximum of   20
 All quantities printed in internal units (Hartrees-Bohrs-Radians)
 Mixed Optimization -- En-DIIS/RFO-DIIS
 Swaping is turned off.
 Update second derivatives using D2CorX and points    1    2    3    4    5
 DE= -1.60D-05 DEPred=-9.54D-06 R= 1.67D+00
 SS=  1.41D+00  RLast= 2.53D-02 DXNew= 9.6394D-01 7.5825D-02
 Trust test= 1.67D+00 RLast= 2.53D-02 DXMaxT set to 5.73D-01
 The second derivative matrix:
                          R1        R2        R3        A1        A2
           R1           0.59964
           R2          -0.01022   0.39279
           R3           0.04476  -0.01026   0.59935
           A1           0.02121   0.07045   0.02113   0.20206
           A2           0.01837   0.06955   0.01830   0.04069   0.19949
           D1           0.01426   0.00326   0.01420   0.01140   0.01119
                          D1
           D1           0.00679
     Eigenvalues ---    0.00521   0.16005   0.18935   0.44184   0.55473
     Eigenvalues ---    0.64893
 En-DIIS/RFO-DIIS IScMMF=        0 using points:     5    4
 RFO step:  Lambda=-3.94963668D-06.
 DIIS coeffs:      3.52050     -2.52050
 Iteration  1 RMS(Cart)=  0.03432635 RMS(Int)=  0.00116946
 Iteration  2 RMS(Cart)=  0.00081382 RMS(Int)=  0.00000032
 Iteration  3 RMS(Cart)=  0.00000049 RMS(Int)=  0.00000000
 Variable       Old X    -DE/DX   Delta X   Delta X   Delta X     New X
                                  (DIIS)     (GDIIS)  (Total)
    R1        1.86133  -0.00012  -0.00352   0.00152  -0.00199   1.85933
    R2        2.77752  -0.00040  -0.00071   0.00066  -0.00004   2.77747
    R3        1.86132  -0.00012  -0.00350   0.00152  -0.00198   1.85934
    A1        1.81082  -0.00026  -0.00602   0.00082  -0.00520   1.80562
    A2        1.81086  -0.00026  -0.00564   0.00036  -0.00528   1.80558
    D1        1.65296   0.00048   0.06297   0.03326   0.09623   1.74919
         Item               Value     Threshold  Converged?
 Maximum Force            0.000478     0.000450     NO 
 RMS     Force            0.000303     0.000300     NO 
 Maximum Displacement     0.041793     0.001800     NO 
 RMS     Displacement     0.034442     0.001200     NO 
 Predicted change in Energy=-2.461190D-05
 GradGradGradGradGradGradGradGradGradGradGradGradGradGradGradGradGradGrad

                          Input orientation:                          
 ---------------------------------------------------------------------
 Center     Atomic      Atomic             Coordinates (Angstroms)
 Number     Number       Type             X           Y           Z
 ---------------------------------------------------------------------
      1          8           0       -1.334669    0.745073    0.018304
      2          1           0       -1.602244    0.669198   -0.925484
      3          8           0        0.133042    0.690122   -0.036875
      4          1           0        0.400449    1.633952    0.039119
 ---------------------------------------------------------------------
                    Distance matrix (angstroms):
                    1          2          3          4
     1  O    0.000000
     2  H    0.983916   0.000000
     3  O    1.469776   1.949688   0.000000
     4  H    1.949660   2.423219   0.983919   0.000000
 Stoichiometry    H2O2
 Framework group  C1[X(H2O2)]
 Deg. of freedom     6
 Full point group                 C1      NOp   1
 Largest Abelian subgroup         C1      NOp   1
 Largest concise Abelian subgroup C1      NOp   1
                         Standard orientation:                         
 ---------------------------------------------------------------------
 Center     Atomic      Atomic             Coordinates (Angstroms)
 Number     Number       Type             X           Y           Z
 ---------------------------------------------------------------------
      1          8           0        0.727074    0.106866   -0.068195
      2          1           0        1.060345   -0.586218    0.545528
      3          8           0       -0.727078   -0.106877   -0.068179
      4          1           0       -1.060310    0.586306    0.545459
 ---------------------------------------------------------------------
 Rotational constants (GHZ):    299.2573163     25.3007666     24.9749748
 Standard basis: LANL2DZ (5D, 7F)
 There are    22 symmetry adapted basis functions of A   symmetry.
 Integral buffers will be    262144 words long.
 Raffenetti 2 integral format.
 Two-electron integral symmetry is turned on.
    22 basis functions,    58 primitive gaussians,    22 cartesian basis functions
     9 alpha electrons        9 beta electrons
       nuclear repulsion energy        36.2088123615 Hartrees.
 NAtoms=    4 NActive=    4 NUniq=    4 SFac= 7.50D-01 NAtFMM=   80 NAOKFM=F Big=F
 ------------------------------------------------------------------------------
 Polarizable Continuum Model (PCM)
 =================================
 Model                : PCM.
 Atomic radii         : SMD-Coulomb.
 Polarization charges : Total charges.
 Charge compensation  : None.
 Solution method      : Matrix inversion.
 Cavity type          : VdW (van der Waals Surface) (Alpha=1.000).
 Cavity algorithm     : GePol (No added spheres)
                        Default sphere list used, NSphG=    4.
                        Lebedev-Laikov grids with approx.  5.0 points / Ang**2.
                        Smoothing algorithm: Karplus/York (Gamma=1.0000).
                        Polarization charges: spherical gaussians, with
                                              point-specific exponents (IZeta= 3).
                        Self-potential: point-specific (ISelfS= 7).
                        Self-field    : sphere-specific E.n sum rule (ISelfD= 2).
 1st derivatives      : Analytical E(r).r(x)/FMM algorithm (CHGder, D1EAlg=3).
                        Cavity 1st derivative terms included.
 Solvent              : Water, Eps=  78.355300 Eps(inf)=   1.777849
 ------------------------------------------------------------------------------
 Spheres list:
 ISph  on   Nord    Re0     Alpha      Xe            Ye            Ze
    1   O      1    1.520   1.000      0.727074      0.106866     -0.068195
    2   H      2    1.200   1.000      1.060345     -0.586218      0.545528
    3   O      3    1.520   1.000     -0.727078     -0.106877     -0.068179
    4   H      4    1.200   1.000     -1.060310      0.586306      0.545459
 ------------------------------------------------------------------------------
 ------------------------------------------------------------------------------
 Atomic radii for non-electrostatic terms: SMD-CDS.
 ------------------------------------------------------------------------------
 Nuclear repulsion after PCM non-electrostatic terms =       36.2110213150 Hartrees.
 One-electron integrals computed using PRISM.
   1 Symmetry operations used in ECPInt.
 ECPInt:  NShTT=     105 NPrTT=     803 LenC2=     106 LenP2D=     708.
 LDataN:  DoStor=T MaxTD1= 2 Len=   12
 NBasis=    22 RedAO= T  NBF=    22
 NBsUse=    22 1.00D-06 NBFU=    22
 Initial guess read from the read-write file.
 B after Tr=     0.000000    0.000000    0.000000
         Rot=    1.000000    0.000000    0.000000    0.000000 Ang=   0.00 deg.
 Initial guess orbital symmetries:
       Occupied  (A) (A) (A) (A) (A) (A) (A) (A) (A)
       Virtual   (A) (A) (A) (A) (A) (A) (A) (A) (A) (A) (A) (A)
                 (A)
 Harris functional with IExCor= 1009 diagonalized for initial guess.
 ExpMin= 1.78D-01 ExpMax= 7.82D+03 ExpMxC= 2.73D+02 IAcc=1 IRadAn=         1 AccDes= 0.00D+00
 HarFok:  IExCor= 1009 AccDes= 0.00D+00 IRadAn=         1 IDoV= 1
 ScaDFX=  1.000000  1.000000  1.000000  1.000000
 FoFCou: FMM=F IPFlag=           0 FMFlag=      100000 FMFlg1=           0
         NFxFlg=           0 DoJE=T BraDBF=F KetDBF=T FulRan=T
         Omega=  0.000000  0.000000  1.000000  0.000000  0.000000 ICntrl=     500 IOpCl=  0
         NMat0=    1 NMatS0=    1 NMatT0=    0 NMatD0=    1 NMtDS0=    0 NMtDT0=    0
         I1Cent=           4 NGrid=           0.
 Petite list used in FoFCou.
 Requested convergence on RMS density matrix=1.00D-08 within 128 cycles.
 Requested convergence on MAX density matrix=1.00D-06.
 Requested convergence on             energy=1.00D-06.
 No special actions if energy rises.
 Keep R1 ints in memory in canonical form, NReq=3062959.
 Error on total polarization charges =  0.02109
 SCF Done:  E(RM062X) =  -151.495036265     A.U. after   11 cycles
             Convg  =    0.5316D-08             -V/T =  2.0050
 SMD-CDS (non-electrostatic) energy             (kcal/mol) =       1.39
 (included in total energy above)
   1 Symmetry operations used in ECPInt.
 ECPInt:  NShTT=     105 NPrTT=     803 LenC2=     106 LenP2D=     708.
 LDataN:  DoStor=T MaxTD1= 3 Len=   28
 D1PCM: PCM CHGder 1st derivatives, ID1Alg=3 FixD1E=F DoIter=F DoCFld=F I1PDM=0.
 Calling FoFJK, ICntrl=      2127 FMM=F ISym2X=0 I1Cent= 0 IOpClX= 0 NMat=1 NMatS=1 NMatT=0.
 ***** Axes restored to original set *****
 -------------------------------------------------------------------
 Center     Atomic                   Forces (Hartrees/Bohr)
 Number     Number              X              Y              Z
 -------------------------------------------------------------------
      1        8           0.000075077   -0.000012261    0.000576376
      2        1          -0.000287558   -0.000048260   -0.000634038
      3        8          -0.000078438   -0.000569174    0.000009857
      4        1           0.000290918    0.000629695    0.000047805
 -------------------------------------------------------------------
 Cartesian Forces:  Max     0.000634038 RMS     0.000369534

 GradGradGradGradGradGradGradGradGradGradGradGradGradGradGradGradGradGrad
 Berny optimization.
 Using GEDIIS/GDIIS optimizer.
 Internal  Forces:  Max     0.000692945 RMS     0.000422040
 Search for a local minimum.
 Step number   6 out of a maximum of   20
 All quantities printed in internal units (Hartrees-Bohrs-Radians)
 Mixed Optimization -- En-DIIS/RFO-DIIS
 Swaping is turned off.
 Update second derivatives using D2CorX and points    1    2    3    4    5
                                                      6
 DE= -2.39D-05 DEPred=-2.46D-05 R= 9.72D-01
 SS=  1.41D+00  RLast= 9.66D-02 DXNew= 9.6394D-01 2.8966D-01
 Trust test= 9.72D-01 RLast= 9.66D-02 DXMaxT set to 5.73D-01
 The second derivative matrix:
                          R1        R2        R3        A1        A2
           R1           0.62395
           R2          -0.00817   0.39276
           R3           0.06897  -0.00822   0.62346
           A1           0.01349   0.06910   0.01344   0.19688
           A2           0.01087   0.06826   0.01082   0.03611   0.19550
           D1           0.00723   0.00108   0.00721   0.00863   0.00841
                          D1
           D1           0.00612
     Eigenvalues ---    0.00532   0.16007   0.18567   0.43859   0.55473
     Eigenvalues ---    0.69429
 En-DIIS/RFO-DIIS IScMMF=        0 using points:     6    5    4
 RFO step:  Lambda=-1.32575675D-06.
 DIIS coeffs:      1.20293     -1.29374      1.09080
 Iteration  1 RMS(Cart)=  0.00274707 RMS(Int)=  0.00000735
 Iteration  2 RMS(Cart)=  0.00000499 RMS(Int)=  0.00000000
 Iteration  3 RMS(Cart)=  0.00000000 RMS(Int)=  0.00000000
 Variable       Old X    -DE/DX   Delta X   Delta X   Delta X     New X
                                  (DIIS)     (GDIIS)  (Total)
    R1        1.85933   0.00069   0.00112   0.00026   0.00138   1.86071
    R2        2.77747   0.00020   0.00030   0.00012   0.00042   2.77789
    R3        1.85934   0.00069   0.00111   0.00026   0.00137   1.86071
    A1        1.80562   0.00018   0.00155  -0.00066   0.00089   1.80651
    A2        1.80558   0.00019   0.00137  -0.00035   0.00101   1.80659
    D1        1.74919   0.00001  -0.00772   0.00009  -0.00764   1.74155
         Item               Value     Threshold  Converged?
 Maximum Force            0.000693     0.000450     NO 
 RMS     Force            0.000422     0.000300     NO 
 Maximum Displacement     0.003452     0.001800     NO 
 RMS     Displacement     0.002747     0.001200     NO 
 Predicted change in Energy=-7.255020D-07
 GradGradGradGradGradGradGradGradGradGradGradGradGradGradGradGradGradGrad

                          Input orientation:                          
 ---------------------------------------------------------------------
 Center     Atomic      Atomic             Coordinates (Angstroms)
 Number     Number       Type             X           Y           Z
 ---------------------------------------------------------------------
      1          8           0       -1.334854    0.743246    0.018706
      2          1           0       -1.602365    0.670757   -0.926128
      3          8           0        0.133184    0.689748   -0.035072
      4          1           0        0.400612    1.634594    0.037558
 ---------------------------------------------------------------------
                    Distance matrix (angstroms):
                    1          2          3          4
     1  O    0.000000
     2  H    0.984646   0.000000
     3  O    1.469996   1.951018   0.000000
     4  H    1.951076   2.422724   0.984646   0.000000
 Stoichiometry    H2O2
 Framework group  C1[X(H2O2)]
 Deg. of freedom     6
 Full point group                 C1      NOp   1
 Largest Abelian subgroup         C1      NOp   1
 Largest concise Abelian subgroup C1      NOp   1
                         Standard orientation:                         
 ---------------------------------------------------------------------
 Center     Atomic      Atomic             Coordinates (Angstroms)
 Number     Number       Type             X           Y           Z
 ---------------------------------------------------------------------
      1          8           0       -0.727230   -0.106613   -0.068519
      2          1           0       -1.060955    0.584622    0.548206
      3          8           0        0.727222    0.106595   -0.068547
      4          1           0        1.061025   -0.584478    0.548318
 ---------------------------------------------------------------------
 Rotational constants (GHZ):    298.9292225     25.2797029     24.9700861
 Standard basis: LANL2DZ (5D, 7F)
 There are    22 symmetry adapted basis functions of A   symmetry.
 Integral buffers will be    262144 words long.
 Raffenetti 2 integral format.
 Two-electron integral symmetry is turned on.
    22 basis functions,    58 primitive gaussians,    22 cartesian basis functions
     9 alpha electrons        9 beta electrons
       nuclear repulsion energy        36.1959862267 Hartrees.
 NAtoms=    4 NActive=    4 NUniq=    4 SFac= 7.50D-01 NAtFMM=   80 NAOKFM=F Big=F
 ------------------------------------------------------------------------------
 Polarizable Continuum Model (PCM)
 =================================
 Model                : PCM.
 Atomic radii         : SMD-Coulomb.
 Polarization charges : Total charges.
 Charge compensation  : None.
 Solution method      : Matrix inversion.
 Cavity type          : VdW (van der Waals Surface) (Alpha=1.000).
 Cavity algorithm     : GePol (No added spheres)
                        Default sphere list used, NSphG=    4.
                        Lebedev-Laikov grids with approx.  5.0 points / Ang**2.
                        Smoothing algorithm: Karplus/York (Gamma=1.0000).
                        Polarization charges: spherical gaussians, with
                                              point-specific exponents (IZeta= 3).
                        Self-potential: point-specific (ISelfS= 7).
                        Self-field    : sphere-specific E.n sum rule (ISelfD= 2).
 1st derivatives      : Analytical E(r).r(x)/FMM algorithm (CHGder, D1EAlg=3).
                        Cavity 1st derivative terms included.
 Solvent              : Water, Eps=  78.355300 Eps(inf)=   1.777849
 ------------------------------------------------------------------------------
 Spheres list:
 ISph  on   Nord    Re0     Alpha      Xe            Ye            Ze
    1   O      1    1.520   1.000     -0.727230     -0.106613     -0.068519
    2   H      2    1.200   1.000     -1.060955      0.584622      0.548206
    3   O      3    1.520   1.000      0.727222      0.106595     -0.068547
    4   H      4    1.200   1.000      1.061025     -0.584478      0.548318
 ------------------------------------------------------------------------------
 ------------------------------------------------------------------------------
 Atomic radii for non-electrostatic terms: SMD-CDS.
 ------------------------------------------------------------------------------
 Nuclear repulsion after PCM non-electrostatic terms =       36.1981970437 Hartrees.
 One-electron integrals computed using PRISM.
   1 Symmetry operations used in ECPInt.
 ECPInt:  NShTT=     105 NPrTT=     803 LenC2=     106 LenP2D=     708.
 LDataN:  DoStor=T MaxTD1= 2 Len=   12
 NBasis=    22 RedAO= T  NBF=    22
 NBsUse=    22 1.00D-06 NBFU=    22
 Initial guess read from the read-write file.
 B after Tr=     0.000000    0.000000    0.000000
         Rot=    1.000000    0.000000    0.000000    0.000000 Ang=   0.00 deg.
 Initial guess orbital symmetries:
       Occupied  (A) (A) (A) (A) (A) (A) (A) (A) (A)
       Virtual   (A) (A) (A) (A) (A) (A) (A) (A) (A) (A) (A) (A)
                 (A)
 Requested convergence on RMS density matrix=1.00D-08 within 128 cycles.
 Requested convergence on MAX density matrix=1.00D-06.
 Requested convergence on             energy=1.00D-06.
 No special actions if energy rises.
 Keep R1 ints in memory in canonical form, NReq=3062959.
 Error on total polarization charges =  0.02110
 SCF Done:  E(RM062X) =  -151.495037335     A.U. after   12 cycles
             Convg  =    0.1784D-08             -V/T =  2.0051
 SMD-CDS (non-electrostatic) energy             (kcal/mol) =       1.39
 (included in total energy above)
   1 Symmetry operations used in ECPInt.
 ECPInt:  NShTT=     105 NPrTT=     803 LenC2=     106 LenP2D=     708.
 LDataN:  DoStor=T MaxTD1= 3 Len=   28
 D1PCM: PCM CHGder 1st derivatives, ID1Alg=3 FixD1E=F DoIter=F DoCFld=F I1PDM=0.
 Calling FoFJK, ICntrl=      2127 FMM=F ISym2X=0 I1Cent= 0 IOpClX= 0 NMat=1 NMatS=1 NMatT=0.
 ***** Axes restored to original set *****
 -------------------------------------------------------------------
 Center     Atomic                   Forces (Hartrees/Bohr)
 Number     Number              X              Y              Z
 -------------------------------------------------------------------
      1        8           0.000043969    0.000032561    0.000031543
      2        1          -0.000018849   -0.000020440   -0.000024969
      3        8          -0.000035377   -0.000039124   -0.000027428
      4        1           0.000010257    0.000027003    0.000020855
 -------------------------------------------------------------------
 Cartesian Forces:  Max     0.000043969 RMS     0.000029139

 GradGradGradGradGradGradGradGradGradGradGradGradGradGradGradGradGradGrad
 Berny optimization.
 Using GEDIIS/GDIIS optimizer.
 Internal  Forces:  Max     0.000040928 RMS     0.000028661
 Search for a local minimum.
 Step number   7 out of a maximum of   20
 All quantities printed in internal units (Hartrees-Bohrs-Radians)
 Mixed Optimization -- En-DIIS/RFO-DIIS
 Swaping is turned off.
 Update second derivatives using D2CorX and points    1    2    3    4    5
                                                      6    7
 DE= -1.07D-06 DEPred=-7.26D-07 R= 1.48D+00
 SS=  1.41D+00  RLast= 8.01D-03 DXNew= 9.6394D-01 2.4018D-02
 Trust test= 1.48D+00 RLast= 8.01D-03 DXMaxT set to 5.73D-01
 The second derivative matrix:
                          R1        R2        R3        A1        A2
           R1           0.52182
           R2          -0.02536   0.39554
           R3          -0.03264  -0.02532   0.52237
           A1          -0.00231   0.06765  -0.00228   0.19489
           A2          -0.00184   0.06877  -0.00181   0.03518   0.19586
           D1           0.00026  -0.00112   0.00027   0.00724   0.00690
                          D1
           D1           0.00617
     Eigenvalues ---    0.00564   0.16019   0.18620   0.42259   0.50730
     Eigenvalues ---    0.55473
 En-DIIS/RFO-DIIS IScMMF=        0 using points:     7    6    5    4
 RFO step:  Lambda=-2.66193990D-08.
 DIIS coeffs:      1.07398      0.03664     -0.22236      0.11174
 Iteration  1 RMS(Cart)=  0.00265132 RMS(Int)=  0.00000674
 Iteration  2 RMS(Cart)=  0.00000469 RMS(Int)=  0.00000000
 Iteration  3 RMS(Cart)=  0.00000000 RMS(Int)=  0.00000000
 Variable       Old X    -DE/DX   Delta X   Delta X   Delta X     New X
                                  (DIIS)     (GDIIS)  (Total)
    R1        1.86071   0.00003   0.00004   0.00001   0.00004   1.86076
    R2        2.77789  -0.00003   0.00006  -0.00004   0.00002   2.77791
    R3        1.86071   0.00003   0.00004   0.00001   0.00004   1.86076
    A1        1.80651   0.00001  -0.00024   0.00004  -0.00020   1.80631
    A2        1.80659  -0.00001  -0.00026  -0.00004  -0.00030   1.80629
    D1        1.74155   0.00004   0.00729  -0.00003   0.00726   1.74881
         Item               Value     Threshold  Converged?
 Maximum Force            0.000041     0.000450     YES
 RMS     Force            0.000029     0.000300     YES
 Maximum Displacement     0.003238     0.001800     NO 
 RMS     Displacement     0.002652     0.001200     NO 
 Predicted change in Energy=-1.475980D-07
 GradGradGradGradGradGradGradGradGradGradGradGradGradGradGradGradGradGrad

                          Input orientation:                          
 ---------------------------------------------------------------------
 Center     Atomic      Atomic             Coordinates (Angstroms)
 Number     Number       Type             X           Y           Z
 ---------------------------------------------------------------------
      1          8           0       -1.334796    0.744795    0.018389
      2          1           0       -1.603083    0.669044   -0.925994
      3          8           0        0.133160    0.690045   -0.036602
      4          1           0        0.401296    1.634460    0.039272
 ---------------------------------------------------------------------
                    Distance matrix (angstroms):
                    1          2          3          4
     1  O    0.000000
     2  H    0.984670   0.000000
     3  O    1.470005   1.950897   0.000000
     4  H    1.950885   2.425139   0.984669   0.000000
 Stoichiometry    H2O2
 Framework group  C1[X(H2O2)]
 Deg. of freedom     6
 Full point group                 C1      NOp   1
 Largest Abelian subgroup         C1      NOp   1
 Largest concise Abelian subgroup C1      NOp   1
                         Standard orientation:                         
 ---------------------------------------------------------------------
 Center     Atomic      Atomic             Coordinates (Angstroms)
 Number     Number       Type             X           Y           Z
 ---------------------------------------------------------------------
      1          8           0        0.727176    0.106973   -0.068245
      2          1           0        1.061401   -0.586303    0.545951
      3          8           0       -0.727177   -0.106976   -0.068240
      4          1           0       -1.061388    0.586328    0.545931
 ---------------------------------------------------------------------
 Rotational constants (GHZ):    298.9285077     25.2873949     24.9625453
 Standard basis: LANL2DZ (5D, 7F)
 There are    22 symmetry adapted basis functions of A   symmetry.
 Integral buffers will be    262144 words long.
 Raffenetti 2 integral format.
 Two-electron integral symmetry is turned on.
    22 basis functions,    58 primitive gaussians,    22 cartesian basis functions
     9 alpha electrons        9 beta electrons
       nuclear repulsion energy        36.1957681881 Hartrees.
 NAtoms=    4 NActive=    4 NUniq=    4 SFac= 7.50D-01 NAtFMM=   80 NAOKFM=F Big=F
 ------------------------------------------------------------------------------
 Polarizable Continuum Model (PCM)
 =================================
 Model                : PCM.
 Atomic radii         : SMD-Coulomb.
 Polarization charges : Total charges.
 Charge compensation  : None.
 Solution method      : Matrix inversion.
 Cavity type          : VdW (van der Waals Surface) (Alpha=1.000).
 Cavity algorithm     : GePol (No added spheres)
                        Default sphere list used, NSphG=    4.
                        Lebedev-Laikov grids with approx.  5.0 points / Ang**2.
                        Smoothing algorithm: Karplus/York (Gamma=1.0000).
                        Polarization charges: spherical gaussians, with
                                              point-specific exponents (IZeta= 3).
                        Self-potential: point-specific (ISelfS= 7).
[...]
                        Cavity 1st derivative terms included.
 2nd derivatives      : Analytical E(r).r(xy)/FMM algorithm (CHGder, D2EAlg=3).
                        Cavity 2nd derivative terms included.
 Solvent              : Water, Eps=  78.355300 Eps(inf)=   1.777849
 ------------------------------------------------------------------------------
 Spheres list:
 ISph  on   Nord    Re0     Alpha      Xe            Ye            Ze
    1   O      1    1.520   1.000      0.727176      0.106973     -0.068245
    2   H      2    1.200   1.000      1.061401     -0.586303      0.545951
    3   O      3    1.520   1.000     -0.727177     -0.106976     -0.068240
    4   H      4    1.200   1.000     -1.061388      0.586328      0.545931
 ------------------------------------------------------------------------------
 ------------------------------------------------------------------------------
 Atomic radii for non-electrostatic terms: SMD-CDS.
 ------------------------------------------------------------------------------
 Nuclear repulsion after PCM non-electrostatic terms =       36.1979788543 Hartrees.
 One-electron integrals computed using PRISM.
   1 Symmetry operations used in ECPInt.
 ECPInt:  NShTT=     105 NPrTT=     803 LenC2=     106 LenP2D=     708.
 LDataN:  DoStor=T MaxTD1= 2 Len=   12
 NBasis=    22 RedAO= T  NBF=    22
 NBsUse=    22 1.00D-06 NBFU=    22
 Initial guess read from the checkpoint file:  D:\Documents\rayGit\FQ\quimicaComp
 utacional\proyecto\decompositionHydrogenPeroxide\decompositionCatalyzedByIodine\
 step1\reacts\hydrogenPeroxyde.chk
 B after Tr=     0.000000    0.000000    0.000000
         Rot=    1.000000    0.000000    0.000000    0.000000 Ang=   0.00 deg.
 Initial guess orbital symmetries:
       Occupied  (A) (A) (A) (A) (A) (A) (A) (A) (A)
       Virtual   (A) (A) (A) (A) (A) (A) (A) (A) (A) (A) (A) (A)
                 (A)
 Requested convergence on RMS density matrix=1.00D-08 within 128 cycles.
 Requested convergence on MAX density matrix=1.00D-06.
 Requested convergence on             energy=1.00D-06.
 No special actions if energy rises.
 Keep R1 ints in memory in canonical form, NReq=3062959.
 Error on total polarization charges =  0.02110
 SCF Done:  E(RM062X) =  -151.495037437     A.U. after    1 cycles
             Convg  =    0.1263D-09             -V/T =  2.0051
 SMD-CDS (non-electrostatic) energy             (kcal/mol) =       1.39
 (included in total energy above)
 Range of M.O.s used for correlation:     1    22
 NBasis=    22 NAE=     9 NBE=     9 NFC=     0 NFV=     0
 NROrb=     22 NOA=     9 NOB=     9 NVA=    13 NVB=    13
   1 Symmetry operations used in ECPInt.
 ECPInt:  NShTT=     105 NPrTT=     803 LenC2=     106 LenP2D=     708.
 LDataN:  DoStor=T MaxTD1= 3 Len=   28
 Symmetrizing basis deriv contribution to polar:
 IMax=3 JMax=2 DiffMx= 0.00D+00
 G2DrvN: will do     5 centers at a time, making    1 passes doing MaxLOS=1.
 Calling FoFCou, ICntrl=  3107 FMM=F I1Cent=   0 AccDes= 0.00D+00.
 FoFDir/FoFCou used for L=0 through L=1.
 G2PCM: DoFxE=T DoFxN=T DoGrad=T DoPD/DQ/DG=FFF NFrqRd=   0 IEInf=0 DoCFld=F IF1Alg=4.
 End of G2Drv Frequency-dependent properties file   721 does not exist.
 End of G2Drv Frequency-dependent properties file   722 does not exist.
          IDoAtm=1111
 NEqPCM:  Using equilibrium solvation (IEInf=0, Eps=  78.3553, EpsInf=   1.7778)
          Differentiating once with respect to electric field.
                with respect to dipole field.
          Differentiating once with respect to nuclear coordinates.
          Keep R1 ints in memory in canonical form, NReq=832968.
          There are    15 degrees of freedom in the 1st order CPHF.  IDoFFX=5.
     12 vectors produced by pass  0 Test12= 7.80D-16 6.67D-09 XBig12= 6.69D+00 1.83D+00.
 AX will form    12 AO Fock derivatives at one time.
     12 vectors produced by pass  1 Test12= 7.80D-16 6.67D-09 XBig12= 9.03D-01 3.71D-01.
     12 vectors produced by pass  2 Test12= 7.80D-16 6.67D-09 XBig12= 1.89D-02 4.36D-02.
     12 vectors produced by pass  3 Test12= 7.80D-16 6.67D-09 XBig12= 2.57D-05 1.76D-03.
     12 vectors produced by pass  4 Test12= 7.80D-16 6.67D-09 XBig12= 4.65D-08 8.21D-05.
      7 vectors produced by pass  5 Test12= 7.80D-16 6.67D-09 XBig12= 6.68D-11 2.76D-06.
      2 vectors produced by pass  6 Test12= 7.80D-16 6.67D-09 XBig12= 1.14D-13 9.92D-08.
 Inverted reduced A of dimension    69 with in-core refinement.
 Isotropic polarizability for W=    0.000000       11.09 Bohr**3.
 End of Minotr Frequency-dependent properties file   721 does not exist.
 End of Minotr Frequency-dependent properties file   722 does not exist.

 **********************************************************************

            Population analysis using the SCF density.

 **********************************************************************

 Orbital symmetries:
       Occupied  (A) (A) (A) (A) (A) (A) (A) (A) (A)
       Virtual   (A) (A) (A) (A) (A) (A) (A) (A) (A) (A) (A) (A)
                 (A)
 The electronic state is 1-A.
 Alpha  occ. eigenvalues --  -19.69827 -19.69811  -1.25084  -1.02232  -0.61569
 Alpha  occ. eigenvalues --   -0.56410  -0.50159  -0.39620  -0.38478
 Alpha virt. eigenvalues --    0.06074   0.14681   0.19731   0.63003   0.67620
 Alpha virt. eigenvalues --    0.70297   0.74422   0.78353   0.81953   0.99075
 Alpha virt. eigenvalues --    1.02933   1.47718   1.76189
          Condensed to atoms (all electrons):
              1          2          3          4
     1  O    8.163377   0.265662   0.066796  -0.037880
     2  H    0.265662   0.313699  -0.037880   0.000567
     3  O    0.066796  -0.037880   8.163373   0.265662
     4  H   -0.037880   0.000567   0.265662   0.313699
 Mulliken atomic charges:
              1
     1  O   -0.457954
     2  H    0.457953
     3  O   -0.457951
     4  H    0.457953
 Sum of Mulliken atomic charges =   0.00000
 Mulliken charges with hydrogens summed into heavy atoms:
              1
     1  O   -0.000002
     3  O    0.000002
 Sum of Mulliken charges with hydrogens summed into heavy atoms =   0.00000
 APT atomic charges:
              1
     1  O   -0.387158
     2  H    0.387156
     3  O   -0.387155
     4  H    0.387156
 Sum of APT charges=   0.00000
 APT Atomic charges with hydrogens summed into heavy atoms:
              1
     1  O   -0.000001
     2  H    0.000000
     3  O    0.000001
     4  H    0.000000
 Sum of APT charges=   0.00000
 Electronic spatial extent (au):  <R**2>=             67.8090
 Charge=              0.0000 electrons
 Dipole moment (field-independent basis, Debye):
    X=              0.0000    Y=              0.0001    Z=              3.2505  Tot=              3.2505
 Quadrupole moment (field-independent basis, Debye-Ang):
   XX=            -10.0654   YY=            -11.0177   ZZ=            -11.2595
   XY=             -3.8812   XZ=              0.0001   YZ=              0.0000
 Traceless Quadrupole moment (field-independent basis, Debye-Ang):
   XX=              0.7155   YY=             -0.2368   ZZ=             -0.4786
   XY=             -3.8812   XZ=              0.0001   YZ=              0.0000
 Octapole moment (field-independent basis, Debye-Ang**2):
  XXX=              0.0001  YYY=              0.0001  ZZZ=              2.4293  XYY=             -0.0001
  XXY=              0.0001  XXZ=              4.2017  XZZ=              0.0001  YZZ=              0.0000
  YYZ=              1.3082  XYZ=             -1.7623
 Hexadecapole moment (field-independent basis, Debye-Ang**3):
 XXXX=            -42.7752 YYYY=            -10.7963 ZZZZ=            -10.4107 XXXY=             -5.4252
 XXXZ=              0.0002 YYYX=             -3.0716 YYYZ=              0.0000 ZZZX=              0.0001
 ZZZY=              0.0000 XXYY=             -8.9164 XXZZ=             -9.1537 YYZZ=             -3.1504
 XXYZ=              0.0000 YYXZ=              0.0000 ZZXY=             -1.5144
 N-N= 3.619797885428D+01 E-N=-4.308531477541D+02  KE= 1.507332459852D+02
  Exact polarizability:  19.754  -0.877   7.431   0.000   0.000   6.072
 Approx polarizability:  16.420  -0.077   6.237   0.000   0.000   5.092
   1 Symmetry operations used in ECPInt.
 ECPInt:  NShTT=     105 NPrTT=     803 LenC2=     106 LenP2D=     794.
 LDataN:  DoStor=T MaxTD1= 4 Len=   56
 D2PCM: PCM CHGder 2nd derivatives, FixD1E=F FixD2E=F DoIter=F DoCFld=F I1PDM=0
 Calling FoFJK, ICntrl=    100127 FMM=F ISym2X=0 I1Cent= 0 IOpClX= 0 NMat=1 NMatS=1 NMatT=0.
 Full mass-weighted force constant matrix:
 Low frequencies ---   -0.0008    0.0013    0.0021   43.4934   51.6531  110.5423
 Low frequencies ---  347.1979  993.2996 1322.9292
 Diagonal vibrational polarizability:
        2.9501416       0.2526977      78.7851180
 Harmonic frequencies (cm**-1), IR intensities (KM/Mole), Raman scattering
 activities (A**4/AMU), depolarization ratios for plane and unpolarized
 incident light, reduced masses (AMU), force constants (mDyne/A),
 and normal coordinates:
                     1                      2                      3
                     A                      A                      A
 Frequencies --   347.1952               993.2994              1322.8969
 Red. masses --     1.0882                14.5596                 1.1235
 Frc consts  --     0.0773                 8.4637                 1.1585
 IR Inten    --   352.1407                 1.4069               187.4563
  Atom  AN      X      Y      Z        X      Y      Z        X      Y      Z
     1   8     0.00   0.04   0.03     0.66   0.10  -0.01    -0.04  -0.01   0.04
     2   1     0.05  -0.45  -0.54     0.02  -0.08   0.20     0.67   0.21  -0.09
     3   8     0.00  -0.04   0.03    -0.66  -0.10  -0.01    -0.04  -0.01  -0.04
     4   1    -0.05   0.45  -0.54    -0.02   0.08   0.20     0.67   0.21   0.09
                     4                      5                      6
                     A                      A                      A
 Frequencies --  1381.4498              3680.3898              3691.0727
 Red. masses --     1.0799                 1.0671                 1.0703
 Frc consts  --     1.2142                 8.5165                 8.5910
 IR Inten    --     2.3556               161.1978                50.2045
  Atom  AN      X      Y      Z        X      Y      Z        X      Y      Z
     1   8    -0.01   0.05  -0.01    -0.02   0.03  -0.03     0.02  -0.03   0.03
     2   1    -0.68  -0.16   0.11     0.24  -0.50   0.44    -0.23   0.50  -0.44
     3   8     0.01  -0.05  -0.01    -0.02   0.03   0.03    -0.02   0.03   0.03
     4   1     0.68   0.16   0.11     0.24  -0.50  -0.44     0.23  -0.50  -0.44

 -------------------
 - Thermochemistry -
 -------------------
 Temperature   298.150 Kelvin.  Pressure   1.00000 Atm.
 Atom     1 has atomic number  8 and mass  15.99491
 Atom     2 has atomic number  1 and mass   1.00783
 Atom     3 has atomic number  8 and mass  15.99491
 Atom     4 has atomic number  1 and mass   1.00783
 Molecular mass:    34.00548 amu.
 Principal axes and moments of inertia in atomic units:
                           1         2         3
     Eigenvalues --     6.03737  71.36920  72.29796
           X            0.99771  -0.06761   0.00000
           Y            0.06761   0.99771   0.00001
           Z            0.00000  -0.00001   1.00000
 This molecule is an asymmetric top.
 Rotational symmetry number  1.
 Rotational temperatures (Kelvin)     14.34629     1.21360     1.19801
 Rotational constants (GHZ):         298.92851    25.28739    24.96255
 Zero-point vibrational energy      68284.7 (Joules/Mol)
                                   16.32043 (Kcal/Mol)
 Warning -- explicit consideration of   1 degrees of freedom as
           vibrations may cause significant error
 Vibrational temperatures:    499.54  1429.13  1903.35  1987.60  5295.25
          (Kelvin)           5310.62
 
 Zero-point correction=                           0.026008 (Hartree/Particle)
 Thermal correction to Energy=                    0.029261
 Thermal correction to Enthalpy=                  0.030205
 Thermal correction to Gibbs Free Energy=         0.003643
 Sum of electronic and zero-point Energies=           -151.469029
 Sum of electronic and thermal Energies=              -151.465776
 Sum of electronic and thermal Enthalpies=            -151.464832
 Sum of electronic and thermal Free Energies=         -151.491394
 
                     E (Thermal)             CV                S
                      KCal/Mol        Cal/Mol-Kelvin    Cal/Mol-Kelvin
 Total                   18.362              8.177             55.905
 Electronic               0.000              0.000              0.000
 Translational            0.889              2.981             36.503
 Rotational               0.889              2.981             18.083
 Vibrational             16.584              2.216              1.319
 Vibration     1          0.725              1.581              1.179
                       Q            Log10(Q)             Ln(Q)
 Total Bot       0.211036D-01         -1.675644         -3.858314
 Total V=0       0.193774D+11         10.287296         23.687375
 Vib (Bot)       0.135515D-11        -11.868012        -27.327107
 Vib (Bot)    1  0.532365D+00         -0.273791         -0.630426
 Vib (V=0)       0.124431D+01          0.094929          0.218582
 Vib (V=0)    1  0.123035D+01          0.090029          0.207299
 Electronic      0.100000D+01          0.000000          0.000000
 Translational   0.779433D+07          6.891779         15.868907
 Rotational      0.199797D+04          3.300589          7.599886
 ***** Axes restored to original set *****
 -------------------------------------------------------------------
 Center     Atomic                   Forces (Hartrees/Bohr)
 Number     Number              X              Y              Z
 -------------------------------------------------------------------
      1        8          -0.000000273   -0.000000085    0.000005184
      2        1          -0.000003305    0.000006801    0.000002592
      3        8          -0.000001429   -0.000003937   -0.000000899
      4        1           0.000005007   -0.000002779   -0.000006877
 -------------------------------------------------------------------
 Cartesian Forces:  Max     0.000006877 RMS     0.000003972

 GradGradGradGradGradGradGradGradGradGradGradGradGradGradGradGradGradGrad
 Berny optimization.
 Internal  Forces:  Max     0.000004841 RMS     0.000002337
 Search for a local minimum.
 Step number   1 out of a maximum of    2
 All quantities printed in internal units (Hartrees-Bohrs-Radians)
 Second derivative matrix not updated -- analytic derivatives used.
 The second derivative matrix:
                          R1        R2        R3        A1        A2
           R1           0.48674
           R2          -0.01097   0.33559
           R3           0.00080  -0.01097   0.48673
           A1           0.00152   0.06433  -0.00064   0.22147
           A2          -0.00064   0.06433   0.00152   0.01280   0.22147
           D1           0.00145  -0.00034   0.00145   0.00767   0.00767
                          D1
           D1           0.00762
     Eigenvalues ---    0.00702   0.18107   0.20865   0.38747   0.48595
     Eigenvalues ---    0.48944
 Angle between quadratic step and forces=  31.95 degrees.
 Linear search not attempted -- first point.
 Iteration  1 RMS(Cart)=  0.00025016 RMS(Int)=  0.00000006
 Iteration  2 RMS(Cart)=  0.00000004 RMS(Int)=  0.00000000
 Variable       Old X    -DE/DX   Delta X   Delta X   Delta X     New X
                                 (Linear)    (Quad)   (Total)
    R1        1.86076   0.00000   0.00000   0.00000   0.00000   1.86076
    R2        2.77791   0.00000   0.00000  -0.00001  -0.00001   2.77790
    R3        1.86076   0.00000   0.00000   0.00000   0.00000   1.86076
    A1        1.80631   0.00000   0.00000   0.00002   0.00002   1.80632
    A2        1.80629   0.00000   0.00000   0.00003   0.00003   1.80632
    D1        1.74881   0.00000   0.00000  -0.00068  -0.00068   1.74813
         Item               Value     Threshold  Converged?
 Maximum Force            0.000005     0.000450     YES
 RMS     Force            0.000002     0.000300     YES
 Maximum Displacement     0.000305     0.001800     YES
 RMS     Displacement     0.000250     0.001200     YES
 Predicted change in Energy=-1.662939D-09
 Optimization completed.
    -- Stationary point found.
                           ----------------------------
                           !   Optimized Parameters   !
                           ! (Angstroms and Degrees)  !
 --------------------------                            --------------------------
 ! Name  Definition              Value          Derivative Info.                !
 --------------------------------------------------------------------------------
 ! R1    R(1,2)                  0.9847         -DE/DX =    0.0                 !
 ! R2    R(1,3)                  1.47           -DE/DX =    0.0                 !
 ! R3    R(3,4)                  0.9847         -DE/DX =    0.0                 !
 ! A1    A(2,1,3)              103.4938         -DE/DX =    0.0                 !
 ! A2    A(1,3,4)              103.4929         -DE/DX =    0.0                 !
 ! D1    D(2,1,3,4)            100.1996         -DE/DX =    0.0                 !
 --------------------------------------------------------------------------------
 GradGradGradGradGradGradGradGradGradGradGradGradGradGradGradGradGradGrad

 1|1|UNPC-DESKTOP-319GPER|Freq|RM062X|LANL2DZ|H2O2|SAGAD|02-Feb-2021|0|
 |#N Geom=AllCheck Guess=TCheck SCRF=Check GenChk RM062X/LANL2DZ Freq||
 Hydrogen peroxide for catalyzed descompostion with KI||0,1|O,-1.334795
 7041,0.7447951811,0.0183885314|H,-1.6030825693,0.6690443976,-0.9259940
 433|O,0.1331601125,0.6900448577,-0.0366019629|H,0.4012956908,1.6344602
 836,0.0392716448||Version=IA32W-G09RevA.02|State=1-A|HF=-151.4950374|R
 MSD=1.263e-010|RMSF=3.972e-006|ZeroPoint=0.0260083|Thermal=0.0292612|D
 ipole=-0.0001513,0.9043683,-0.9042092|DipoleDeriv=-0.3570461,-0.012389
 8,-0.0084363,0.1151303,-0.6022696,0.0134664,-0.2293905,0.0223389,-0.20
 21568,0.3570253,0.0073288,0.013505,0.0158508,0.5421002,-0.0188176,0.09
 8439,-0.0170283,0.2623434,-0.3569892,-0.0084569,-0.0124321,-0.2294286,
 -0.2022003,0.0224417,0.1150523,0.013555,-0.6022754,0.35701,0.0135179,0
 .0073634,0.0984475,0.2623697,-0.0170905,0.0158992,-0.0188657,0.5420888
 |Polar=19.4847893,1.4182067,6.8860123,1.4163967,0.8141931,6.8858147|PG
 =C01 [X(H2O2)]|NImag=0||0.37005777,0.02192277,0.03148735,0.10531863,0.
 04333467,0.50047848,-0.06353710,-0.00512301,-0.07127707,0.09512178,-0.
 01226263,-0.00415815,-0.03743880,0.00948455,0.00544748,-0.13167517,-0.
 03783276,-0.46188664,0.11160716,0.03666010,0.45191052,-0.27846195,0.02
 116623,-0.02825142,-0.02805980,0.00514831,0.01864187,0.37002570,-0.028
 29542,-0.03758161,-0.00836994,-0.00578731,-0.00100889,0.00247601,0.105
 29604,0.50049656,0.02120118,-0.00828215,-0.03758472,-0.03796108,0.0027
 7149,0.01025700,0.02187955,0.04340315,0.03149841,-0.02805872,-0.037965
 99,-0.00579014,-0.00352488,-0.00237023,0.00142614,-0.06350395,-0.07121
 331,-0.00511965,0.09508754,0.01863528,0.01025242,0.00247408,0.00142576
 ,-0.00028044,-0.00130335,-0.13161057,-0.46190605,-0.03789249,0.1115495
 3,0.45193407,0.00515537,0.00278024,-0.00100711,-0.00236901,-0.00199279
 ,-0.00028088,-0.01227001,-0.03750922,-0.00417069,0.00948365,0.03672177
 ,0.00545868||0.00000027,0.00000009,-0.00000518,0.00000331,-0.00000680,
 -0.00000259,0.00000143,0.00000394,0.00000090,-0.00000501,0.00000278,0.
 00000688|||@


 "I COULD HAVE DONE IT IN A MUCH MORE COMPLICATED WAY"
 SAID THE RED QUEEN, IMMENSELY PROUD.

                                      -- LEWIS CARROLL
 Job cpu time:  0 days  0 hours  0 minutes  5.0 seconds.
 File lengths (MBytes):  RWF=     10 Int=      0 D2E=      0 Chk=      2 Scr=      1
 Normal termination of Gaussian 09 at Tue Feb 02 02:20:03 2021.
