 Entering Link 1 = C:\G09W\l1.exe PID=      9616.
  
 Copyright (c) 1988,1990,1992,1993,1995,1998,2003,2009, Gaussian, Inc.
                  All Rights Reserved.
  
 This is part of the Gaussian(R) 09 program.  It is based on
 the Gaussian(R) 03 system (copyright 2003, Gaussian, Inc.),
 the Gaussian(R) 98 system (copyright 1998, Gaussian, Inc.),
 the Gaussian(R) 94 system (copyright 1995, Gaussian, Inc.),
 the Gaussian 92(TM) system (copyright 1992, Gaussian, Inc.),
 the Gaussian 90(TM) system (copyright 1990, Gaussian, Inc.),
 the Gaussian 88(TM) system (copyright 1988, Gaussian, Inc.),
 the Gaussian 86(TM) system (copyright 1986, Carnegie Mellon
 University), and the Gaussian 82(TM) system (copyright 1983,
 Carnegie Mellon University). Gaussian is a federally registered
 trademark of Gaussian, Inc.
  
 This software contains proprietary and confidential information,
 including trade secrets, belonging to Gaussian, Inc.
  
 This software is provided under written license and may be
 used, copied, transmitted, or stored only in accord with that
 written license.
  
 The following legend is applicable only to US Government
 contracts under FAR:
  
                    RESTRICTED RIGHTS LEGEND
  
 Use, reproduction and disclosure by the US Government is
 subject to restrictions as set forth in subparagraphs (a)
 and (c) of the Commercial Computer Software - Restricted
 Rights clause in FAR 52.227-19.
  
 Gaussian, Inc.
 340 Quinnipiac St., Bldg. 40, Wallingford CT 06492
  
  
 ---------------------------------------------------------------
 Warning -- This program may not be used in any manner that
 competes with the business of Gaussian, Inc. or will provide
 assistance to any competitor of Gaussian, Inc.  The licensee
 of this program is prohibited from giving any competitor of
 Gaussian, Inc. access to this program.  By using this program,
 the user acknowledges that Gaussian, Inc. is engaged in the
 business of creating and licensing software in the field of
 computational chemistry and represents and warrants to the
 licensee that it is not a competitor of Gaussian, Inc. and that
 it will not use this program in any manner prohibited above.
 ---------------------------------------------------------------
  

 Cite this work as:
 Gaussian 09, Revision A.02,
 M. J. Frisch, G. W. Trucks, H. B. Schlegel, G. E. Scuseria, 
 M. A. Robb, J. R. Cheeseman, G. Scalmani, V. Barone, B. Mennucci, 
 G. A. Petersson, H. Nakatsuji, M. Caricato, X. Li, H. P. Hratchian, 
 A. F. Izmaylov, J. Bloino, G. Zheng, J. L. Sonnenberg, M. Hada, 
 M. Ehara, K. Toyota, R. Fukuda, J. Hasegawa, M. Ishida, T. Nakajima, 
 Y. Honda, O. Kitao, H. Nakai, T. Vreven, J. A. Montgomery, Jr., 
 J. E. Peralta, F. Ogliaro, M. Bearpark, J. J. Heyd, E. Brothers, 
 K. N. Kudin, V. N. Staroverov, R. Kobayashi, J. Normand, 
 K. Raghavachari, A. Rendell, J. C. Burant, S. S. Iyengar, J. Tomasi, 
 M. Cossi, N. Rega, J. M. Millam, M. Klene, J. E. Knox, J. B. Cross, 
 V. Bakken, C. Adamo, J. Jaramillo, R. Gomperts, R. E. Stratmann, 
 O. Yazyev, A. J. Austin, R. Cammi, C. Pomelli, J. W. Ochterski, 
 R. L. Martin, K. Morokuma, V. G. Zakrzewski, G. A. Voth, 
 P. Salvador, J. J. Dannenberg, S. Dapprich, A. D. Daniels, 
 O. Farkas, J. B. Foresman, J. V. Ortiz, J. Cioslowski, 
 and D. J. Fox, Gaussian, Inc., Wallingford CT, 2009.
 
 ******************************************
 Gaussian 09:  IA32W-G09RevA.02 11-Jun-2009
                08-Oct-2020 
 ******************************************
 %chk=C:\Users\sagad\Documents\rayGit\FQ\quimicaComputacional\class4Metilo\produc
 tos\methylRadicalHF.chk
 %nprocshared=4
 Will use up to    4 processors via shared memory.
 %mem=1500MB
 ------------------------
 #opt freq HF/6-31+g(d,p)
 ------------------------
 1/18=20,19=15,38=1/1,3;
 2/9=110,12=2,17=6,18=5,40=1/2;
 3/5=1,6=6,7=111,11=9,16=1,25=1,30=1,71=1/1,2,3;
 4//1;
 5/5=2,38=5/2;
 6/7=2,8=2,9=2,10=2,28=1/1;
 7//1,2,3,16;
 1/18=20,19=15/3(2);
 2/9=110/2;
 99//99;
 2/9=110/2;
 3/5=1,6=6,7=111,11=9,16=1,25=1,30=1,71=1/1,2,3;
 4/5=5,16=3/1;
 5/5=2,38=5/2;
 7//1,2,3,16;
 1/18=20,19=15/3(-5);
 2/9=110/2;
 6/7=2,8=2,9=2,10=2,19=2,28=1/1;
 99/9=1/99;
 -------------------------------------
 Calculation of methyl radical with HF
 -------------------------------------
 Symbolic Z-matrix:
 Charge =  0 Multiplicity = 2
 C                    -2.25517  -0.05327  -0.87365 
 H                    -1.89851  -1.06208  -0.87365 
 H                    -1.8985    0.45113   0. 
 H                    -1.8985    0.45113  -1.7473 
 

 GradGradGradGradGradGradGradGradGradGradGradGradGradGradGradGradGradGrad
 Berny optimization.
 Initialization pass.
                           ----------------------------
                           !    Initial Parameters    !
                           ! (Angstroms and Degrees)  !
 --------------------------                            --------------------------
 ! Name  Definition              Value          Derivative Info.                !
 --------------------------------------------------------------------------------
 ! R1    R(1,2)                  1.07           estimate D2E/DX2                !
 ! R2    R(1,3)                  1.07           estimate D2E/DX2                !
 ! R3    R(1,4)                  1.07           estimate D2E/DX2                !
 ! A1    A(2,1,3)              109.4712         estimate D2E/DX2                !
 ! A2    A(2,1,4)              109.4712         estimate D2E/DX2                !
 ! A3    A(3,1,4)              109.4713         estimate D2E/DX2                !
 ! D1    D(2,1,4,3)           -120.0            estimate D2E/DX2                !
 --------------------------------------------------------------------------------
 Trust Radius=3.00D-01 FncErr=1.00D-07 GrdErr=1.00D-07
 Number of steps in this run=  20 maximum allowed number of steps= 100.
 GradGradGradGradGradGradGradGradGradGradGradGradGradGradGradGradGradGrad

                          Input orientation:                          
 ---------------------------------------------------------------------
 Center     Atomic      Atomic             Coordinates (Angstroms)
 Number     Number       Type             X           Y           Z
 ---------------------------------------------------------------------
      1          6           0       -2.255169   -0.053270   -0.873652
      2          1           0       -1.898515   -1.062080   -0.873652
      3          1           0       -1.898496    0.451128    0.000000
      4          1           0       -1.898496    0.451128   -1.747303
 ---------------------------------------------------------------------
                    Distance matrix (angstroms):
                    1          2          3          4
     1  C    0.000000
     2  H    1.070000   0.000000
     3  H    1.070000   1.747302   0.000000
     4  H    1.070000   1.747302   1.747303   0.000000
 Stoichiometry    CH3(2)
 Framework group  C3V[C3(C),3SGV(H)]
 Deg. of freedom     2
 Full point group                 C3V     NOp   6
 Largest Abelian subgroup         CS      NOp   2
 Largest concise Abelian subgroup CS      NOp   2
                         Standard orientation:                         
 ---------------------------------------------------------------------
 Center     Atomic      Atomic             Coordinates (Angstroms)
 Number     Number       Type             X           Y           Z
 ---------------------------------------------------------------------
      1          6           0        0.000000    0.000000    0.118889
      2          1           0        0.000000    1.008806   -0.237778
      3          1           0       -0.873651   -0.504403   -0.237778
      4          1           0        0.873651   -0.504403   -0.237778
 ---------------------------------------------------------------------
 Rotational constants (GHZ):    273.8152949    273.8152949    164.2463825
 Standard basis: 6-31+G(d,p) (6D, 7F)
 There are    23 symmetry adapted basis functions of A'  symmetry.
 There are    11 symmetry adapted basis functions of A"  symmetry.
 Integral buffers will be    262144 words long.
 Raffenetti 2 integral format.
 Two-electron integral symmetry is turned on.
    34 basis functions,    53 primitive gaussians,    34 cartesian basis functions
     5 alpha electrons        4 beta electrons
       nuclear repulsion energy         9.8106085219 Hartrees.
 NAtoms=    4 NActive=    4 NUniq=    2 SFac= 3.00D+00 NAtFMM=   80 NAOKFM=F Big=F
 One-electron integrals computed using PRISM.
 NBasis=    34 RedAO= T  NBF=    23    11
 NBsUse=    34 1.00D-06 NBFU=    23    11
 Harris functional with IExCor=  205 diagonalized for initial guess.
 ExpMin= 4.38D-02 ExpMax= 3.05D+03 ExpMxC= 4.57D+02 IAcc=2 IRadAn=         0 AccDes= 0.00D+00
 HarFok:  IExCor=  205 AccDes= 0.00D+00 IRadAn=         0 IDoV= 1
 ScaDFX=  1.000000  1.000000  1.000000  1.000000
 FoFCou: FMM=F IPFlag=           0 FMFlag=      100000 FMFlg1=           0
         NFxFlg=           0 DoJE=T BraDBF=F KetDBF=T FulRan=T
         Omega=  0.000000  0.000000  1.000000  0.000000  0.000000 ICntrl=     500 IOpCl=  0
         NMat0=    1 NMatS0=    1 NMatT0=    0 NMatD0=    1 NMtDS0=    0 NMtDT0=    0
         I1Cent=           4 NGrid=           0.
 Petite list used in FoFCou.
 Initial guess orbital symmetries:
 Alpha Orbitals:
       Occupied  (A1) (A1) (E) (E) (A1)
       Virtual   (A1) (E) (E) (A1) (E) (E) (A1) (E) (E) (A1) (A1)
                 (E) (E) (A1) (E) (E) (A1) (A2) (E) (E) (E) (E)
                 (A1) (E) (E) (A1) (E) (E) (A1)
 Beta  Orbitals:
       Occupied  (A1) (A1) (E) (E)
       Virtual   (A1) (A1) (E) (E) (A1) (E) (E) (A1) (E) (E) (A1)
                 (A1) (E) (E) (A1) (E) (E) (A1) (A2) (E) (E) (E)
                 (E) (A1) (E) (E) (A1) (E) (E) (A1)
 The electronic state of the initial guess is 2-A1.
 Initial guess <Sx>= 0.0000 <Sy>= 0.0000 <Sz>= 0.5000 <S**2>= 0.7500 S= 0.5000
 Requested convergence on RMS density matrix=1.00D-08 within 128 cycles.
 Requested convergence on MAX density matrix=1.00D-06.
 Requested convergence on             energy=1.00D-06.
 No special actions if energy rises.
 Keep R1 and R2 ints in memory in canonical form, NReq=1196716.
 SCF Done:  E(UHF) =  -39.5554260266     A.U. after   12 cycles
             Convg  =    0.2978D-08             -V/T =  1.9993
 <Sx>= 0.0000 <Sy>= 0.0000 <Sz>= 0.5000 <S**2>= 0.7570 S= 0.5035
 <L.S>= 0.000000000000E+00
 Annihilation of the first spin contaminant:
 S**2 before annihilation     0.7570,   after     0.7500

 **********************************************************************

            Population analysis using the SCF density.

 **********************************************************************

 Orbital symmetries:
 Alpha Orbitals:
       Occupied  (A1) (A1) (E) (E) (A1)
       Virtual   (A1) (E) (E) (A1) (E) (E) (A1) (E) (E) (A1) (A1)
                 (E) (E) (A1) (E) (E) (A1) (A2) (E) (E) (E) (E)
                 (A1) (E) (E) (A1) (E) (E) (A1)
 Beta  Orbitals:
       Occupied  (A1) (A1) (E) (E)
       Virtual   (A1) (A1) (E) (E) (A1) (E) (E) (A1) (E) (E) (A1)
                 (A1) (E) (E) (A1) (E) (E) (A1) (A2) (E) (E) (E)
                 (E) (A1) (E) (E) (A1) (E) (E) (A1)
 The electronic state is 2-A1.
 Alpha  occ. eigenvalues --  -11.24155  -0.96050  -0.56992  -0.56992  -0.42609
 Alpha virt. eigenvalues --    0.09258   0.12060   0.12060   0.13090   0.33226
 Alpha virt. eigenvalues --    0.33226   0.37989   0.83422   0.83422   0.85783
 Alpha virt. eigenvalues --    1.09180   1.17009   1.17009   1.29804   1.65659
 Alpha virt. eigenvalues --    1.65659   2.04376   2.34797   2.40771   2.40771
 Alpha virt. eigenvalues --    2.64409   2.64409   2.94804   3.18253   3.18253
 Alpha virt. eigenvalues --    3.61201   3.82488   3.82488   4.68061
  Beta  occ. eigenvalues --  -11.21655  -0.88033  -0.55071  -0.55071
  Beta virt. eigenvalues --    0.06288   0.09863   0.12215   0.12215   0.21974
  Beta virt. eigenvalues --    0.35286   0.35286   0.39433   0.84913   0.84913
  Beta virt. eigenvalues --    0.97828   1.13083   1.18683   1.18683   1.31481
  Beta virt. eigenvalues --    1.70915   1.70915   2.12155   2.34526   2.41696
  Beta virt. eigenvalues --    2.41696   2.67187   2.67187   2.96584   3.19679
  Beta virt. eigenvalues --    3.19679   3.61921   3.83714   3.83714   4.71767
          Condensed to atoms (all electrons):
              1          2          3          4
     1  C    5.208790   0.388903   0.388903   0.388903
     2  H    0.388903   0.555264  -0.034667  -0.034667
     3  H    0.388903  -0.034667   0.555264  -0.034667
     4  H    0.388903  -0.034667  -0.034667   0.555264
 Mulliken atomic charges:
              1
     1  C   -0.375499
     2  H    0.125166
     3  H    0.125166
     4  H    0.125166
 Sum of Mulliken atomic charges =   0.00000
 Mulliken charges with hydrogens summed into heavy atoms:
              1
     1  C    0.000000
 Sum of Mulliken charges with hydrogens summed into heavy atoms =   0.00000
          Atomic-Atomic Spin Densities.
              1          2          3          4
     1  C    1.265465  -0.015737  -0.015737  -0.015737
     2  H   -0.015737  -0.065608   0.004297   0.004297
     3  H   -0.015737   0.004297  -0.065608   0.004297
     4  H   -0.015737   0.004297   0.004297  -0.065608
 Mulliken atomic spin densities:
              1
     1  C    1.218255
     2  H   -0.072752
     3  H   -0.072752
     4  H   -0.072752
 Sum of Mulliken atomic spin densities =   1.00000
 Electronic spatial extent (au):  <R**2>=             29.4693
 Charge=              0.0000 electrons
 Dipole moment (field-independent basis, Debye):
    X=              0.0000    Y=              0.0000    Z=             -0.6435  Tot=              0.6435
 Quadrupole moment (field-independent basis, Debye-Ang):
   XX=             -7.6035   YY=             -7.6035   ZZ=             -8.5436
   XY=              0.0000   XZ=              0.0000   YZ=              0.0000
 Traceless Quadrupole moment (field-independent basis, Debye-Ang):
   XX=              0.3134   YY=              0.3134   ZZ=             -0.6267
   XY=              0.0000   XZ=              0.0000   YZ=              0.0000
 Octapole moment (field-independent basis, Debye-Ang**2):
  XXX=              0.0000  YYY=              0.5179  ZZZ=             -1.1122  XYY=              0.0000
  XXY=             -0.5179  XXZ=             -0.6562  XZZ=              0.0000  YZZ=              0.0000
  YYZ=             -0.6562  XYZ=              0.0000
 Hexadecapole moment (field-independent basis, Debye-Ang**3):
 XXXX=            -14.8285 YYYY=            -14.8285 ZZZZ=            -11.7011 XXXY=              0.0000
 XXXZ=              0.0000 YYYX=              0.0000 YYYZ=             -0.2683 ZZZX=              0.0000
 ZZZY=              0.0000 XXYY=             -4.9428 XXZZ=             -4.4951 YYZZ=             -4.4951
 XXYZ=              0.2683 YYXZ=              0.0000 ZZXY=              0.0000
 N-N= 9.810608521898D+00 E-N=-1.640196283905D+02  KE= 5.874065262103D+01
 Symmetry A'   KE= 5.582981054421D+01
 Symmetry A"   KE= 2.910842076817D+00
                          Isotropic Fermi Contact Couplings
        Atom                 a.u.       MegaHertz       Gauss      10(-4) cm-1
     1  C(13)              0.37115     417.24280     148.88260     139.17722
     2  H(1)              -0.01607     -71.83825     -25.63367     -23.96266
     3  H(1)              -0.01607     -71.83825     -25.63367     -23.96266
     4  H(1)              -0.01607     -71.83825     -25.63367     -23.96266
 --------------------------------------------------------
       Center         ----  Spin Dipole Couplings  ----
                      3XX-RR        3YY-RR        3ZZ-RR
 --------------------------------------------------------
     1   Atom       -0.461453     -0.461453      0.922906
     2   Atom       -0.067580      0.063658      0.003922
     3   Atom        0.030848     -0.034771      0.003922
     4   Atom        0.030848     -0.034771      0.003922
 --------------------------------------------------------
                        XY            XZ            YZ
 --------------------------------------------------------
     1   Atom        0.000000      0.000000      0.000000
     2   Atom        0.000000      0.000000     -0.032466
     3   Atom        0.056828      0.028116      0.016233
     4   Atom       -0.056828     -0.028116      0.016233
 --------------------------------------------------------


 ---------------------------------------------------------------------------------
              Anisotropic Spin Dipole Couplings in Principal Axis System
 ---------------------------------------------------------------------------------

       Atom             a.u.   MegaHertz   Gauss  10(-4) cm-1        Axes

              Baa    -0.4615   -61.923   -22.096   -20.655 -0.6225  0.7826  0.0000
     1 C(13)  Bbb    -0.4615   -61.923   -22.096   -20.655  0.7826  0.6225  0.0000
              Bcc     0.9229   123.845    44.191    41.310  0.0000  0.0000  1.0000
 
              Baa    -0.0676   -36.058   -12.866   -12.028  1.0000  0.0000  0.0000
     2 H(1)   Bbb    -0.0103    -5.509    -1.966    -1.838  0.0000  0.4018  0.9157
              Bcc     0.0779    41.566    14.832    13.865  0.0000  0.9157 -0.4018
 
              Baa    -0.0676   -36.058   -12.866   -12.028 -0.5000  0.8660  0.0000
     3 H(1)   Bbb    -0.0103    -5.509    -1.966    -1.838 -0.3480 -0.2009  0.9157
              Bcc     0.0779    41.566    14.832    13.865  0.7930  0.4579  0.4018
 
              Baa    -0.0676   -36.058   -12.866   -12.028  0.5000  0.8660  0.0000
     4 H(1)   Bbb    -0.0103    -5.509    -1.966    -1.838  0.3480 -0.2009  0.9157
              Bcc     0.0779    41.566    14.832    13.865  0.7930 -0.4579 -0.4018
 

 ---------------------------------------------------------------------------------

 Calling FoFJK, ICntrl=      2127 FMM=F ISym2X=1 I1Cent= 0 IOpClX= 1 NMat=1 NMatS=1 NMatT=0.
 ***** Axes restored to original set *****
 -------------------------------------------------------------------
 Center     Atomic                   Forces (Hartrees/Bohr)
 Number     Number              X              Y              Z
 -------------------------------------------------------------------
      1        6           0.037748111   -0.000000455    0.000000000
      2        1          -0.012582874   -0.014147707   -0.000000001
      3        1          -0.012582618    0.007074080    0.012252406
      4        1          -0.012582618    0.007074082   -0.012252404
 -------------------------------------------------------------------
 Cartesian Forces:  Max     0.037748111 RMS     0.014434850

 GradGradGradGradGradGradGradGradGradGradGradGradGradGradGradGradGradGrad
 Berny optimization.
 Internal  Forces:  Max     0.025265871 RMS     0.014868675
 Search for a local minimum.
 Step number   1 out of a maximum of   20
 All quantities printed in internal units (Hartrees-Bohrs-Radians)
 Mixed Optimization -- RFO/linear search
 Second derivative matrix not updated -- first step.
 The second derivative matrix:
                          R1        R2        R3        A1        A2
           R1           0.37230
           R2           0.00000   0.37230
           R3           0.00000   0.00000   0.37230
           A1           0.00000   0.00000   0.00000   0.16000
           A2           0.00000   0.00000   0.00000   0.00000   0.16000
           A3           0.00000   0.00000   0.00000   0.00000   0.00000
           D1           0.00000   0.00000   0.00000   0.00000   0.00000
                          A3        D1
           A3           0.16000
           D1           0.00000   0.00499
     Eigenvalues ---    0.05269   0.16000   0.16000   0.37230   0.37230
     Eigenvalues ---    0.372301000.00000
 RFO step:  Lambda=-1.61643249D-02 EMin= 5.26880928D-02
 Linear search not attempted -- first point.
 Maximum step size (   0.300) exceeded in Quadratic search.
    -- Step size scaled by   0.657
 Iteration  1 RMS(Cart)=  0.07259663 RMS(Int)=  0.01720613
 Iteration  2 RMS(Cart)=  0.00743006 RMS(Int)=  0.01071821
 Iteration  3 RMS(Cart)=  0.00022888 RMS(Int)=  0.01071494
 Iteration  4 RMS(Cart)=  0.00000454 RMS(Int)=  0.01071494
 Iteration  5 RMS(Cart)=  0.00000010 RMS(Int)=  0.01071494
 ClnCor:  largest displacement from symmetrization is 1.15D-02 for atom     4.
 Variable       Old X    -DE/DX   Delta X   Delta X   Delta X     New X
                                 (Linear)    (Quad)   (Total)
    R1        2.02201   0.00914   0.00000   0.01548   0.01201   2.03402
    R2        2.02201   0.00914   0.00000   0.01548   0.01201   2.03402
    R3        2.02201   0.00914   0.00000   0.01548   0.01201   2.03402
    A1        1.91063   0.00258   0.00000   0.08962   0.08609   1.99672
    A2        1.91063   0.01805   0.00000   0.10736   0.08609   1.99672
    A3        1.91063   0.01805   0.00000   0.10736   0.08609   1.99672
    D1       -2.09440  -0.02527   0.00000  -0.24124  -0.25749  -2.35188
         Item               Value     Threshold  Converged?
 Maximum Force            0.025266     0.000450     NO 
 RMS     Force            0.014869     0.000300     NO 
 Maximum Displacement     0.139114     0.001800     NO 
 RMS     Displacement     0.075016     0.001200     NO 
 Predicted change in Energy=-8.140286D-03
 GradGradGradGradGradGradGradGradGradGradGradGradGradGradGradGradGradGrad

                          Input orientation:                          
 ---------------------------------------------------------------------
 Center     Atomic      Atomic             Coordinates (Angstroms)
 Number     Number       Type             X           Y           Z
 ---------------------------------------------------------------------
      1          6           0       -2.181553   -0.053271   -0.873652
      2          1           0       -1.922588   -1.098011   -0.873652
      3          1           0       -1.922569    0.469094    0.031117
      4          1           0       -1.922569    0.469094   -1.778420
 ---------------------------------------------------------------------
                    Distance matrix (angstroms):
                    1          2          3          4
     1  C    0.000000
     2  H    1.076356   0.000000
     3  H    1.076356   1.809536   0.000000
     4  H    1.076356   1.809536   1.809536   0.000000
 Stoichiometry    CH3(2)
 Framework group  C3V[C3(C),3SGV(H)]
 Deg. of freedom     2
 Full point group                 C3V     NOp   6
 Largest Abelian subgroup         CS      NOp   2
 Largest concise Abelian subgroup CS      NOp   2
                         Standard orientation:                         
 ---------------------------------------------------------------------
 Center     Atomic      Atomic             Coordinates (Angstroms)
 Number     Number       Type             X           Y           Z
 ---------------------------------------------------------------------
      1          6           0        0.000000    0.000000    0.086326
      2          1           0        0.000000    1.044736   -0.172652
      3          1           0       -0.904768   -0.522368   -0.172652
      4          1           0        0.904768   -0.522368   -0.172652
 ---------------------------------------------------------------------
 Rotational constants (GHZ):    278.9075900    278.9075900    153.1431358
 Standard basis: 6-31+G(d,p) (6D, 7F)
 There are    23 symmetry adapted basis functions of A'  symmetry.
 There are    11 symmetry adapted basis functions of A"  symmetry.
 Integral buffers will be    262144 words long.
 Raffenetti 2 integral format.
 Two-electron integral symmetry is turned on.
    34 basis functions,    53 primitive gaussians,    34 cartesian basis functions
     5 alpha electrons        4 beta electrons
       nuclear repulsion energy         9.7267897934 Hartrees.
 NAtoms=    4 NActive=    4 NUniq=    2 SFac= 3.00D+00 NAtFMM=   80 NAOKFM=F Big=F
 One-electron integrals computed using PRISM.
 NBasis=    34 RedAO= T  NBF=    23    11
 NBsUse=    34 1.00D-06 NBFU=    23    11
 Initial guess read from the read-write file.
 B after Tr=     0.000000    0.000000    0.000000
         Rot=    1.000000    0.000000    0.000000    0.000000 Ang=   0.00 deg.
 Initial guess orbital symmetries:
 Alpha Orbitals:
       Occupied  (A1) (A1) (E) (E) (A1)
       Virtual   (A1) (E) (E) (A1) (E) (E) (A1) (E) (E) (A1) (A1)
                 (E) (E) (A1) (E) (E) (A1) (A2) (E) (E) (E) (E)
                 (A1) (E) (E) (A1) (E) (E) (A1)
 Beta  Orbitals:
       Occupied  (A1) (A1) (E) (E)
       Virtual   (A1) (A1) (E) (E) (A1) (E) (E) (A1) (E) (E) (A1)
                 (A1) (E) (E) (A1) (E) (E) (A1) (A2) (E) (E) (E)
                 (E) (A1) (E) (E) (A1) (E) (E) (A1)
 Initial guess <Sx>= 0.0000 <Sy>= 0.0000 <Sz>= 0.5000 <S**2>= 0.7574 S= 0.5037
 Harris functional with IExCor=  205 diagonalized for initial guess.
 ExpMin= 4.38D-02 ExpMax= 3.05D+03 ExpMxC= 4.57D+02 IAcc=2 IRadAn=         0 AccDes= 0.00D+00
 HarFok:  IExCor=  205 AccDes= 0.00D+00 IRadAn=         0 IDoV= 1
 ScaDFX=  1.000000  1.000000  1.000000  1.000000
 FoFCou: FMM=F IPFlag=           0 FMFlag=      100000 FMFlg1=           0
         NFxFlg=           0 DoJE=T BraDBF=F KetDBF=T FulRan=T
         Omega=  0.000000  0.000000  1.000000  0.000000  0.000000 ICntrl=     500 IOpCl=  0
         NMat0=    1 NMatS0=    1 NMatT0=    0 NMatD0=    1 NMtDS0=    0 NMtDT0=    0
         I1Cent=           4 NGrid=           0.
 Petite list used in FoFCou.
 Requested convergence on RMS density matrix=1.00D-08 within 128 cycles.
 Requested convergence on MAX density matrix=1.00D-06.
 Requested convergence on             energy=1.00D-06.
 No special actions if energy rises.
 Keep R1 and R2 ints in memory in canonical form, NReq=1196716.
 SCF Done:  E(UHF) =  -39.5626720321     A.U. after   12 cycles
             Convg  =    0.5232D-08             -V/T =  2.0005
 <Sx>= 0.0000 <Sy>= 0.0000 <Sz>= 0.5000 <S**2>= 0.7580 S= 0.5040
 <L.S>= 0.000000000000E+00
 Annihilation of the first spin contaminant:
 S**2 before annihilation     0.7580,   after     0.7500
 Calling FoFJK, ICntrl=      2127 FMM=F ISym2X=1 I1Cent= 0 IOpClX= 1 NMat=1 NMatS=1 NMatT=0.
 ***** Axes restored to original set *****
 -------------------------------------------------------------------
 Center     Atomic                   Forces (Hartrees/Bohr)
 Number     Number              X              Y              Z
 -------------------------------------------------------------------
      1        6           0.022163952   -0.000000267    0.000000000
      2        1          -0.007388023   -0.003209682    0.000000000
      3        1          -0.007387965    0.001604974    0.002779743
      4        1          -0.007387965    0.001604975   -0.002779743
 -------------------------------------------------------------------
 Cartesian Forces:  Max     0.022163952 RMS     0.007560289

 GradGradGradGradGradGradGradGradGradGradGradGradGradGradGradGradGradGrad
 Berny optimization.
 Using GEDIIS/GDIIS optimizer.
 Internal  Forces:  Max     0.013572617 RMS     0.006176783
 Search for a local minimum.
 Step number   2 out of a maximum of   20
 All quantities printed in internal units (Hartrees-Bohrs-Radians)
 Mixed Optimization -- RFO/linear search
 Update second derivatives using D2CorX and points    1    2
 DE= -7.25D-03 DEPred=-8.14D-03 R= 8.90D-01
 SS=  1.41D+00  RLast= 2.98D-01 DXNew= 5.0454D-01 8.9482D-01
 Trust test= 8.90D-01 RLast= 2.98D-01 DXMaxT set to 5.05D-01
 The second derivative matrix:
                          R1        R2        R3        A1        A2
           R1           0.37834
           R2           0.00604   0.37834
           R3           0.00604   0.00604   0.37834
           A1          -0.01160  -0.01160  -0.01160   0.11434
           A2           0.00143   0.00143   0.00143  -0.04138   0.13835
           A3           0.00143   0.00143   0.00143  -0.04138  -0.02165
           D1          -0.01503  -0.01503  -0.01503  -0.00103  -0.02055
                          A3        D1
           A3           0.13835
           D1          -0.02055   0.02923
 Use linear search instead of GDIIS.
     Eigenvalues ---    0.04668   0.16000   0.17504   0.37230   0.37230
     Eigenvalues ---    0.392891000.00000
 RFO step:  Lambda=-8.31059300D-04 EMin= 4.66752803D-02
 Quartic linear search produced a step of  1.21395.
 Iteration  1 RMS(Cart)=  0.05756432 RMS(Int)=  0.06373145
 Iteration  2 RMS(Cart)=  0.03071377 RMS(Int)=  0.02954863
 Iteration  3 RMS(Cart)=  0.00225944 RMS(Int)=  0.02941326
 Iteration  4 RMS(Cart)=  0.00007520 RMS(Int)=  0.02941303
 Iteration  5 RMS(Cart)=  0.00000363 RMS(Int)=  0.02941303
 Iteration  6 RMS(Cart)=  0.00000017 RMS(Int)=  0.02941303
 ClnCor:  largest displacement from symmetrization is 1.98D-02 for atom     4.
 Variable       Old X    -DE/DX   Delta X   Delta X   Delta X     New X
                                 (Linear)    (Quad)   (Total)
    R1        2.03402   0.00134   0.01458  -0.02113  -0.00036   2.03366
    R2        2.03402   0.00134   0.01458  -0.02113  -0.00036   2.03366
    R3        2.03402   0.00134   0.01458  -0.02113  -0.00036   2.03366
    A1        1.99672   0.00001   0.10451   0.04450   0.07384   2.07056
    A2        1.99672   0.00622   0.10451  -0.00296   0.07384   2.07056
    A3        1.99672   0.00622   0.10451  -0.00296   0.07384   2.07056
    D1       -2.35188  -0.01357  -0.31258  -0.06239  -0.38745  -2.73933
         Item               Value     Threshold  Converged?
 Maximum Force            0.013573     0.000450     NO 
 RMS     Force            0.006177     0.000300     NO 
 Maximum Displacement     0.186720     0.001800     NO 
 RMS     Displacement     0.087035     0.001200     NO 
 Predicted change in Energy=-2.287400D-03
 GradGradGradGradGradGradGradGradGradGradGradGradGradGradGradGradGradGrad

                          Input orientation:                          
 ---------------------------------------------------------------------
 Center     Atomic      Atomic             Coordinates (Angstroms)
 Number     Number       Type             X           Y           Z
 ---------------------------------------------------------------------
      1          6           0       -2.082745   -0.053273   -0.873652
      2          1           0       -1.956078   -1.121961   -0.873652
      3          1           0       -1.956059    0.481069    0.051858
      4          1           0       -1.956059    0.481069   -1.799161
 ---------------------------------------------------------------------
                    Distance matrix (angstroms):
                    1          2          3          4
     1  C    0.000000
     2  H    1.076168   0.000000
     3  H    1.076168   1.851019   0.000000
     4  H    1.076168   1.851019   1.851019   0.000000
 Stoichiometry    CH3(2)
 Framework group  C3V[C3(C),3SGV(H)]
 Deg. of freedom     2
 Full point group                 C3V     NOp   6
 Largest Abelian subgroup         CS      NOp   2
 Largest concise Abelian subgroup CS      NOp   2
                         Standard orientation:                         
 ---------------------------------------------------------------------
 Center     Atomic      Atomic             Coordinates (Angstroms)
 Number     Number       Type             X           Y           Z
 ---------------------------------------------------------------------
      1          6           0        0.000000    0.000000    0.042227
      2          1           0        0.000000    1.068687   -0.084453
      3          1           0       -0.925510   -0.534343   -0.084453
      4          1           0        0.925510   -0.534343   -0.084453
 ---------------------------------------------------------------------
 Rotational constants (GHZ):    286.2855449    286.2855449    146.3558682
 Standard basis: 6-31+G(d,p) (6D, 7F)
 There are    23 symmetry adapted basis functions of A'  symmetry.
 There are    11 symmetry adapted basis functions of A"  symmetry.
 Integral buffers will be    262144 words long.
 Raffenetti 2 integral format.
 Two-electron integral symmetry is turned on.
    34 basis functions,    53 primitive gaussians,    34 cartesian basis functions
     5 alpha electrons        4 beta electrons
       nuclear repulsion energy         9.7086735299 Hartrees.
 NAtoms=    4 NActive=    4 NUniq=    2 SFac= 3.00D+00 NAtFMM=   80 NAOKFM=F Big=F
 One-electron integrals computed using PRISM.
 NBasis=    34 RedAO= T  NBF=    23    11
 NBsUse=    34 1.00D-06 NBFU=    23    11
 Initial guess read from the read-write file.
 B after Tr=     0.000000    0.000000    0.000000
         Rot=    1.000000    0.000000    0.000000    0.000000 Ang=   0.00 deg.
 Initial guess orbital symmetries:
 Alpha Orbitals:
       Occupied  (A1) (A1) (E) (E) (A1)
       Virtual   (A1) (E) (E) (A1) (E) (E) (A1) (E) (E) (A1) (A1)
                 (E) (E) (A1) (E) (E) (A1) (A2) (E) (E) (E) (E)
                 (A1) (E) (E) (A1) (E) (E) (A1)
 Beta  Orbitals:
       Occupied  (A1) (A1) (E) (E)
       Virtual   (A1) (A1) (E) (E) (A1) (E) (E) (A1) (E) (E) (A1)
                 (A1) (E) (E) (A1) (E) (E) (A1) (A2) (E) (E) (E)
                 (E) (A1) (E) (E) (A1) (E) (E) (A1)
 Initial guess <Sx>= 0.0000 <Sy>= 0.0000 <Sz>= 0.5000 <S**2>= 0.7586 S= 0.5043
 Harris functional with IExCor=  205 diagonalized for initial guess.
 ExpMin= 4.38D-02 ExpMax= 3.05D+03 ExpMxC= 4.57D+02 IAcc=2 IRadAn=         0 AccDes= 0.00D+00
 HarFok:  IExCor=  205 AccDes= 0.00D+00 IRadAn=         0 IDoV= 1
 ScaDFX=  1.000000  1.000000  1.000000  1.000000
 FoFCou: FMM=F IPFlag=           0 FMFlag=      100000 FMFlg1=           0
         NFxFlg=           0 DoJE=T BraDBF=F KetDBF=T FulRan=T
         Omega=  0.000000  0.000000  1.000000  0.000000  0.000000 ICntrl=     500 IOpCl=  0
         NMat0=    1 NMatS0=    1 NMatT0=    0 NMatD0=    1 NMtDS0=    0 NMtDT0=    0
         I1Cent=           4 NGrid=           0.
 Petite list used in FoFCou.
 Requested convergence on RMS density matrix=1.00D-08 within 128 cycles.
 Requested convergence on MAX density matrix=1.00D-06.
 Requested convergence on             energy=1.00D-06.
 No special actions if energy rises.
 Keep R1 and R2 ints in memory in canonical form, NReq=1196716.
 SCF Done:  E(UHF) =  -39.5661072318     A.U. after   12 cycles
             Convg  =    0.7616D-08             -V/T =  2.0010
 <Sx>= 0.0000 <Sy>= 0.0000 <Sz>= 0.5000 <S**2>= 0.7597 S= 0.5049
 <L.S>= 0.000000000000E+00
 Annihilation of the first spin contaminant:
 S**2 before annihilation     0.7597,   after     0.7501
 Calling FoFJK, ICntrl=      2127 FMM=F ISym2X=1 I1Cent= 0 IOpClX= 1 NMat=1 NMatS=1 NMatT=0.
 ***** Axes restored to original set *****
 -------------------------------------------------------------------
 Center     Atomic                   Forces (Hartrees/Bohr)
 Number     Number              X              Y              Z
 -------------------------------------------------------------------
      1        6           0.006268784   -0.000000076    0.000000000
      2        1          -0.002089581    0.001167666    0.000000000
      3        1          -0.002089602   -0.000583795   -0.001011206
      4        1          -0.002089602   -0.000583795    0.001011206
 -------------------------------------------------------------------
 Cartesian Forces:  Max     0.006268784 RMS     0.002169620

 GradGradGradGradGradGradGradGradGradGradGradGradGradGradGradGradGradGrad
 Berny optimization.
 Using GEDIIS/GDIIS optimizer.
 Internal  Forces:  Max     0.003423565 RMS     0.001630995
 Search for a local minimum.
 Step number   3 out of a maximum of   20
 All quantities printed in internal units (Hartrees-Bohrs-Radians)
 Mixed Optimization -- RFO/linear search
 Update second derivatives using D2CorX and points    2    3
 DE= -3.44D-03 DEPred=-2.29D-03 R= 1.50D+00
 SS=  1.41D+00  RLast= 4.08D-01 DXNew= 8.4853D-01 1.2240D+00
 Trust test= 1.50D+00 RLast= 4.08D-01 DXMaxT set to 8.49D-01
 The second derivative matrix:
                          R1        R2        R3        A1        A2
           R1           0.37666
           R2           0.00436   0.37666
           R3           0.00436   0.00436   0.37666
           A1          -0.01331  -0.01331  -0.01331   0.11337
           A2          -0.00414  -0.00414  -0.00414  -0.04602   0.12129
           A3          -0.00414  -0.00414  -0.00414  -0.04602  -0.03871
           D1          -0.01155  -0.01155  -0.01155   0.00381  -0.00729
                          A3        D1
           A3           0.12129
           D1          -0.00729   0.02417
 Use linear search instead of GDIIS.
     Eigenvalues ---    0.02560   0.16000   0.16470   0.37230   0.37230
     Eigenvalues ---    0.386731000.00000
 RFO step:  Lambda=-2.70443409D-04 EMin= 2.56029013D-02
 Quartic linear search produced a step of  1.05713.
 Iteration  1 RMS(Cart)=  0.04423843 RMS(Int)=  0.09336213
 Iteration  2 RMS(Cart)=  0.04052037 RMS(Int)=  0.03832221
 Iteration  3 RMS(Cart)=  0.00338360 RMS(Int)=  0.03800188
 Iteration  4 RMS(Cart)=  0.00011872 RMS(Int)=  0.03800121
 Iteration  5 RMS(Cart)=  0.00000613 RMS(Int)=  0.03800121
 Iteration  6 RMS(Cart)=  0.00000032 RMS(Int)=  0.03800121
 ClnCor:  largest displacement from symmetrization is 1.39D-02 for atom     4.
 Variable       Old X    -DE/DX   Delta X   Delta X   Delta X     New X
                                 (Linear)    (Quad)   (Total)
    R1        2.03366  -0.00141  -0.00038  -0.01151  -0.00735   2.02632
    R2        2.03366  -0.00141  -0.00038  -0.01151  -0.00735   2.02632
    R3        2.03366  -0.00141  -0.00038  -0.01151  -0.00735   2.02632
    A1        2.07056  -0.00010   0.07805   0.02481   0.02359   2.09415
    A2        2.07056   0.00069   0.07805  -0.00703   0.02359   2.09415
    A3        2.07056   0.00069   0.07805  -0.00703   0.02359   2.09415
    D1       -2.73933  -0.00342  -0.40959  -0.03458  -0.44337   3.10048
         Item               Value     Threshold  Converged?
 Maximum Force            0.003424     0.000450     NO 
 RMS     Force            0.001631     0.000300     NO 
 Maximum Displacement     0.197201     0.001800     NO 
 RMS     Displacement     0.086342     0.001200     NO 
 Predicted change in Energy=-8.652015D-04
 GradGradGradGradGradGradGradGradGradGradGradGradGradGradGradGradGradGrad

                          Input orientation:                          
 ---------------------------------------------------------------------
 Center     Atomic      Atomic             Coordinates (Angstroms)
 Number     Number       Type             X           Y           Z
 ---------------------------------------------------------------------
      1          6           0       -1.978391   -0.053274   -0.873652
      2          1           0       -1.991132   -1.125480   -0.873652
      3          1           0       -1.991112    0.482829    0.054906
      4          1           0       -1.991112    0.482829   -1.802209
 ---------------------------------------------------------------------
                    Distance matrix (angstroms):
                    1          2          3          4
     1  C    0.000000
     2  H    1.072281   0.000000
     3  H    1.072281   1.857115   0.000000
     4  H    1.072281   1.857115   1.857115   0.000000
 Stoichiometry    CH3(2)
 Framework group  C3V[C3(C),3SGV(H)]
 Deg. of freedom     2
 Full point group                 C3V     NOp   6
 Largest Abelian subgroup         CS      NOp   2
 Largest concise Abelian subgroup CS      NOp   2
                         Standard orientation:                         
 ---------------------------------------------------------------------
 Center     Atomic      Atomic             Coordinates (Angstroms)
 Number     Number       Type             X           Y           Z
 ---------------------------------------------------------------------
      1          6           0        0.000000    0.000000    0.004243
      2          1           0        0.000000    1.072206   -0.008485
      3          1           0        0.928558   -0.536103   -0.008485
      4          1           0       -0.928558   -0.536103   -0.008485
 ---------------------------------------------------------------------
 Rotational constants (GHZ):    290.7278607    290.7278607    145.3966525
 Standard basis: 6-31+G(d,p) (6D, 7F)
 There are    23 symmetry adapted basis functions of A'  symmetry.
 There are    11 symmetry adapted basis functions of A"  symmetry.
 Integral buffers will be    262144 words long.
 Raffenetti 2 integral format.
 Two-electron integral symmetry is turned on.
    34 basis functions,    53 primitive gaussians,    34 cartesian basis functions
     5 alpha electrons        4 beta electrons
       nuclear repulsion energy         9.7379435019 Hartrees.
 NAtoms=    4 NActive=    4 NUniq=    2 SFac= 3.00D+00 NAtFMM=   80 NAOKFM=F Big=F
 One-electron integrals computed using PRISM.
 NBasis=    34 RedAO= T  NBF=    23    11
 NBsUse=    34 1.00D-06 NBFU=    23    11
 Initial guess read from the read-write file.
 B after Tr=     0.000000    0.000000    0.000000
         Rot=    1.000000    0.000000    0.000000    0.000000 Ang=   0.00 deg.
 Initial guess orbital symmetries:
 Alpha Orbitals:
       Occupied  (A1) (?A) (?A) (?A) (A1)
       Virtual   (?A) (?A) (?A) (A1) (?A) (?A) (?A) (?A) (?A) (?A)
                 (?A) (?A) (?A) (?A) (?A) (?A) (?A) (?A) (?A) (?A)
                 (?A) (?A) (?A) (?A) (?A) (?A) (?A) (?A) (?A)
 Beta  Orbitals:
       Occupied  (A1) (?A) (?A) (?A)
       Virtual   (?A) (?A) (?A) (?A) (?A) (?A) (?A) (?A) (?A) (?A)
                 (?A) (?A) (?A) (?A) (?A) (?A) (?A) (?A) (?A) (?A)
                 (?A) (?A) (?A) (?A) (?A) (?A) (?A) (?A) (?A) (?A)
 Initial guess <Sx>= 0.0000 <Sy>= 0.0000 <Sz>= 0.5000 <S**2>= 0.8194 S= 0.5341
 Harris functional with IExCor=  205 diagonalized for initial guess.
 ExpMin= 4.38D-02 ExpMax= 3.05D+03 ExpMxC= 4.57D+02 IAcc=2 IRadAn=         0 AccDes= 0.00D+00
 HarFok:  IExCor=  205 AccDes= 0.00D+00 IRadAn=         0 IDoV= 1
 ScaDFX=  1.000000  1.000000  1.000000  1.000000
 FoFCou: FMM=F IPFlag=           0 FMFlag=      100000 FMFlg1=           0
         NFxFlg=           0 DoJE=T BraDBF=F KetDBF=T FulRan=T
         Omega=  0.000000  0.000000  1.000000  0.000000  0.000000 ICntrl=     500 IOpCl=  0
         NMat0=    1 NMatS0=    1 NMatT0=    0 NMatD0=    1 NMtDS0=    0 NMtDT0=    0
         I1Cent=           4 NGrid=           0.
 Petite list used in FoFCou.
 Requested convergence on RMS density matrix=1.00D-08 within 128 cycles.
 Requested convergence on MAX density matrix=1.00D-06.
 Requested convergence on             energy=1.00D-06.
 No special actions if energy rises.
 Keep R1 and R2 ints in memory in canonical form, NReq=1196716.
 Density matrix breaks symmetry, PCut= 1.00D-04
 Density has only Abelian symmetry.
 Density matrix breaks symmetry, PCut= 1.00D-07
 Density has only Abelian symmetry.
 Density matrix breaks symmetry, PCut= 1.00D-07
 Density has only Abelian symmetry.
 Density matrix breaks symmetry, PCut= 1.00D-07
 Density has only Abelian symmetry.
 Density matrix breaks symmetry, PCut= 1.00D-07
 Density has only Abelian symmetry.
 Density matrix breaks symmetry, PCut= 1.00D-07
 Density has only Abelian symmetry.
 Density matrix breaks symmetry, PCut= 1.00D-07
 Density has only Abelian symmetry.
 Density matrix breaks symmetry, PCut= 1.00D-07
 Density has only Abelian symmetry.
 Density matrix breaks symmetry, PCut= 1.00D-07
 Density has only Abelian symmetry.
 Density matrix breaks symmetry, PCut= 1.00D-07
 Density has only Abelian symmetry.
 Density matrix breaks symmetry, PCut= 1.00D-07
 Density has only Abelian symmetry.
 SCF Done:  E(UHF) =  -39.5666932125     A.U. after   13 cycles
             Convg  =    0.4833D-08             -V/T =  2.0008
 <Sx>= 0.0000 <Sy>= 0.0000 <Sz>= 0.5000 <S**2>= 0.7604 S= 0.5052
 <L.S>= 0.000000000000E+00
 Annihilation of the first spin contaminant:
 S**2 before annihilation     0.7604,   after     0.7501
 Calling FoFJK, ICntrl=      2127 FMM=F ISym2X=1 I1Cent= 0 IOpClX= 1 NMat=1 NMatS=1 NMatT=0.
 ***** Axes restored to original set *****
 -------------------------------------------------------------------
 Center     Atomic                   Forces (Hartrees/Bohr)
 Number     Number              X              Y              Z
 -------------------------------------------------------------------
      1        6          -0.000371286    0.000000004    0.000000000
      2        1           0.000123756   -0.000516474    0.000000000
      3        1           0.000123765    0.000258235    0.000447279
      4        1           0.000123765    0.000258235   -0.000447278
 -------------------------------------------------------------------
 Cartesian Forces:  Max     0.000516474 RMS     0.000286362

 GradGradGradGradGradGradGradGradGradGradGradGradGradGradGradGradGradGrad
 Berny optimization.
 Using GEDIIS/GDIIS optimizer.
 Internal  Forces:  Max     0.000514967 RMS     0.000347968
 Search for a local minimum.
 Step number   4 out of a maximum of   20
 All quantities printed in internal units (Hartrees-Bohrs-Radians)
 Mixed Optimization -- En-DIIS/RFO-DIIS
 Update second derivatives using D2CorX and points    3    4
 DE= -5.86D-04 DEPred=-8.65D-04 R= 6.77D-01
 SS=  1.41D+00  RLast= 4.45D-01 DXNew= 1.4270D+00 1.3363D+00
 Trust test= 6.77D-01 RLast= 4.45D-01 DXMaxT set to 1.34D+00
 The second derivative matrix:
                          R1        R2        R3        A1        A2
           R1           0.37820
           R2           0.00590   0.37820
           R3           0.00590   0.00590   0.37820
           A1          -0.01287  -0.01287  -0.01287   0.11321
           A2          -0.00645  -0.00645  -0.00645  -0.04529   0.11798
           A3          -0.00645  -0.00645  -0.00645  -0.04529  -0.04202
           D1          -0.00350  -0.00350  -0.00350   0.00207   0.00040
                          A3        D1
           A3           0.11798
           D1           0.00040   0.00856
 Use linear search instead of GDIIS.
     Eigenvalues ---    0.00852   0.16000   0.16084   0.37230   0.37230
     Eigenvalues ---    0.390461000.00000
 RFO step:  Lambda=-6.95707467D-07 EMin= 8.51608453D-03
 Quartic linear search produced a step of -0.11653.
 Iteration  1 RMS(Cart)=  0.01001429 RMS(Int)=  0.00195264
 Iteration  2 RMS(Cart)=  0.00015222 RMS(Int)=  0.00194595
 Iteration  3 RMS(Cart)=  0.00000008 RMS(Int)=  0.00194595
 ClnCor:  largest displacement from symmetrization is 2.27D-04 for atom     4.
 Variable       Old X    -DE/DX   Delta X   Delta X   Delta X     New X
                                 (Linear)    (Quad)   (Total)
    R1        2.02632   0.00051   0.00086   0.00075   0.00153   2.02785
    R2        2.02632   0.00051   0.00086   0.00075   0.00153   2.02785
    R3        2.02632   0.00051   0.00086   0.00075   0.00153   2.02785
    A1        2.09415   0.00000  -0.00275  -0.00034   0.00023   2.09438
    A2        2.09415   0.00000  -0.00275   0.00018   0.00023   2.09438
    A3        2.09415   0.00000  -0.00275   0.00018   0.00023   2.09438
    D1        3.10048   0.00023   0.05167   0.00032   0.05201  -3.13069
         Item               Value     Threshold  Converged?
 Maximum Force            0.000515     0.000450     NO 
 RMS     Force            0.000348     0.000300     NO 
 Maximum Displacement     0.022825     0.001800     NO 
 RMS     Displacement     0.010021     0.001200     NO 
 Predicted change in Energy=-2.097700D-06
 GradGradGradGradGradGradGradGradGradGradGradGradGradGradGradGradGradGrad

                          Input orientation:                          
 ---------------------------------------------------------------------
 Center     Atomic      Atomic             Coordinates (Angstroms)
 Number     Number       Type             X           Y           Z
 ---------------------------------------------------------------------
      1          6           0       -1.990469   -0.053274   -0.873652
      2          1           0       -1.987106   -1.126361   -0.873652
      3          1           0       -1.987086    0.483270    0.055669
      4          1           0       -1.987086    0.483270   -1.802972
 ---------------------------------------------------------------------
                    Distance matrix (angstroms):
                    1          2          3          4
     1  C    0.000000
     2  H    1.073092   0.000000
     3  H    1.073092   1.858641   0.000000
     4  H    1.073092   1.858641   1.858641   0.000000
 Stoichiometry    CH3(2)
 Framework group  C3V[C3(C),3SGV(H)]
 Deg. of freedom     2
 Full point group                 C3V     NOp   6
 Largest Abelian subgroup         CS      NOp   2
 Largest concise Abelian subgroup CS      NOp   2
                         Standard orientation:                         
 ---------------------------------------------------------------------
 Center     Atomic      Atomic             Coordinates (Angstroms)
 Number     Number       Type             X           Y           Z
 ---------------------------------------------------------------------
      1          6           0        0.000000    0.000000    0.001126
      2          1           0        0.000000    1.073087   -0.002251
      3          1           0       -0.929321   -0.536543   -0.002251
      4          1           0        0.929321   -0.536543   -0.002251
 ---------------------------------------------------------------------
 Rotational constants (GHZ):    290.3113914    290.3113914    145.1579917
 Standard basis: 6-31+G(d,p) (6D, 7F)
 There are    23 symmetry adapted basis functions of A'  symmetry.
 There are    11 symmetry adapted basis functions of A"  symmetry.
 Integral buffers will be    262144 words long.
 Raffenetti 2 integral format.
 Two-electron integral symmetry is turned on.
    34 basis functions,    53 primitive gaussians,    34 cartesian basis functions
     5 alpha electrons        4 beta electrons
       nuclear repulsion energy         9.7305294461 Hartrees.
 NAtoms=    4 NActive=    4 NUniq=    2 SFac= 3.00D+00 NAtFMM=   80 NAOKFM=F Big=F
 One-electron integrals computed using PRISM.
 NBasis=    34 RedAO= T  NBF=    23    11
 NBsUse=    34 1.00D-06 NBFU=    23    11
 Initial guess read from the read-write file.
 B after Tr=     0.000000    0.000000    0.000000
         Rot=    1.000000    0.000000    0.000000    0.000000 Ang=   0.00 deg.
 Initial guess orbital symmetries:
 Alpha Orbitals:
       Occupied  (A1) (?A) (?A) (?A) (A1)
       Virtual   (?A) (?A) (?A) (A1) (?A) (?A) (?A) (?A) (?A) (A1)
                 (?A) (?A) (?A) (?A) (?A) (?A) (?A) (?A) (?A) (?A)
                 (?A) (?A) (?A) (?A) (?A) (?A) (?A) (?A) (?A)
 Beta  Orbitals:
       Occupied  (A1) (?A) (?A) (?A)
       Virtual   (A1) (?A) (?A) (?A) (A1) (?A) (?A) (?A) (?A) (?A)
                 (A1) (?A) (?A) (?A) (?A) (?A) (?A) (?A) (?A) (?A)
                 (?A) (?A) (?A) (?A) (?A) (?A) (?A) (?A) (?A) (?A)
 Initial guess <Sx>= 0.0000 <Sy>= 0.0000 <Sz>= 0.5000 <S**2>= 0.8215 S= 0.5351
 Harris functional with IExCor=  205 diagonalized for initial guess.
 ExpMin= 4.38D-02 ExpMax= 3.05D+03 ExpMxC= 4.57D+02 IAcc=2 IRadAn=         0 AccDes= 0.00D+00
 HarFok:  IExCor=  205 AccDes= 0.00D+00 IRadAn=         0 IDoV= 1
 ScaDFX=  1.000000  1.000000  1.000000  1.000000
 FoFCou: FMM=F IPFlag=           0 FMFlag=      100000 FMFlg1=           0
         NFxFlg=           0 DoJE=T BraDBF=F KetDBF=T FulRan=T
         Omega=  0.000000  0.000000  1.000000  0.000000  0.000000 ICntrl=     500 IOpCl=  0
         NMat0=    1 NMatS0=    1 NMatT0=    0 NMatD0=    1 NMtDS0=    0 NMtDT0=    0
         I1Cent=           4 NGrid=           0.
 Petite list used in FoFCou.
 Requested convergence on RMS density matrix=1.00D-08 within 128 cycles.
 Requested convergence on MAX density matrix=1.00D-06.
 Requested convergence on             energy=1.00D-06.
 No special actions if energy rises.
 Keep R1 and R2 ints in memory in canonical form, NReq=1196716.
 Density matrix breaks symmetry, PCut= 1.00D-04
 Density has only Abelian symmetry.
 Density matrix breaks symmetry, PCut= 1.00D-07
 Density has only Abelian symmetry.
 Density matrix breaks symmetry, PCut= 1.00D-07
 Density has only Abelian symmetry.
 Density matrix breaks symmetry, PCut= 1.00D-07
 Density has only Abelian symmetry.
 Density matrix breaks symmetry, PCut= 1.00D-07
 Density has only Abelian symmetry.
 Density matrix breaks symmetry, PCut= 1.00D-07
 Density has only Abelian symmetry.
 Density matrix breaks symmetry, PCut= 1.00D-07
 Density has only Abelian symmetry.
 Density matrix breaks symmetry, PCut= 1.00D-07
 Density has only Abelian symmetry.
 Density matrix breaks symmetry, PCut= 1.00D-07
 Density has only Abelian symmetry.
 Density matrix breaks symmetry, PCut= 1.00D-07
 Density has only Abelian symmetry.
 Density matrix breaks symmetry, PCut= 1.00D-07
 Density has only Abelian symmetry.
 SCF Done:  E(UHF) =  -39.5666984474     A.U. after   13 cycles
             Convg  =    0.4509D-08             -V/T =  2.0009
 <Sx>= 0.0000 <Sy>= 0.0000 <Sz>= 0.5000 <S**2>= 0.7604 S= 0.5052
 <L.S>= 0.000000000000E+00
 Annihilation of the first spin contaminant:
 S**2 before annihilation     0.7604,   after     0.7501
 Calling FoFJK, ICntrl=      2127 FMM=F ISym2X=1 I1Cent= 0 IOpClX= 1 NMat=1 NMatS=1 NMatT=0.
 ***** Axes restored to original set *****
 -------------------------------------------------------------------
 Center     Atomic                   Forces (Hartrees/Bohr)
 Number     Number              X              Y              Z
 -------------------------------------------------------------------
      1        6           0.000102622   -0.000000001    0.000000000
      2        1          -0.000034206    0.000116797    0.000000000
      3        1          -0.000034208   -0.000058398   -0.000101149
      4        1          -0.000034208   -0.000058398    0.000101149
 -------------------------------------------------------------------
 Cartesian Forces:  Max     0.000116797 RMS     0.000067680

 GradGradGradGradGradGradGradGradGradGradGradGradGradGradGradGradGradGrad
 Berny optimization.
 Using GEDIIS/GDIIS optimizer.
 Internal  Forces:  Max     0.000116904 RMS     0.000079760
 Search for a local minimum.
 Step number   5 out of a maximum of   20
 All quantities printed in internal units (Hartrees-Bohrs-Radians)
 Mixed Optimization -- En-DIIS/RFO-DIIS
 Swaping is turned off.
 Update second derivatives using D2CorX and points    3    4    5
 DE= -5.23D-06 DEPred=-2.10D-06 R= 2.50D+00
 SS=  1.41D+00  RLast= 5.21D-02 DXNew= 2.2474D+00 1.5624D-01
 Trust test= 2.50D+00 RLast= 5.21D-02 DXMaxT set to 1.34D+00
 The second derivative matrix:
                          R1        R2        R3        A1        A2
           R1           0.39428
           R2           0.02198   0.39428
           R3           0.02198   0.02198   0.39428
           A1          -0.01378  -0.01378  -0.01378   0.11307
           A2          -0.00612  -0.00612  -0.00612  -0.04532   0.11798
           A3          -0.00612  -0.00612  -0.00612  -0.04532  -0.04202
           D1          -0.00065  -0.00065  -0.00065   0.00110   0.00049
                          A3        D1
           A3           0.11798
           D1           0.00049   0.00557
     Eigenvalues ---    0.00556   0.16000   0.16070   0.37230   0.37230
     Eigenvalues ---    0.438661000.00000
 En-DIIS/RFO-DIIS IScMMF=        0 using points:     5    4
 RFO step:  Lambda=-1.09978748D-07.
 DIIS coeffs:      0.79667      0.20333
 Iteration  1 RMS(Cart)=  0.00206683 RMS(Int)=  0.00004156
 Iteration  2 RMS(Cart)=  0.00000641 RMS(Int)=  0.00004107
 Iteration  3 RMS(Cart)=  0.00000000 RMS(Int)=  0.00004107
 ClnCor:  largest displacement from symmetrization is 1.87D-06 for atom     4.
 Variable       Old X    -DE/DX   Delta X   Delta X   Delta X     New X
                                  (DIIS)     (GDIIS)  (Total)
    R1        2.02785  -0.00012  -0.00031   0.00003  -0.00029   2.02756
    R2        2.02785  -0.00012  -0.00031   0.00003  -0.00029   2.02756
    R3        2.02785  -0.00012  -0.00031   0.00003  -0.00029   2.02756
    A1        2.09438   0.00000  -0.00005   0.00000   0.00002   2.09440
    A2        2.09438   0.00000  -0.00005   0.00000   0.00002   2.09440
    A3        2.09438   0.00000  -0.00005   0.00000   0.00002   2.09440
    D1       -3.13069  -0.00006  -0.01058  -0.00017  -0.01075  -3.14144
         Item               Value     Threshold  Converged?
 Maximum Force            0.000117     0.000450     YES
 RMS     Force            0.000080     0.000300     YES
 Maximum Displacement     0.004719     0.001800     NO 
 RMS     Displacement     0.002067     0.001200     NO 
 Predicted change in Energy=-3.693414D-07
 GradGradGradGradGradGradGradGradGradGradGradGradGradGradGradGradGradGrad

                          Input orientation:                          
 ---------------------------------------------------------------------
 Center     Atomic      Atomic             Coordinates (Angstroms)
 Number     Number       Type             X           Y           Z
 ---------------------------------------------------------------------
      1          6           0       -1.987972   -0.053274   -0.873652
      2          1           0       -1.987938   -1.126215   -0.873652
      3          1           0       -1.987919    0.483197    0.055543
      4          1           0       -1.987919    0.483197   -1.802846
 ---------------------------------------------------------------------
                    Distance matrix (angstroms):
                    1          2          3          4
     1  C    0.000000
     2  H    1.072941   0.000000
     3  H    1.072941   1.858388   0.000000
     4  H    1.072941   1.858388   1.858388   0.000000
 Stoichiometry    CH3(2)
 Framework group  C3V[C3(C),3SGV(H)]
 Deg. of freedom     2
 Full point group                 C3V     NOp   6
 Largest Abelian subgroup         CS      NOp   2
 Largest concise Abelian subgroup CS      NOp   2
                         Standard orientation:                         
 ---------------------------------------------------------------------
 Center     Atomic      Atomic             Coordinates (Angstroms)
 Number     Number       Type             X           Y           Z
 ---------------------------------------------------------------------
      1          6           0        0.000000    0.000000    0.000016
      2          1           0        0.000000    1.072941   -0.000031
      3          1           0       -0.929194   -0.536470   -0.000031
      4          1           0        0.929194   -0.536470   -0.000031
 ---------------------------------------------------------------------
 Rotational constants (GHZ):    290.3950267    290.3950267    145.1975138
 Standard basis: 6-31+G(d,p) (6D, 7F)
 There are    23 symmetry adapted basis functions of A'  symmetry.
 There are    11 symmetry adapted basis functions of A"  symmetry.
 Integral buffers will be    262144 words long.
 Raffenetti 2 integral format.
 Two-electron integral symmetry is turned on.
    34 basis functions,    53 primitive gaussians,    34 cartesian basis functions
     5 alpha electrons        4 beta electrons
       nuclear repulsion energy         9.7318979605 Hartrees.
 NAtoms=    4 NActive=    4 NUniq=    2 SFac= 3.00D+00 NAtFMM=   80 NAOKFM=F Big=F
 One-electron integrals computed using PRISM.
 NBasis=    34 RedAO= T  NBF=    23    11
 NBsUse=    34 1.00D-06 NBFU=    23    11
 Initial guess read from the read-write file.
 B after Tr=     0.000000    0.000000    0.000000
         Rot=    1.000000    0.000000    0.000000    0.000000 Ang=   0.00 deg.
 Initial guess orbital symmetries:
 Alpha Orbitals:
       Occupied  (A1) (A1) (E) (E) (A1)
       Virtual   (A1) (E) (E) (A1) (A1) (E) (E) (E) (E) (A1) (A1)
                 (E) (E) (A1) (E) (E) (E) (E) (A1) (A2) (A1) (E)
                 (E) (E) (E) (A1) (E) (E) (A1)
 Beta  Orbitals:
       Occupied  (A1) (A1) (E) (E)
       Virtual   (A1) (A1) (E) (E) (A1) (E) (E) (A1) (E) (E) (A1)
                 (A1) (E) (E) (A1) (E) (E) (E) (E) (A2) (A1) (A1)
                 (E) (E) (E) (E) (A1) (E) (E) (A1)
 Initial guess <Sx>= 0.0000 <Sy>= 0.0000 <Sz>= 0.5000 <S**2>= 0.7604 S= 0.5052
 Requested convergence on RMS density matrix=1.00D-08 within 128 cycles.
 Requested convergence on MAX density matrix=1.00D-06.
 Requested convergence on             energy=1.00D-06.
 No special actions if energy rises.
 Keep R1 and R2 ints in memory in canonical form, NReq=1196716.
 SCF Done:  E(UHF) =  -39.5666988224     A.U. after    9 cycles
             Convg  =    0.2220D-08             -V/T =  2.0008
 <Sx>= 0.0000 <Sy>= 0.0000 <Sz>= 0.5000 <S**2>= 0.7604 S= 0.5052
 <L.S>= 0.000000000000E+00
 Annihilation of the first spin contaminant:
 S**2 before annihilation     0.7604,   after     0.7501
 Calling FoFJK, ICntrl=      2127 FMM=F ISym2X=1 I1Cent= 0 IOpClX= 1 NMat=1 NMatS=1 NMatT=0.
 ***** Axes restored to original set *****
 -------------------------------------------------------------------
 Center     Atomic                   Forces (Hartrees/Bohr)
 Number     Number              X              Y              Z
 -------------------------------------------------------------------
      1        6           0.000001421    0.000000000    0.000000000
      2        1          -0.000000474    0.000001852    0.000000000
      3        1          -0.000000474   -0.000000926   -0.000001603
      4        1          -0.000000474   -0.000000926    0.000001603
 -------------------------------------------------------------------
 Cartesian Forces:  Max     0.000001852 RMS     0.000001040

 GradGradGradGradGradGradGradGradGradGradGradGradGradGradGradGradGradGrad
 Berny optimization.
 Using GEDIIS/GDIIS optimizer.
 Internal  Forces:  Max     0.000001852 RMS     0.000001252
 Search for a local minimum.
 Step number   6 out of a maximum of   20
 All quantities printed in internal units (Hartrees-Bohrs-Radians)
 Mixed Optimization -- En-DIIS/RFO-DIIS
 Swaping is turned off.
 Update second derivatives using D2CorX and points    3    4    5    6
 DE= -3.75D-07 DEPred=-3.69D-07 R= 1.02D+00
 Trust test= 1.02D+00 RLast= 1.08D-02 DXMaxT set to 1.34D+00
 The second derivative matrix:
                          R1        R2        R3        A1        A2
           R1           0.40149
           R2           0.02919   0.40149
           R3           0.02919   0.02919   0.40149
           A1          -0.01356  -0.01356  -0.01356   0.11283
           A2          -0.00454  -0.00454  -0.00454  -0.04560   0.11788
           A3          -0.00454  -0.00454  -0.00454  -0.04560  -0.04212
           D1          -0.00157  -0.00157  -0.00157   0.00112   0.00038
                          A3        D1
           A3           0.11788
           D1           0.00038   0.00558
     Eigenvalues ---    0.00556   0.16000   0.16073   0.37230   0.37230
     Eigenvalues ---    0.460441000.00000
 En-DIIS/RFO-DIIS IScMMF=        0 using points:     6    5    4
 RFO step:  Lambda= 0.00000000D+00.
 DIIS coeffs:      0.99839     -0.00161      0.00322
 Iteration  1 RMS(Cart)=  0.00002894 RMS(Int)=  0.00000050
 Iteration  2 RMS(Cart)=  0.00000000 RMS(Int)=  0.00000050
 ClnCor:  largest displacement from symmetrization is 4.62D-08 for atom     4.
 Variable       Old X    -DE/DX   Delta X   Delta X   Delta X     New X
                                  (DIIS)     (GDIIS)  (Total)
    R1        2.02756   0.00000   0.00000   0.00000   0.00000   2.02756
    R2        2.02756   0.00000   0.00000   0.00000   0.00000   2.02756
    R3        2.02756   0.00000   0.00000   0.00000   0.00000   2.02756
    A1        2.09440   0.00000   0.00000   0.00000   0.00000   2.09440
    A2        2.09440   0.00000   0.00000   0.00000   0.00000   2.09440
    A3        2.09440   0.00000   0.00000   0.00000   0.00000   2.09440
    D1       -3.14144   0.00000  -0.00015   0.00000  -0.00015  -3.14159
         Item               Value     Threshold  Converged?
 Maximum Force            0.000002     0.000450     YES
 RMS     Force            0.000001     0.000300     YES
 Maximum Displacement     0.000066     0.001800     YES
 RMS     Displacement     0.000029     0.001200     YES
 Predicted change in Energy=-7.618570D-11
 Optimization completed.
    -- Stationary point found.
                           ----------------------------
                           !   Optimized Parameters   !
                           ! (Angstroms and Degrees)  !
 --------------------------                            --------------------------
 ! Name  Definition              Value          Derivative Info.                !
 --------------------------------------------------------------------------------
 ! R1    R(1,2)                  1.0729         -DE/DX =    0.0                 !
 ! R2    R(1,3)                  1.0729         -DE/DX =    0.0                 !
 ! R3    R(1,4)                  1.0729         -DE/DX =    0.0                 !
 ! A1    A(2,1,3)              120.0            -DE/DX =    0.0                 !
 ! A2    A(2,1,4)              120.0            -DE/DX =    0.0                 !
 ! A3    A(3,1,4)              120.0            -DE/DX =    0.0                 !
 ! D1    D(2,1,4,3)           -179.9913         -DE/DX =    0.0                 !
 --------------------------------------------------------------------------------
 GradGradGradGradGradGradGradGradGradGradGradGradGradGradGradGradGradGrad

                          Input orientation:                          
 ---------------------------------------------------------------------
 Center     Atomic      Atomic             Coordinates (Angstroms)
 Number     Number       Type             X           Y           Z
 ---------------------------------------------------------------------
      1          6           0       -1.987972   -0.053274   -0.873652
      2          1           0       -1.987938   -1.126215   -0.873652
      3          1           0       -1.987919    0.483197    0.055543
      4          1           0       -1.987919    0.483197   -1.802846
 ---------------------------------------------------------------------
                    Distance matrix (angstroms):
                    1          2          3          4
     1  C    0.000000
     2  H    1.072941   0.000000
     3  H    1.072941   1.858388   0.000000
     4  H    1.072941   1.858388   1.858388   0.000000
 Stoichiometry    CH3(2)
 Framework group  C3V[C3(C),3SGV(H)]
 Deg. of freedom     2
 Full point group                 C3V     NOp   6
 Largest Abelian subgroup         CS      NOp   2
 Largest concise Abelian subgroup CS      NOp   2
                         Standard orientation:                         
 ---------------------------------------------------------------------
 Center     Atomic      Atomic             Coordinates (Angstroms)
 Number     Number       Type             X           Y           Z
 ---------------------------------------------------------------------
      1          6           0        0.000000    0.000000    0.000016
      2          1           0        0.000000    1.072941   -0.000031
      3          1           0       -0.929194   -0.536470   -0.000031
      4          1           0        0.929194   -0.536470   -0.000031
 ---------------------------------------------------------------------
 Rotational constants (GHZ):    290.3950267    290.3950267    145.1975138

 **********************************************************************

            Population analysis using the SCF density.

 **********************************************************************

 Orbital symmetries:
 Alpha Orbitals:
       Occupied  (A1) (A1) (E) (E) (A1)
       Virtual   (A1) (E) (E) (A1) (A1) (E) (E) (E) (E) (A1) (A1)
                 (E) (E) (A1) (E) (E) (E) (E) (A1) (A2) (A1) (E)
                 (E) (E) (E) (A1) (E) (E) (A1)
 Beta  Orbitals:
       Occupied  (A1) (A1) (E) (E)
       Virtual   (A1) (A1) (E) (E) (A1) (E) (E) (A1) (E) (E) (A1)
                 (A1) (E) (E) (A1) (E) (E) (E) (E) (A2) (A1) (A1)
                 (E) (E) (E) (E) (A1) (E) (E) (A1)
 The electronic state is 2-A1.
 Alpha  occ. eigenvalues --  -11.23698  -0.95122  -0.58323  -0.58323  -0.38306
 Alpha virt. eigenvalues --    0.09633   0.11858   0.11858   0.13419   0.33249
 Alpha virt. eigenvalues --    0.34561   0.34561   0.83697   0.83697   0.86494
 Alpha virt. eigenvalues --    1.01610   1.20649   1.20649   1.22269   1.69165
 Alpha virt. eigenvalues --    1.69165   2.25066   2.25066   2.28798   2.30451
 Alpha virt. eigenvalues --    2.59961   2.89040   2.89040   3.07487   3.07487
 Alpha virt. eigenvalues --    3.64774   3.85533   3.85533   4.70422
  Beta  occ. eigenvalues --  -11.21416  -0.86024  -0.56834  -0.56834
  Beta virt. eigenvalues --    0.07107   0.10449   0.12016   0.12016   0.23279
  Beta virt. eigenvalues --    0.35307   0.35307   0.36477   0.85134   0.85134
  Beta virt. eigenvalues --    0.99010   1.05337   1.21012   1.21012   1.25082
  Beta virt. eigenvalues --    1.76396   1.76396   2.25590   2.25590   2.29897
  Beta virt. eigenvalues --    2.36840   2.60721   2.91890   2.91890   3.07611
  Beta virt. eigenvalues --    3.07611   3.65346   3.86336   3.86336   4.73352
          Condensed to atoms (all electrons):
              1          2          3          4
     1  C    5.225903   0.396040   0.396040   0.396040
     2  H    0.396040   0.519125  -0.026587  -0.026587
     3  H    0.396040  -0.026587   0.519125  -0.026587
     4  H    0.396040  -0.026587  -0.026587   0.519125
 Mulliken atomic charges:
              1
     1  C   -0.414024
     2  H    0.138008
     3  H    0.138008
     4  H    0.138008
 Sum of Mulliken atomic charges =   0.00000
 Mulliken charges with hydrogens summed into heavy atoms:
              1
     1  C    0.000000
 Sum of Mulliken charges with hydrogens summed into heavy atoms =   0.00000
          Atomic-Atomic Spin Densities.
              1          2          3          4
     1  C    1.324408  -0.011764  -0.011764  -0.011764
     2  H   -0.011764  -0.084447  -0.000080  -0.000080
     3  H   -0.011764  -0.000080  -0.084447  -0.000080
     4  H   -0.011764  -0.000080  -0.000080  -0.084447
 Mulliken atomic spin densities:
              1
     1  C    1.289115
     2  H   -0.096372
     3  H   -0.096372
     4  H   -0.096372
 Sum of Mulliken atomic spin densities =   1.00000
 Electronic spatial extent (au):  <R**2>=             29.8682
 Charge=              0.0000 electrons
 Dipole moment (field-independent basis, Debye):
    X=              0.0000    Y=              0.0000    Z=             -0.0001  Tot=              0.0001
 Quadrupole moment (field-independent basis, Debye-Ang):
   XX=             -7.2377   YY=             -7.2377   ZZ=             -9.1100
   XY=              0.0000   XZ=              0.0000   YZ=              0.0000
 Traceless Quadrupole moment (field-independent basis, Debye-Ang):
   XX=              0.6241   YY=              0.6241   ZZ=             -1.2482
   XY=              0.0000   XZ=              0.0000   YZ=              0.0000
 Octapole moment (field-independent basis, Debye-Ang**2):
  XXX=              0.0000  YYY=              0.8457  ZZZ=             -0.0002  XYY=              0.0000
  XXY=             -0.8457  XXZ=             -0.0001  XZZ=              0.0000  YZZ=              0.0000
  YYZ=             -0.0001  XYZ=              0.0000
 Hexadecapole moment (field-independent basis, Debye-Ang**3):
 XXXX=            -14.7322 YYYY=            -14.7322 ZZZZ=            -11.9280 XXXY=              0.0000
 XXXZ=              0.0000 YYYX=              0.0000 YYYZ=              0.0000 ZZZX=              0.0000
 ZZZY=              0.0000 XXYY=             -4.9107 XXZZ=             -4.8029 YYZZ=             -4.8029
 XXYZ=              0.0000 YYXZ=              0.0000 ZZXY=              0.0000
 N-N= 9.731897960529D+00 E-N=-1.637923000353D+02  KE= 5.869214936069D+01
 Symmetry A'   KE= 5.579662154100D+01
 Symmetry A"   KE= 2.895527819689D+00
                          Isotropic Fermi Contact Couplings
        Atom                 a.u.       MegaHertz       Gauss      10(-4) cm-1
     1  C(13)              0.18051     202.92578      72.40896      67.68875
     2  H(1)              -0.02842    -127.01463     -45.32198     -42.36752
     3  H(1)              -0.02842    -127.01463     -45.32198     -42.36752
     4  H(1)              -0.02842    -127.01463     -45.32198     -42.36752
 --------------------------------------------------------
       Center         ----  Spin Dipole Couplings  ----
                      3XX-RR        3YY-RR        3ZZ-RR
 --------------------------------------------------------
     1   Atom       -0.512272     -0.512272      1.024545
     2   Atom       -0.078228      0.080985     -0.002757
     3   Atom        0.041182     -0.038425     -0.002757
     4   Atom        0.041182     -0.038425     -0.002757
 --------------------------------------------------------
                        XY            XZ            YZ
 --------------------------------------------------------
     1   Atom        0.000000      0.000000      0.000000
     2   Atom        0.000000      0.000000     -0.000005
     3   Atom        0.068941      0.000004      0.000003
     4   Atom       -0.068941     -0.000004      0.000003
 --------------------------------------------------------


 ---------------------------------------------------------------------------------
              Anisotropic Spin Dipole Couplings in Principal Axis System
 ---------------------------------------------------------------------------------

       Atom             a.u.   MegaHertz   Gauss  10(-4) cm-1        Axes

              Baa    -0.5123   -68.742   -24.529   -22.930  0.4237  0.9058  0.0000
     1 C(13)  Bbb    -0.5123   -68.742   -24.529   -22.930  0.9058 -0.4237  0.0000
              Bcc     1.0245   137.484    49.058    45.860  0.0000  0.0000  1.0000
 
              Baa    -0.0782   -41.739   -14.893   -13.923  1.0000  0.0000  0.0000
     2 H(1)   Bbb    -0.0028    -1.471    -0.525    -0.491  0.0000  0.0001  1.0000
              Bcc     0.0810    43.210    15.418    14.413  0.0000  1.0000 -0.0001
 
              Baa    -0.0782   -41.739   -14.893   -13.923 -0.5000  0.8660  0.0000
     3 H(1)   Bbb    -0.0028    -1.471    -0.525    -0.491 -0.0001  0.0000  1.0000
              Bcc     0.0810    43.210    15.418    14.413  0.8660  0.5000  0.0001
 
              Baa    -0.0782   -41.739   -14.893   -13.923  0.5000  0.8660  0.0000
     4 H(1)   Bbb    -0.0028    -1.471    -0.525    -0.491  0.0001  0.0000  1.0000
              Bcc     0.0810    43.210    15.418    14.413  0.8660 -0.5000 -0.0001
 

 ---------------------------------------------------------------------------------

 1|1|UNPC-DESKTOP-319GPER|FOpt|UHF|6-31+G(d,p)|C1H3(2)|SAGAD|08-Oct-202
 0|0||#opt freq HF/6-31+g(d,p)||Calculation of methyl radical with HF||
 0,2|C,-1.9879722718,-0.0532736822,-0.8736515008|H,-1.9879380491,-1.126
 2146032,-0.8736516095|H,-1.9879186388,0.4831966834,0.0555426475|H,-1.9
 879186353,0.4831968716,-1.8028455405||Version=IA32W-G09RevA.02|State=2
 -A1|HF=-39.5666988|S2=0.76044|S2-1=0.|S2A=0.75006|RMSD=2.220e-009|RMSF
 =1.040e-006|Dipole=0.0000441,0.,0.|Quadrupole=-0.9279935,0.4639967,0.4
 639967,0.0000168,0.,0.|PG=C03V [C3(C1),3SGV(H1)]||@


 IF AT FIRST YOU DON'T SUCCEED, TRY, TRY AGAIN.
 THEN GIVE UP;
 THERE'S NO USE BEING A DAMN FOOL ABOUT IT.

                                 -- W. C. FIELDS
 Job cpu time:  0 days  0 hours  0 minutes  7.0 seconds.
 File lengths (MBytes):  RWF=      5 Int=      0 D2E=      0 Chk=      1 Scr=      1
 Normal termination of Gaussian 09 at Thu Oct 08 03:02:20 2020.
 Link1:  Proceeding to internal job step number  2.
 --------------------------------------------------------------------
 #N Geom=AllCheck Guess=TCheck SCRF=Check GenChk UHF/6-31+G(d,p) Freq
 --------------------------------------------------------------------
 1/10=4,29=7,30=1,38=1,40=1/1,3;
 2/12=2,40=1/2;
 3/5=1,6=6,7=111,11=2,14=-4,16=1,25=1,30=1,70=2,71=2,116=2/1,2,3;
 4/5=101/1;
 5/5=2,98=1/2;
 8/6=4,10=90,11=11/1;
 10/13=10,15=4/2;
 11/6=3,8=1,9=11,15=111,16=1/1,2,10;
 10/6=1/2;
 6/7=2,8=2,9=2,10=2,18=1,28=1/1;
 7/8=1,10=1,25=1/1,2,3,16;
 1/10=4,30=1/3;
 99//99;
 -------------------------------------
 Calculation of methyl radical with HF
 -------------------------------------
 Redundant internal coordinates taken from checkpoint file:
 C:\Users\sagad\Documents\rayGit\FQ\quimicaComputacional\class4Metilo\productos\methylRadicalHF.chk
 Charge =  0 Multiplicity = 2
 C,0,-1.9879722718,-0.0532736822,-0.8736515008
 H,0,-1.9879380491,-1.1262146032,-0.8736516095
 H,0,-1.9879186388,0.4831966834,0.0555426475
 H,0,-1.9879186353,0.4831968716,-1.8028455405
 Recover connectivity data from disk.

 GradGradGradGradGradGradGradGradGradGradGradGradGradGradGradGradGradGrad
 Berny optimization.
 Initialization pass.
                           ----------------------------
                           !    Initial Parameters    !
                           ! (Angstroms and Degrees)  !
 --------------------------                            --------------------------
 ! Name  Definition              Value          Derivative Info.                !
 --------------------------------------------------------------------------------
 ! R1    R(1,2)                  1.0729         calculate D2E/DX2 analytically  !
 ! R2    R(1,3)                  1.0729         calculate D2E/DX2 analytically  !
 ! R3    R(1,4)                  1.0729         calculate D2E/DX2 analytically  !
 ! A1    A(2,1,3)              120.0            calculate D2E/DX2 analytically  !
 ! A2    A(2,1,4)              120.0            calculate D2E/DX2 analytically  !
 ! A3    A(3,1,4)              120.0            calculate D2E/DX2 analytically  !
 ! D1    D(2,1,4,3)           -179.9913         calculate D2E/DX2 analytically  !
 --------------------------------------------------------------------------------
 Trust Radius=3.00D-01 FncErr=1.00D-07 GrdErr=1.00D-07
 Number of steps in this run=   2 maximum allowed number of steps=   2.
 GradGradGradGradGradGradGradGradGradGradGradGradGradGradGradGradGradGrad

                          Input orientation:                          
 ---------------------------------------------------------------------
 Center     Atomic      Atomic             Coordinates (Angstroms)
 Number     Number       Type             X           Y           Z
 ---------------------------------------------------------------------
      1          6           0       -1.987972   -0.053274   -0.873652
      2          1           0       -1.987938   -1.126215   -0.873652
      3          1           0       -1.987919    0.483197    0.055543
      4          1           0       -1.987919    0.483197   -1.802846
 ---------------------------------------------------------------------
                    Distance matrix (angstroms):
                    1          2          3          4
     1  C    0.000000
     2  H    1.072941   0.000000
     3  H    1.072941   1.858388   0.000000
     4  H    1.072941   1.858388   1.858388   0.000000
 Stoichiometry    CH3(2)
 Framework group  C3V[C3(C),3SGV(H)]
 Deg. of freedom     2
 Full point group                 C3V     NOp   6
 Largest Abelian subgroup         CS      NOp   2
 Largest concise Abelian subgroup CS      NOp   2
                         Standard orientation:                         
 ---------------------------------------------------------------------
 Center     Atomic      Atomic             Coordinates (Angstroms)
 Number     Number       Type             X           Y           Z
 ---------------------------------------------------------------------
      1          6           0        0.000000    0.000000    0.000016
      2          1           0        0.000000    1.072941   -0.000031
      3          1           0       -0.929194   -0.536470   -0.000031
[...]
 Alpha virt. eigenvalues --    1.69165   2.25066   2.25066   2.28798   2.30451
 Alpha virt. eigenvalues --    2.59961   2.89040   2.89040   3.07487   3.07487
 Alpha virt. eigenvalues --    3.64774   3.85533   3.85533   4.70422
  Beta  occ. eigenvalues --  -11.21416  -0.86024  -0.56834  -0.56834
  Beta virt. eigenvalues --    0.07107   0.10449   0.12016   0.12016   0.23279
  Beta virt. eigenvalues --    0.35307   0.35307   0.36477   0.85134   0.85134
  Beta virt. eigenvalues --    0.99010   1.05337   1.21012   1.21012   1.25082
  Beta virt. eigenvalues --    1.76396   1.76396   2.25590   2.25590   2.29897
  Beta virt. eigenvalues --    2.36840   2.60721   2.91890   2.91890   3.07611
  Beta virt. eigenvalues --    3.07611   3.65346   3.86336   3.86336   4.73352
          Condensed to atoms (all electrons):
              1          2          3          4
     1  C    5.225903   0.396040   0.396040   0.396040
     2  H    0.396040   0.519125  -0.026587  -0.026587
     3  H    0.396040  -0.026587   0.519125  -0.026587
     4  H    0.396040  -0.026587  -0.026587   0.519125
 Mulliken atomic charges:
              1
     1  C   -0.414024
     2  H    0.138008
     3  H    0.138008
     4  H    0.138008
 Sum of Mulliken atomic charges =   0.00000
 Mulliken charges with hydrogens summed into heavy atoms:
              1
     1  C    0.000000
 Sum of Mulliken charges with hydrogens summed into heavy atoms =   0.00000
          Atomic-Atomic Spin Densities.
              1          2          3          4
     1  C    1.324408  -0.011764  -0.011764  -0.011764
     2  H   -0.011764  -0.084447  -0.000080  -0.000080
     3  H   -0.011764  -0.000080  -0.084447  -0.000080
     4  H   -0.011764  -0.000080  -0.000080  -0.084447
 Mulliken atomic spin densities:
              1
     1  C    1.289115
     2  H   -0.096372
     3  H   -0.096372
     4  H   -0.096372
 Sum of Mulliken atomic spin densities =   1.00000
 APT atomic charges:
              1
     1  C   -0.121310
     2  H    0.040437
     3  H    0.040437
     4  H    0.040437
 Sum of APT charges=   0.00000
 APT Atomic charges with hydrogens summed into heavy atoms:
              1
     1  C    0.000000
     2  H    0.000000
     3  H    0.000000
     4  H    0.000000
 Sum of APT charges=   0.00000
 Electronic spatial extent (au):  <R**2>=             29.8682
 Charge=              0.0000 electrons
 Dipole moment (field-independent basis, Debye):
    X=              0.0000    Y=              0.0000    Z=             -0.0001  Tot=              0.0001
 Quadrupole moment (field-independent basis, Debye-Ang):
   XX=             -7.2377   YY=             -7.2377   ZZ=             -9.1100
   XY=              0.0000   XZ=              0.0000   YZ=              0.0000
 Traceless Quadrupole moment (field-independent basis, Debye-Ang):
   XX=              0.6241   YY=              0.6241   ZZ=             -1.2482
   XY=              0.0000   XZ=              0.0000   YZ=              0.0000
 Octapole moment (field-independent basis, Debye-Ang**2):
  XXX=              0.0000  YYY=              0.8457  ZZZ=             -0.0002  XYY=              0.0000
  XXY=             -0.8457  XXZ=             -0.0001  XZZ=              0.0000  YZZ=              0.0000
  YYZ=             -0.0001  XYZ=              0.0000
 Hexadecapole moment (field-independent basis, Debye-Ang**3):
 XXXX=            -14.7322 YYYY=            -14.7322 ZZZZ=            -11.9280 XXXY=              0.0000
 XXXZ=              0.0000 YYYX=              0.0000 YYYZ=              0.0000 ZZZX=              0.0000
 ZZZY=              0.0000 XXYY=             -4.9107 XXZZ=             -4.8029 YYZZ=             -4.8029
 XXYZ=              0.0000 YYXZ=              0.0000 ZZXY=              0.0000
 N-N= 9.731897960529D+00 E-N=-1.637923000773D+02  KE= 5.869214937540D+01
 Symmetry A'   KE= 5.579662155027D+01
 Symmetry A"   KE= 2.895527825131D+00
  Exact polarizability:  12.120   0.000  12.120   0.000   0.000   9.439
 Approx polarizability:   9.481   0.000   9.481   0.000   0.000   6.813
                          Isotropic Fermi Contact Couplings
        Atom                 a.u.       MegaHertz       Gauss      10(-4) cm-1
     1  C(13)              0.18051     202.92576      72.40895      67.68875
     2  H(1)              -0.02842    -127.01461     -45.32197     -42.36751
     3  H(1)              -0.02842    -127.01461     -45.32197     -42.36751
     4  H(1)              -0.02842    -127.01461     -45.32197     -42.36751
 --------------------------------------------------------
       Center         ----  Spin Dipole Couplings  ----
                      3XX-RR        3YY-RR        3ZZ-RR
 --------------------------------------------------------
     1   Atom       -0.512272     -0.512272      1.024545
     2   Atom       -0.078228      0.080985     -0.002757
     3   Atom        0.041182     -0.038425     -0.002757
     4   Atom        0.041182     -0.038425     -0.002757
 --------------------------------------------------------
                        XY            XZ            YZ
 --------------------------------------------------------
     1   Atom        0.000000      0.000000      0.000000
     2   Atom        0.000000      0.000000     -0.000005
     3   Atom        0.068941      0.000004      0.000003
     4   Atom       -0.068941     -0.000004      0.000003
 --------------------------------------------------------


 ---------------------------------------------------------------------------------
              Anisotropic Spin Dipole Couplings in Principal Axis System
 ---------------------------------------------------------------------------------

       Atom             a.u.   MegaHertz   Gauss  10(-4) cm-1        Axes

              Baa    -0.5123   -68.742   -24.529   -22.930  0.9858  0.1682  0.0000
     1 C(13)  Bbb    -0.5123   -68.742   -24.529   -22.930 -0.1682  0.9858  0.0000
              Bcc     1.0245   137.484    49.058    45.860  0.0000  0.0000  1.0000
 
              Baa    -0.0782   -41.739   -14.893   -13.923  1.0000  0.0000  0.0000
     2 H(1)   Bbb    -0.0028    -1.471    -0.525    -0.491  0.0000  0.0001  1.0000
              Bcc     0.0810    43.210    15.418    14.413  0.0000  1.0000 -0.0001
 
              Baa    -0.0782   -41.739   -14.893   -13.923 -0.5000  0.8660  0.0000
     3 H(1)   Bbb    -0.0028    -1.471    -0.525    -0.491 -0.0001  0.0000  1.0000
              Bcc     0.0810    43.210    15.418    14.413  0.8660  0.5000  0.0001
 
              Baa    -0.0782   -41.739   -14.893   -13.923  0.5000  0.8660  0.0000
     4 H(1)   Bbb    -0.0028    -1.471    -0.525    -0.491  0.0001  0.0000  1.0000
              Bcc     0.0810    43.210    15.418    14.413  0.8660 -0.5000 -0.0001
 

 ---------------------------------------------------------------------------------

 Calling FoFJK, ICntrl=    100127 FMM=F ISym2X=1 I1Cent= 0 IOpClX= 1 NMat=1 NMatS=1 NMatT=0.
 Full mass-weighted force constant matrix:
 Low frequencies ---   -0.0016   -0.0012   -0.0006    4.9031    4.9296    4.9296
 Low frequencies ---  417.6744 1524.0859 1524.0859
 Diagonal vibrational polarizability:
        0.0407300       0.0407300      15.2448009
 Diagonal vibrational hyperpolarizability:
        0.0000000      -1.5414756       0.0167811
 Harmonic frequencies (cm**-1), IR intensities (KM/Mole), Raman scattering
 activities (A**4/AMU), depolarization ratios for plane and unpolarized
 incident light, reduced masses (AMU), force constants (mDyne/A),
 and normal coordinates:
                     1                      2                      3
                    A1                      E                      E
 Frequencies --   417.6744              1524.0859              1524.0859
 Red. masses --     1.2356                 1.1018                 1.1018
 Frc consts  --     0.1270                 1.5079                 1.5079
 IR Inten    --    98.8244                 1.7314                 1.7314
 Raman Activ --     0.0000                 2.0880                 2.0880
 Depolar (P) --     0.7454                 0.7500                 0.7500
 Depolar (U) --     0.8541                 0.8571                 0.8571
  Atom  AN      X      Y      Z        X      Y      Z        X      Y      Z
     1   6     0.00   0.00   0.14    -0.09   0.00   0.00     0.00   0.09   0.00
     2   1     0.00   0.00  -0.57     0.81   0.00   0.00     0.00   0.08   0.00
     3   1     0.00   0.00  -0.57     0.15  -0.38   0.00     0.38  -0.59   0.00
     4   1     0.00   0.00  -0.57     0.15   0.38   0.00    -0.38  -0.59   0.00
                     4                      5                      6
                    A1                      E                      E
 Frequencies --  3259.0938              3439.3520              3439.3520
 Red. masses --     1.0078                 1.1186                 1.1186
 Frc consts  --     6.3071                 7.7963                 7.7963
 IR Inten    --     0.0000                 9.0860                 9.0860
 Raman Activ --   135.2909                36.3169                36.3169
 Depolar (P) --     0.1359                 0.7500                 0.7500
 Depolar (U) --     0.2393                 0.8571                 0.8571
  Atom  AN      X      Y      Z        X      Y      Z        X      Y      Z
     1   6     0.00   0.00   0.00     0.00   0.10   0.00     0.10   0.00   0.00
     2   1     0.00   0.58   0.00     0.00  -0.81   0.00     0.02   0.00   0.00
     3   1    -0.50  -0.29   0.00    -0.36  -0.19   0.00    -0.61  -0.36   0.00
     4   1     0.50  -0.29   0.00     0.36  -0.19   0.00    -0.60   0.36   0.00

 -------------------
 - Thermochemistry -
 -------------------
 Temperature   298.150 Kelvin.  Pressure   1.00000 Atm.
 Atom     1 has atomic number  6 and mass  12.00000
 Atom     2 has atomic number  1 and mass   1.00783
 Atom     3 has atomic number  1 and mass   1.00783
 Atom     4 has atomic number  1 and mass   1.00783
 Molecular mass:    15.02348 amu.
 Principal axes and moments of inertia in atomic units:
                           1         2         3
     Eigenvalues --     6.21478   6.21478  12.42956
           X           -0.36574   0.93072   0.00000
           Y            0.93072   0.36574   0.00000
           Z            0.00000   0.00000   1.00000
 This molecule is an oblate symmetric top.
 Rotational symmetry number  3.
 Rotational temperatures (Kelvin)     13.93675    13.93675     6.96837
 Rotational constants (GHZ):         290.39503   290.39503   145.19751
 Zero-point vibrational energy      81367.9 (Joules/Mol)
                                   19.44739 (Kcal/Mol)
 Warning -- explicit consideration of   1 degrees of freedom as
           vibrations may cause significant error
 Vibrational temperatures:    600.94  2192.82  2192.82  4689.10  4948.45
          (Kelvin)           4948.45
 
 Zero-point correction=                           0.030991 (Hartree/Particle)
 Thermal correction to Energy=                    0.034125
 Thermal correction to Enthalpy=                  0.035070
 Thermal correction to Gibbs Free Energy=         0.012206
 Sum of electronic and zero-point Energies=            -39.535707
 Sum of electronic and thermal Energies=               -39.532573
 Sum of electronic and thermal Enthalpies=             -39.531629
 Sum of electronic and thermal Free Energies=          -39.554493
 
                     E (Thermal)             CV                S
                      KCal/Mol        Cal/Mol-Kelvin    Cal/Mol-Kelvin
 Total                   21.414              7.531             48.121
 Electronic               0.000              0.000              1.377
 Translational            0.889              2.981             34.068
 Rotational               0.889              2.981             11.754
 Vibrational             19.637              1.570              0.921
 Vibration     1          0.781              1.432              0.900
                       Q            Log10(Q)             Ln(Q)
 Total Bot       0.243032D-05         -5.614336        -12.927487
 Total V=0       0.437199D+09          8.640679         19.895899
 Vib (Bot)       0.642162D-14        -14.192356        -32.679107
 Vib (Bot)    1  0.421144D+00         -0.375570         -0.864781
 Vib (V=0)       0.115521D+01          0.062660          0.144279
 Vib (V=0)    1  0.115373D+01          0.062104          0.143000
 Electronic      0.200000D+01          0.301030          0.693147
 Translational   0.228882D+07          6.359611         14.643545
 Rotational      0.826759D+02          1.917379          4.414928
 ***** Axes restored to original set *****
 -------------------------------------------------------------------
 Center     Atomic                   Forces (Hartrees/Bohr)
 Number     Number              X              Y              Z
 -------------------------------------------------------------------
      1        6           0.000001421    0.000000000    0.000000000
      2        1          -0.000000474    0.000001852    0.000000000
      3        1          -0.000000474   -0.000000926   -0.000001604
      4        1          -0.000000474   -0.000000926    0.000001604
 -------------------------------------------------------------------
 Cartesian Forces:  Max     0.000001852 RMS     0.000001040

 GradGradGradGradGradGradGradGradGradGradGradGradGradGradGradGradGradGrad
 Berny optimization.
 Internal  Forces:  Max     0.000001852 RMS     0.000001252
 Search for a local minimum.
 Step number   1 out of a maximum of    2
 All quantities printed in internal units (Hartrees-Bohrs-Radians)
 Second derivative matrix not updated -- analytic derivatives used.
 The second derivative matrix:
                          R1        R2        R3        A1        A2
           R1           0.40365
           R2           0.00073   0.40365
           R3           0.00073   0.00073   0.40365
           A1           0.00585   0.00585  -0.01169   0.07289
           A2           0.00585  -0.01169   0.00585  -0.03645   0.07289
           A3          -0.01169   0.00585   0.00585  -0.03645  -0.03645
           D1           0.00000   0.00000   0.00000   0.00000   0.00000
                          A3        D1
           A3           0.07289
           D1           0.00000   0.00546
     Eigenvalues ---    0.00546   0.10830   0.10830   0.40397   0.40397
     Eigenvalues ---    0.405111000.00000
 Angle between quadratic step and forces=  72.49 degrees.
 Linear search not attempted -- first point.
 Iteration  1 RMS(Cart)=  0.00002933 RMS(Int)=  0.00000000
 Iteration  2 RMS(Cart)=  0.00000000 RMS(Int)=  0.00000000
 ClnCor:  largest displacement from symmetrization is 2.18D-10 for atom     1.
 Variable       Old X    -DE/DX   Delta X   Delta X   Delta X     New X
                                 (Linear)    (Quad)   (Total)
    R1        2.02756   0.00000   0.00000   0.00000   0.00000   2.02756
    R2        2.02756   0.00000   0.00000   0.00000   0.00000   2.02756
    R3        2.02756   0.00000   0.00000   0.00000   0.00000   2.02756
    A1        2.09440   0.00000   0.00000   0.00000   0.00000   2.09440
    A2        2.09440   0.00000   0.00000   0.00000   0.00000   2.09440
    A3        2.09440   0.00000   0.00000   0.00000   0.00000   2.09440
    D1       -3.14144   0.00000   0.00000  -0.00015  -0.00015   3.14159
         Item               Value     Threshold  Converged?
 Maximum Force            0.000002     0.000450     YES
 RMS     Force            0.000001     0.000300     YES
 Maximum Displacement     0.000067     0.001800     YES
 RMS     Displacement     0.000029     0.001200     YES
 Predicted change in Energy=-7.602802D-11
 Optimization completed.
    -- Stationary point found.
                           ----------------------------
                           !   Optimized Parameters   !
                           ! (Angstroms and Degrees)  !
 --------------------------                            --------------------------
 ! Name  Definition              Value          Derivative Info.                !
 --------------------------------------------------------------------------------
 ! R1    R(1,2)                  1.0729         -DE/DX =    0.0                 !
 ! R2    R(1,3)                  1.0729         -DE/DX =    0.0                 !
 ! R3    R(1,4)                  1.0729         -DE/DX =    0.0                 !
 ! A1    A(2,1,3)              120.0            -DE/DX =    0.0                 !
 ! A2    A(2,1,4)              120.0            -DE/DX =    0.0                 !
 ! A3    A(3,1,4)              120.0            -DE/DX =    0.0                 !
 ! D1    D(2,1,4,3)            180.0087         -DE/DX =    0.0                 !
 --------------------------------------------------------------------------------
 GradGradGradGradGradGradGradGradGradGradGradGradGradGradGradGradGradGrad

 1|1|UNPC-DESKTOP-319GPER|Freq|UHF|6-31+G(d,p)|C1H3(2)|SAGAD|08-Oct-202
 0|0||#N Geom=AllCheck Guess=TCheck SCRF=Check GenChk UHF/6-31+G(d,p) F
 req||Calculation of methyl radical with HF||0,2|C,-1.9879722718,-0.053
 2736822,-0.8736515008|H,-1.9879380491,-1.1262146032,-0.8736516095|H,-1
 .9879186388,0.4831966834,0.0555426475|H,-1.9879186353,0.4831968716,-1.
 8028455405||Version=IA32W-G09RevA.02|State=2-A1|HF=-39.5666988|S2=0.76
 044|S2-1=0.|S2A=0.75006|RMSD=3.477e-010|RMSF=1.040e-006|ZeroPoint=0.03
 09914|Thermal=0.0341254|Dipole=0.0000441,0.,0.|DipoleDeriv=-0.4947834,
 0.0000068,0.,0.0000068,0.0654264,0.,0.,0.,0.0654264,0.1649278,0.000013
 5,0.,0.0000054,-0.0777748,0.,0.,0.,0.0341571,0.1649278,-0.0000101,-0.0
 000148,-0.0000061,0.0061742,-0.048468,-0.0000078,-0.048468,-0.0497918,
 0.1649278,-0.0000101,0.0000148,-0.0000061,0.0061741,0.048468,0.0000078
 ,0.048468,-0.0497918|Polar=9.4391535,0.0000323,12.1195191,0.,0.,12.119
 5191|PolarDeriv=0.0005613,0.,-0.0006825,0.,0.,-0.0007828,0.0000001,-0.
 0005444,4.1593429,0.,0.0000013,-4.1593435,0.,0.,0.0000013,-0.0006447,-
 4.1593436,-0.0000013,-0.0002064,-0.8813109,0.0002865,0.,0.,0.0001111,0
 .1580674,0.0002452,-8.3659091,0.,-0.0000007,-0.933309,0.,0.,-0.0000007
 ,0.0000476,-0.9434036,-0.0000003,-0.0001774,0.4406554,0.000198,0.76323
 77,0.0001207,0.0003359,-0.0790337,0.0001496,2.1032816,0.0001357,2.0177
 106,2.5463266,-0.1368904,0.0001464,2.0089683,0.0002985,2.5513739,6.044
 3912,-0.0001774,0.4406555,0.000198,-0.7632376,-0.0001207,0.0003359,-0.
 0790337,0.0001496,2.1032828,-0.0001357,-2.0177112,2.546327,0.1368904,-
 0.0001464,-2.008969,0.0002986,2.5513744,-6.0443897|HyperPolar=-0.00375
 25,0.,-0.0001798,-19.6281866,0.,0.,-0.000006,0.0002937,19.6281866,0.00
 0006|PG=C03V [C3(C1),3SGV(H1)]|NImag=0||0.01594353,0.00000800,0.679122
 81,0.,0.,0.67912282,-0.00531451,0.00001482,0.,0.00177212,0.00000933,-0
 .38794024,-0.00000003,-0.00001101,0.40365149,0.,-0.00000003,-0.0648083
 1,0.,0.00000004,0.05319466,-0.00531451,-0.00001141,-0.00001852,0.00177
 119,0.00000084,0.00000118,0.00177212,-0.00000866,-0.14559126,-0.139920
 21,-0.00000190,-0.00785562,-0.02735885,0.00000961,0.14080884,-0.000013
 76,-0.13992021,-0.30715729,-0.00000003,0.00369481,0.00580682,0.0000155
 7,0.15175224,0.31603732,-0.00531451,-0.00001141,0.00001852,0.00177119,
 0.00000084,-0.00000118,0.00177119,0.00000096,-0.00000177,0.00177212,-0
 .00000866,-0.14559132,0.13992025,-0.00000190,-0.00785562,0.02735885,0.
 00000096,0.01263804,-0.01552683,0.00000961,0.14080890,0.00001376,0.139
 92024,-0.30715723,0.00000003,-0.00369481,0.00580683,0.00000177,0.01552
 683,-0.01468684,-0.00001557,-0.15175228,0.31603725||-0.00000142,0.,0.,
 0.00000047,-0.00000185,0.,0.00000047,0.00000093,0.00000160,0.00000047,
 0.00000093,-0.00000160|||@


 IF AT FIRST YOU DON'T SUCCEED, TRY, TRY AGAIN.
 THEN GIVE UP;
 THERE'S NO USE BEING A DAMN FOOL ABOUT IT.

                                 -- W. C. FIELDS
 Job cpu time:  0 days  0 hours  0 minutes  3.0 seconds.
 File lengths (MBytes):  RWF=      5 Int=      0 D2E=      0 Chk=      1 Scr=      1
 Normal termination of Gaussian 09 at Thu Oct 08 03:02:23 2020.
