 Entering Link 1 = C:\G09W\l1.exe PID=      4952.
  
 Copyright (c) 1988,1990,1992,1993,1995,1998,2003,2009, Gaussian, Inc.
                  All Rights Reserved.
  
 This is part of the Gaussian(R) 09 program.  It is based on
 the Gaussian(R) 03 system (copyright 2003, Gaussian, Inc.),
 the Gaussian(R) 98 system (copyright 1998, Gaussian, Inc.),
 the Gaussian(R) 94 system (copyright 1995, Gaussian, Inc.),
 the Gaussian 92(TM) system (copyright 1992, Gaussian, Inc.),
 the Gaussian 90(TM) system (copyright 1990, Gaussian, Inc.),
 the Gaussian 88(TM) system (copyright 1988, Gaussian, Inc.),
 the Gaussian 86(TM) system (copyright 1986, Carnegie Mellon
 University), and the Gaussian 82(TM) system (copyright 1983,
 Carnegie Mellon University). Gaussian is a federally registered
 trademark of Gaussian, Inc.
  
 This software contains proprietary and confidential information,
 including trade secrets, belonging to Gaussian, Inc.
  
 This software is provided under written license and may be
 used, copied, transmitted, or stored only in accord with that
 written license.
  
 The following legend is applicable only to US Government
 contracts under FAR:
  
                    RESTRICTED RIGHTS LEGEND
  
 Use, reproduction and disclosure by the US Government is
 subject to restrictions as set forth in subparagraphs (a)
 and (c) of the Commercial Computer Software - Restricted
 Rights clause in FAR 52.227-19.
  
 Gaussian, Inc.
 340 Quinnipiac St., Bldg. 40, Wallingford CT 06492
  
  
 ---------------------------------------------------------------
 Warning -- This program may not be used in any manner that
 competes with the business of Gaussian, Inc. or will provide
 assistance to any competitor of Gaussian, Inc.  The licensee
 of this program is prohibited from giving any competitor of
 Gaussian, Inc. access to this program.  By using this program,
 the user acknowledges that Gaussian, Inc. is engaged in the
 business of creating and licensing software in the field of
 computational chemistry and represents and warrants to the
 licensee that it is not a competitor of Gaussian, Inc. and that
 it will not use this program in any manner prohibited above.
 ---------------------------------------------------------------
  

 Cite this work as:
 Gaussian 09, Revision A.02,
 M. J. Frisch, G. W. Trucks, H. B. Schlegel, G. E. Scuseria, 
 M. A. Robb, J. R. Cheeseman, G. Scalmani, V. Barone, B. Mennucci, 
 G. A. Petersson, H. Nakatsuji, M. Caricato, X. Li, H. P. Hratchian, 
 A. F. Izmaylov, J. Bloino, G. Zheng, J. L. Sonnenberg, M. Hada, 
 M. Ehara, K. Toyota, R. Fukuda, J. Hasegawa, M. Ishida, T. Nakajima, 
 Y. Honda, O. Kitao, H. Nakai, T. Vreven, J. A. Montgomery, Jr., 
 J. E. Peralta, F. Ogliaro, M. Bearpark, J. J. Heyd, E. Brothers, 
 K. N. Kudin, V. N. Staroverov, R. Kobayashi, J. Normand, 
 K. Raghavachari, A. Rendell, J. C. Burant, S. S. Iyengar, J. Tomasi, 
 M. Cossi, N. Rega, J. M. Millam, M. Klene, J. E. Knox, J. B. Cross, 
 V. Bakken, C. Adamo, J. Jaramillo, R. Gomperts, R. E. Stratmann, 
 O. Yazyev, A. J. Austin, R. Cammi, C. Pomelli, J. W. Ochterski, 
 R. L. Martin, K. Morokuma, V. G. Zakrzewski, G. A. Voth, 
 P. Salvador, J. J. Dannenberg, S. Dapprich, A. D. Daniels, 
 O. Farkas, J. B. Foresman, J. V. Ortiz, J. Cioslowski, 
 and D. J. Fox, Gaussian, Inc., Wallingford CT, 2009.
 
 ******************************************
 Gaussian 09:  IA32W-G09RevA.02 11-Jun-2009
                08-Oct-2020 
 ******************************************
 %chk=C:\Users\sagad\Documents\rayGit\FQ\quimicaComputacional\class4Metilo\produc
 tos\waterM062XTwo.chk
 %nprocshared=4
 Will use up to    4 processors via shared memory.
 %mem=1500MB
 -----------------------------
 #opt freq M062X/6-311++g(d,p)
 -----------------------------
 1/14=-1,18=20,19=15,26=3,38=1/1,3;
 2/9=110,12=2,17=6,18=5,40=1/2;
 3/5=4,6=6,7=1111,11=2,16=1,25=1,30=1,71=1,74=-55/1,2,3;
 4//1;
 5/5=2,38=5/2;
 6/7=2,8=2,9=2,10=2,28=1/1;
 7//1,2,3,16;
 1/14=-1,18=20,19=15/3(2);
 2/9=110/2;
 99//99;
 2/9=110/2;
 3/5=4,6=6,7=1111,11=2,16=1,25=1,30=1,71=1,74=-55/1,2,3;
 4/5=5,16=3/1;
 5/5=2,38=5/2;
 7//1,2,3,16;
 1/14=-1,18=20,19=15/3(-5);
 2/9=110/2;
 6/7=2,8=2,9=2,10=2,19=2,28=1/1;
 99/9=1/99;
 ---------------------------------------------
 Calculation of water M062X with 6-311++g(d,p)
 ---------------------------------------------
 Symbolic Z-matrix:
 Charge =  0 Multiplicity = 1
 O                    -0.18932  -0.56391   0. 
 H                     0.77068  -0.56391   0. 
 H                    -0.50978   0.34103   0. 
 

 GradGradGradGradGradGradGradGradGradGradGradGradGradGradGradGradGradGrad
 Berny optimization.
 Initialization pass.
                           ----------------------------
                           !    Initial Parameters    !
                           ! (Angstroms and Degrees)  !
 --------------------------                            --------------------------
 ! Name  Definition              Value          Derivative Info.                !
 --------------------------------------------------------------------------------
 ! R1    R(1,2)                  0.96           estimate D2E/DX2                !
 ! R2    R(1,3)                  0.96           estimate D2E/DX2                !
 ! A1    A(2,1,3)              109.5            estimate D2E/DX2                !
 --------------------------------------------------------------------------------
 Trust Radius=3.00D-01 FncErr=1.00D-07 GrdErr=1.00D-06
 Number of steps in this run=  20 maximum allowed number of steps= 100.
 GradGradGradGradGradGradGradGradGradGradGradGradGradGradGradGradGradGrad

                          Input orientation:                          
 ---------------------------------------------------------------------
 Center     Atomic      Atomic             Coordinates (Angstroms)
 Number     Number       Type             X           Y           Z
 ---------------------------------------------------------------------
      1          8           0       -0.189323   -0.563910    0.000000
      2          1           0        0.770677   -0.563910    0.000000
      3          1           0       -0.509778    0.341026    0.000000
 ---------------------------------------------------------------------
                    Distance matrix (angstroms):
                    1          2          3
     1  O    0.000000
     2  H    0.960000   0.000000
     3  H    0.960000   1.567952   0.000000
 Stoichiometry    H2O
 Framework group  C2V[C2(O),SGV(H2)]
 Deg. of freedom     2
 Full point group                 C2V     NOp   4
 Largest Abelian subgroup         C2V     NOp   4
 Largest concise Abelian subgroup C2      NOp   2
                         Standard orientation:                         
 ---------------------------------------------------------------------
 Center     Atomic      Atomic             Coordinates (Angstroms)
 Number     Number       Type             X           Y           Z
 ---------------------------------------------------------------------
      1          8           0        0.000000    0.000000    0.110812
      2          1           0        0.000000   -0.783976   -0.443248
      3          1           0        0.000000    0.783976   -0.443248
 ---------------------------------------------------------------------
 Rotational constants (GHZ):    919.6759295    407.9403325    282.5913747
 Standard basis: 6-311++G(d,p) (5D, 7F)
 There are    17 symmetry adapted basis functions of A1  symmetry.
 There are     2 symmetry adapted basis functions of A2  symmetry.
 There are     6 symmetry adapted basis functions of B1  symmetry.
 There are    11 symmetry adapted basis functions of B2  symmetry.
 Integral buffers will be    262144 words long.
 Raffenetti 2 integral format.
 Two-electron integral symmetry is turned on.
    36 basis functions,    54 primitive gaussians,    37 cartesian basis functions
     5 alpha electrons        5 beta electrons
       nuclear repulsion energy         9.1571159776 Hartrees.
 NAtoms=    3 NActive=    3 NUniq=    2 SFac= 1.69D+00 NAtFMM=   80 NAOKFM=F Big=F
 One-electron integrals computed using PRISM.
 NBasis=    36 RedAO= T  NBF=    17     2     6    11
 NBsUse=    36 1.00D-06 NBFU=    17     2     6    11
 Harris functional with IExCor= 1009 diagonalized for initial guess.
 ExpMin= 3.60D-02 ExpMax= 8.59D+03 ExpMxC= 1.30D+03 IAcc=3 IRadAn=         0 AccDes= 0.00D+00
 HarFok:  IExCor= 1009 AccDes= 0.00D+00 IRadAn=         0 IDoV= 1
 ScaDFX=  1.000000  1.000000  1.000000  1.000000
 FoFCou: FMM=F IPFlag=           0 FMFlag=      100000 FMFlg1=           0
         NFxFlg=           0 DoJE=T BraDBF=F KetDBF=T FulRan=T
         Omega=  0.000000  0.000000  1.000000  0.000000  0.000000 ICntrl=     500 IOpCl=  0
         NMat0=    1 NMatS0=    1 NMatT0=    0 NMatD0=    1 NMtDS0=    0 NMtDT0=    0
         I1Cent=           4 NGrid=           0.
 Petite list used in FoFCou.
 Initial guess orbital symmetries:
       Occupied  (A1) (A1) (B2) (A1) (B1)
       Virtual   (A1) (B2) (A1) (B1) (B2) (A1) (B2) (A1) (B2) (A1)
                 (A1) (B1) (B2) (A2) (A1) (A1) (B1) (B2) (B2) (A1)
                 (A1) (B2) (B1) (A2) (A1) (A1) (B2) (B1) (A1) (B2)
                 (A1)
 The electronic state of the initial guess is 1-A1.
 Requested convergence on RMS density matrix=1.00D-08 within 128 cycles.
 Requested convergence on MAX density matrix=1.00D-06.
 Requested convergence on             energy=1.00D-06.
 No special actions if energy rises.
 Keep R1 ints in memory in canonical form, NReq=1151819.
 SCF Done:  E(RM062X) =  -76.4204588801     A.U. after    9 cycles
             Convg  =    0.1375D-08             -V/T =  2.0028

 **********************************************************************

            Population analysis using the SCF density.

 **********************************************************************

 Orbital symmetries:
       Occupied  (A1) (A1) (B2) (A1) (B1)
       Virtual   (A1) (B2) (A1) (A1) (B1) (B2) (B2) (A1) (B2) (A1)
                 (A1) (B2) (B1) (A2) (A1) (A1) (B1) (B2) (B2) (A1)
                 (A1) (B2) (B1) (A2) (A1) (A1) (B2) (B1) (A1) (B2)
                 (A1)
 The electronic state is 1-A1.
 Alpha  occ. eigenvalues --  -19.62345  -1.13449  -0.62104  -0.46488  -0.39969
 Alpha virt. eigenvalues --   -0.00668   0.03190   0.16673   0.17442   0.17970
 Alpha virt. eigenvalues --    0.18556   0.24493   0.25013   0.55384   0.58046
 Alpha virt. eigenvalues --    1.01788   1.05628   1.06263   1.29222   1.32347
 Alpha virt. eigenvalues --    1.43295   1.53392   1.67871   2.07038   2.17478
 Alpha virt. eigenvalues --    2.45463   2.58184   3.14339   3.22862   3.36442
 Alpha virt. eigenvalues --    3.76773   3.91862   5.05699   5.39592   5.75592
 Alpha virt. eigenvalues --   49.98303
          Condensed to atoms (all electrons):
              1          2          3
     1  O    7.874628   0.332094   0.332094
     2  H    0.332094   0.425883  -0.027384
     3  H    0.332094  -0.027384   0.425883
 Mulliken atomic charges:
              1
     1  O   -0.538815
     2  H    0.269408
     3  H    0.269408
 Sum of Mulliken atomic charges =   0.00000
 Mulliken charges with hydrogens summed into heavy atoms:
              1
     1  O    0.000000
 Sum of Mulliken charges with hydrogens summed into heavy atoms =   0.00000
 Electronic spatial extent (au):  <R**2>=             19.8777
 Charge=              0.0000 electrons
 Dipole moment (field-independent basis, Debye):
    X=              0.0000    Y=              0.0000    Z=             -2.1149  Tot=              2.1149
 Quadrupole moment (field-independent basis, Debye-Ang):
   XX=             -7.7092   YY=             -4.1773   ZZ=             -6.5862
   XY=              0.0000   XZ=              0.0000   YZ=              0.0000
 Traceless Quadrupole moment (field-independent basis, Debye-Ang):
   XX=             -1.5517   YY=              1.9803   ZZ=             -0.4286
   XY=              0.0000   XZ=              0.0000   YZ=              0.0000
 Octapole moment (field-independent basis, Debye-Ang**2):
  XXX=              0.0000  YYY=              0.0000  ZZZ=             -1.4391  XYY=              0.0000
  XXY=              0.0000  XXZ=             -0.4218  XZZ=              0.0000  YZZ=              0.0000
  YYZ=             -1.3960  XYZ=              0.0000
 Hexadecapole moment (field-independent basis, Debye-Ang**3):
 XXXX=             -7.2182 YYYY=             -6.1820 ZZZZ=             -7.7451 XXXY=              0.0000
 XXXZ=              0.0000 YYYX=              0.0000 YYYZ=              0.0000 ZZZX=              0.0000
 ZZZY=              0.0000 XXYY=             -2.5759 XXZZ=             -2.5386 YYZZ=             -2.0549
 XXYZ=              0.0000 YYXZ=              0.0000 ZZXY=              0.0000
 N-N= 9.157115977618D+00 E-N=-1.991718497590D+02  KE= 7.620903238708D+01
 Symmetry A1   KE= 6.808490602539D+01
 Symmetry A2   KE= 8.752986525144D-35
 Symmetry B1   KE= 4.506577774800D+00
 Symmetry B2   KE= 3.617548586900D+00
 Calling FoFJK, ICntrl=      2127 FMM=F ISym2X=1 I1Cent= 0 IOpClX= 0 NMat=1 NMatS=1 NMatT=0.
 ***** Axes restored to original set *****
 -------------------------------------------------------------------
 Center     Atomic                   Forces (Hartrees/Bohr)
 Number     Number              X              Y              Z
 -------------------------------------------------------------------
      1        8          -0.003845585   -0.005441377    0.000000000
      2        1          -0.002816582    0.006070147    0.000000000
      3        1           0.006662167   -0.000628770    0.000000000
 -------------------------------------------------------------------
 Cartesian Forces:  Max     0.006662167 RMS     0.003857990

 GradGradGradGradGradGradGradGradGradGradGradGradGradGradGradGradGradGrad
 Berny optimization.
 Internal  Forces:  Max     0.011012080 RMS     0.006760970
 Search for a local minimum.
 Step number   1 out of a maximum of   20
 All quantities printed in internal units (Hartrees-Bohrs-Radians)
 Mixed Optimization -- RFO/linear search
 Second derivative matrix not updated -- first step.
 The second derivative matrix:
                          R1        R2        A1
           R1           0.55473
           R2           0.00000   0.55473
           A1           0.00000   0.00000   0.16000
     Eigenvalues ---    0.16000   0.55473   0.55473
 RFO step:  Lambda=-7.82783256D-04 EMin= 1.60000000D-01
 Linear search not attempted -- first point.
 Iteration  1 RMS(Cart)=  0.03965496 RMS(Int)=  0.00087509
 Iteration  2 RMS(Cart)=  0.00072695 RMS(Int)=  0.00000004
 Iteration  3 RMS(Cart)=  0.00000004 RMS(Int)=  0.00000000
 ClnCor:  largest displacement from symmetrization is 4.97D-16 for atom     3.
 Variable       Old X    -DE/DX   Delta X   Delta X   Delta X     New X
                                 (Linear)    (Quad)   (Total)
    R1        1.81414  -0.00282   0.00000  -0.00507  -0.00507   1.80907
    R2        1.81414  -0.00282   0.00000  -0.00507  -0.00507   1.80907
    A1        1.91114  -0.01101   0.00000  -0.06849  -0.06849   1.84265
         Item               Value     Threshold  Converged?
 Maximum Force            0.011012     0.000450     NO 
 RMS     Force            0.006761     0.000300     NO 
 Maximum Displacement     0.042333     0.001800     NO 
 RMS     Displacement     0.039989     0.001200     NO 
 Predicted change in Energy=-3.932477D-04
 GradGradGradGradGradGradGradGradGradGradGradGradGradGradGradGradGradGrad

                          Input orientation:                          
 ---------------------------------------------------------------------
 Center     Atomic      Atomic             Coordinates (Angstroms)
 Number     Number       Type             X           Y           Z
 ---------------------------------------------------------------------
      1          8           0       -0.198902   -0.577463    0.000000
      2          1           0        0.757854   -0.544686    0.000000
      3          1           0       -0.487376    0.335356    0.000000
 ---------------------------------------------------------------------
                    Distance matrix (angstroms):
                    1          2          3
     1  O    0.000000
     2  H    0.957317   0.000000
     3  H    0.957317   1.524819   0.000000
 Stoichiometry    H2O
 Framework group  C2V[C2(O),SGV(H2)]
 Deg. of freedom     2
 Full point group                 C2V     NOp   4
 Largest Abelian subgroup         C2V     NOp   4
 Largest concise Abelian subgroup C2      NOp   2
                         Standard orientation:                         
 ---------------------------------------------------------------------
 Center     Atomic      Atomic             Coordinates (Angstroms)
 Number     Number       Type             X           Y           Z
 ---------------------------------------------------------------------
      1          8           0        0.000000    0.000000    0.115791
      2          1           0        0.000000    0.762409   -0.463163
      3          1           0        0.000000   -0.762409   -0.463163
 ---------------------------------------------------------------------
 Rotational constants (GHZ):    842.2852498    431.3459232    285.2602201
 Standard basis: 6-311++G(d,p) (5D, 7F)
 There are    17 symmetry adapted basis functions of A1  symmetry.
 There are     2 symmetry adapted basis functions of A2  symmetry.
 There are     6 symmetry adapted basis functions of B1  symmetry.
 There are    11 symmetry adapted basis functions of B2  symmetry.
 Integral buffers will be    262144 words long.
 Raffenetti 2 integral format.
 Two-electron integral symmetry is turned on.
    36 basis functions,    54 primitive gaussians,    37 cartesian basis functions
     5 alpha electrons        5 beta electrons
       nuclear repulsion energy         9.1913812709 Hartrees.
 NAtoms=    3 NActive=    3 NUniq=    2 SFac= 1.69D+00 NAtFMM=   80 NAOKFM=F Big=F
 One-electron integrals computed using PRISM.
 NBasis=    36 RedAO= T  NBF=    17     2     6    11
 NBsUse=    36 1.00D-06 NBFU=    17     2     6    11
 Initial guess read from the read-write file.
 B after Tr=     0.000000    0.000000    0.000000
         Rot=    1.000000    0.000000    0.000000    0.000000 Ang=   0.00 deg.
 Initial guess orbital symmetries:
       Occupied  (A1) (A1) (B2) (A1) (B1)
       Virtual   (A1) (B2) (A1) (A1) (B1) (B2) (B2) (A1) (B2) (A1)
                 (A1) (B2) (B1) (A2) (A1) (A1) (B1) (B2) (B2) (A1)
                 (A1) (B2) (B1) (A2) (A1) (A1) (B2) (B1) (A1) (B2)
                 (A1)
 Harris functional with IExCor= 1009 diagonalized for initial guess.
 ExpMin= 3.60D-02 ExpMax= 8.59D+03 ExpMxC= 1.30D+03 IAcc=3 IRadAn=         0 AccDes= 0.00D+00
 HarFok:  IExCor= 1009 AccDes= 0.00D+00 IRadAn=         0 IDoV= 1
 ScaDFX=  1.000000  1.000000  1.000000  1.000000
 FoFCou: FMM=F IPFlag=           0 FMFlag=      100000 FMFlg1=           0
         NFxFlg=           0 DoJE=T BraDBF=F KetDBF=T FulRan=T
         Omega=  0.000000  0.000000  1.000000  0.000000  0.000000 ICntrl=     500 IOpCl=  0
         NMat0=    1 NMatS0=    1 NMatT0=    0 NMatD0=    1 NMtDS0=    0 NMtDT0=    0
         I1Cent=           4 NGrid=           0.
 Petite list used in FoFCou.
 Requested convergence on RMS density matrix=1.00D-08 within 128 cycles.
 Requested convergence on MAX density matrix=1.00D-06.
 Requested convergence on             energy=1.00D-06.
 No special actions if energy rises.
 Keep R1 ints in memory in canonical form, NReq=1151819.
 SCF Done:  E(RM062X) =  -76.4208791143     A.U. after   10 cycles
             Convg  =    0.2066D-08             -V/T =  2.0026
 Calling FoFJK, ICntrl=      2127 FMM=F ISym2X=1 I1Cent= 0 IOpClX= 0 NMat=1 NMatS=1 NMatT=0.
 ***** Axes restored to original set *****
 -------------------------------------------------------------------
 Center     Atomic                   Forces (Hartrees/Bohr)
 Number     Number              X              Y              Z
 -------------------------------------------------------------------
      1        8          -0.001704192   -0.002411376    0.000000000
      2        1           0.001727481    0.000587027    0.000000000
      3        1          -0.000023289    0.001824349    0.000000000
 -------------------------------------------------------------------
 Cartesian Forces:  Max     0.002411376 RMS     0.001307100

 GradGradGradGradGradGradGradGradGradGradGradGradGradGradGradGradGradGrad
 Berny optimization.
 Using GEDIIS/GDIIS optimizer.
 Internal  Forces:  Max     0.001746567 RMS     0.001528809
 Search for a local minimum.
 Step number   2 out of a maximum of   20
 All quantities printed in internal units (Hartrees-Bohrs-Radians)
 Mixed Optimization -- RFO/linear search
 Update second derivatives using D2CorX and points    1    2
 DE= -4.20D-04 DEPred=-3.93D-04 R= 1.07D+00
 SS=  1.41D+00  RLast= 6.89D-02 DXNew= 5.0454D-01 2.0659D-01
 Trust test= 1.07D+00 RLast= 6.89D-02 DXMaxT set to 3.00D-01
 The second derivative matrix:
                          R1        R2        A1
           R1           0.57290
           R2           0.01817   0.57290
           A1           0.02287   0.02287   0.14346
 Use linear search instead of GDIIS.
     Eigenvalues ---    0.14114   0.55473   0.59340
 RFO step:  Lambda=-1.54534453D-05 EMin= 1.41138262D-01
 Quartic linear search produced a step of  0.06210.
 Iteration  1 RMS(Cart)=  0.00368031 RMS(Int)=  0.00001292
 Iteration  2 RMS(Cart)=  0.00001428 RMS(Int)=  0.00000000
 Iteration  3 RMS(Cart)=  0.00000000 RMS(Int)=  0.00000000
 ClnCor:  largest displacement from symmetrization is 1.70D-15 for atom     3.
 Variable       Old X    -DE/DX   Delta X   Delta X   Delta X     New X
                                 (Linear)    (Quad)   (Total)
    R1        1.80907   0.00175  -0.00031   0.00356   0.00325   1.81231
    R2        1.80907   0.00175  -0.00031   0.00356   0.00325   1.81231
    A1        1.84265  -0.00095  -0.00425  -0.00323  -0.00749   1.83516
         Item               Value     Threshold  Converged?
 Maximum Force            0.001747     0.000450     NO 
 RMS     Force            0.001529     0.000300     NO 
 Maximum Displacement     0.004006     0.001800     NO 
 RMS     Displacement     0.003686     0.001200     NO 
 Predicted change in Energy=-9.346637D-06
 GradGradGradGradGradGradGradGradGradGradGradGradGradGradGradGradGradGrad

                          Input orientation:                          
 ---------------------------------------------------------------------
 Center     Atomic      Atomic             Coordinates (Angstroms)
 Number     Number       Type             X           Y           Z
 ---------------------------------------------------------------------
      1          8           0       -0.200400   -0.579583    0.000000
      2          1           0        0.757944   -0.543160    0.000000
      3          1           0       -0.485968    0.335950    0.000000
 ---------------------------------------------------------------------
                    Distance matrix (angstroms):
                    1          2          3
     1  O    0.000000
     2  H    0.959036   0.000000
     3  H    0.959036   1.523204   0.000000
 Stoichiometry    H2O
 Framework group  C2V[C2(O),SGV(H2)]
 Deg. of freedom     2
 Full point group                 C2V     NOp   4
 Largest Abelian subgroup         C2V     NOp   4
 Largest concise Abelian subgroup C2      NOp   2
                         Standard orientation:                         
 ---------------------------------------------------------------------
 Center     Atomic      Atomic             Coordinates (Angstroms)
 Number     Number       Type             X           Y           Z
 ---------------------------------------------------------------------
      1          8           0        0.000000    0.000000    0.116570
      2          1           0        0.000000    0.761602   -0.466279
      3          1           0        0.000000   -0.761602   -0.466279
 ---------------------------------------------------------------------
 Rotational constants (GHZ):    831.0675985    432.2609894    284.3584051
 Standard basis: 6-311++G(d,p) (5D, 7F)
 There are    17 symmetry adapted basis functions of A1  symmetry.
 There are     2 symmetry adapted basis functions of A2  symmetry.
 There are     6 symmetry adapted basis functions of B1  symmetry.
 There are    11 symmetry adapted basis functions of B2  symmetry.
 Integral buffers will be    262144 words long.
 Raffenetti 2 integral format.
 Two-electron integral symmetry is turned on.
    36 basis functions,    54 primitive gaussians,    37 cartesian basis functions
     5 alpha electrons        5 beta electrons
       nuclear repulsion energy         9.1758982395 Hartrees.
 NAtoms=    3 NActive=    3 NUniq=    2 SFac= 1.69D+00 NAtFMM=   80 NAOKFM=F Big=F
 One-electron integrals computed using PRISM.
 NBasis=    36 RedAO= T  NBF=    17     2     6    11
 NBsUse=    36 1.00D-06 NBFU=    17     2     6    11
 Initial guess read from the read-write file.
 B after Tr=     0.000000    0.000000    0.000000
         Rot=    1.000000    0.000000    0.000000    0.000000 Ang=   0.00 deg.
 Initial guess orbital symmetries:
       Occupied  (A1) (A1) (B2) (A1) (B1)
       Virtual   (A1) (B2) (A1) (A1) (B1) (B2) (B2) (A1) (B2) (A1)
                 (A1) (B2) (B1) (A1) (A2) (A1) (B1) (B2) (B2) (A1)
                 (A1) (B2) (B1) (A2) (A1) (A1) (B2) (B1) (A1) (B2)
                 (A1)
 Requested convergence on RMS density matrix=1.00D-08 within 128 cycles.
 Requested convergence on MAX density matrix=1.00D-06.
 Requested convergence on             energy=1.00D-06.
 No special actions if energy rises.
 Keep R1 ints in memory in canonical form, NReq=1151819.
 SCF Done:  E(RM062X) =  -76.4208888263     A.U. after    7 cycles
             Convg  =    0.4806D-08             -V/T =  2.0026
 Calling FoFJK, ICntrl=      2127 FMM=F ISym2X=1 I1Cent= 0 IOpClX= 0 NMat=1 NMatS=1 NMatT=0.
 ***** Axes restored to original set *****
 -------------------------------------------------------------------
 Center     Atomic                   Forces (Hartrees/Bohr)
 Number     Number              X              Y              Z
 -------------------------------------------------------------------
      1        8          -0.000099671   -0.000141031    0.000000000
      2        1           0.000135608    0.000009897    0.000000000
      3        1          -0.000035937    0.000131134    0.000000000
 -------------------------------------------------------------------
 Cartesian Forces:  Max     0.000141031 RMS     0.000086152

 GradGradGradGradGradGradGradGradGradGradGradGradGradGradGradGradGradGrad
 Berny optimization.
 Using GEDIIS/GDIIS optimizer.
 Internal  Forces:  Max     0.000135886 RMS     0.000111061
 Search for a local minimum.
 Step number   3 out of a maximum of   20
 All quantities printed in internal units (Hartrees-Bohrs-Radians)
 Mixed Optimization -- En-DIIS/RFO-DIIS
 Update second derivatives using D2CorX and points    1    2    3
 DE= -9.71D-06 DEPred=-9.35D-06 R= 1.04D+00
 SS=  1.41D+00  RLast= 8.78D-03 DXNew= 5.0454D-01 2.6349D-02
 Trust test= 1.04D+00 RLast= 8.78D-03 DXMaxT set to 3.00D-01
 The second derivative matrix:
                          R1        R2        A1
           R1           0.55476
           R2           0.00003   0.55476
           A1           0.02555   0.02555   0.14851
 Use linear search instead of GDIIS.
     Eigenvalues ---    0.14532   0.55473   0.55798
 RFO step:  Lambda=-1.84060816D-08 EMin= 1.45322187D-01
 Quartic linear search produced a step of  0.05411.
 Iteration  1 RMS(Cart)=  0.00015601 RMS(Int)=  0.00000001
 Iteration  2 RMS(Cart)=  0.00000001 RMS(Int)=  0.00000000
 ClnCor:  largest displacement from symmetrization is 1.82D-15 for atom     1.
 Variable       Old X    -DE/DX   Delta X   Delta X   Delta X     New X
                                 (Linear)    (Quad)   (Total)
    R1        1.81231   0.00014   0.00018   0.00008   0.00025   1.81257
    R2        1.81231   0.00014   0.00018   0.00008   0.00025   1.81257
    A1        1.83516  -0.00001  -0.00041   0.00026  -0.00015   1.83501
         Item               Value     Threshold  Converged?
 Maximum Force            0.000136     0.000450     YES
 RMS     Force            0.000111     0.000300     YES
 Maximum Displacement     0.000147     0.001800     YES
 RMS     Displacement     0.000156     0.001200     YES
 Predicted change in Energy=-3.480714D-08
 Optimization completed.
    -- Stationary point found.
                           ----------------------------
                           !   Optimized Parameters   !
                           ! (Angstroms and Degrees)  !
 --------------------------                            --------------------------
 ! Name  Definition              Value          Derivative Info.                !
 --------------------------------------------------------------------------------
 ! R1    R(1,2)                  0.959          -DE/DX =    0.0001              !
 ! R2    R(1,3)                  0.959          -DE/DX =    0.0001              !
 ! A1    A(2,1,3)              105.1469         -DE/DX =    0.0                 !
 --------------------------------------------------------------------------------
 GradGradGradGradGradGradGradGradGradGradGradGradGradGradGradGradGradGrad

                          Input orientation:                          
 ---------------------------------------------------------------------
 Center     Atomic      Atomic             Coordinates (Angstroms)
 Number     Number       Type             X           Y           Z
 ---------------------------------------------------------------------
      1          8           0       -0.200400   -0.579583    0.000000
      2          1           0        0.757944   -0.543160    0.000000
      3          1           0       -0.485968    0.335950    0.000000
 ---------------------------------------------------------------------
                    Distance matrix (angstroms):
                    1          2          3
     1  O    0.000000
     2  H    0.959036   0.000000
     3  H    0.959036   1.523204   0.000000
 Stoichiometry    H2O
 Framework group  C2V[C2(O),SGV(H2)]
 Deg. of freedom     2
 Full point group                 C2V     NOp   4
 Largest Abelian subgroup         C2V     NOp   4
 Largest concise Abelian subgroup C2      NOp   2
                         Standard orientation:                         
 ---------------------------------------------------------------------
 Center     Atomic      Atomic             Coordinates (Angstroms)
 Number     Number       Type             X           Y           Z
 ---------------------------------------------------------------------
      1          8           0        0.000000    0.000000    0.116570
      2          1           0        0.000000    0.761602   -0.466279
      3          1           0        0.000000   -0.761602   -0.466279
 ---------------------------------------------------------------------
 Rotational constants (GHZ):    831.0675985    432.2609894    284.3584051

 **********************************************************************

            Population analysis using the SCF density.

 **********************************************************************

 Orbital symmetries:
       Occupied  (A1) (A1) (B2) (A1) (B1)
       Virtual   (A1) (B2) (A1) (A1) (B1) (B2) (B2) (A1) (B2) (A1)
                 (A1) (B2) (B1) (A1) (A2) (A1) (B1) (B2) (B2) (A1)
                 (A1) (B2) (B1) (A2) (A1) (A1) (B2) (B1) (A1) (B2)
                 (A1)
 The electronic state is 1-A1.
 Alpha  occ. eigenvalues --  -19.62517  -1.13797  -0.61388  -0.47306  -0.40084
 Alpha virt. eigenvalues --   -0.00720   0.03231   0.16804   0.17561   0.17946
 Alpha virt. eigenvalues --    0.18352   0.24595   0.25188   0.54569   0.59295
 Alpha virt. eigenvalues --    1.01694   1.06112   1.06197   1.28438   1.30499
 Alpha virt. eigenvalues --    1.41260   1.51239   1.70943   2.05115   2.18736
 Alpha virt. eigenvalues --    2.43357   2.59626   3.16551   3.21486   3.37832
 Alpha virt. eigenvalues --    3.73780   3.94438   5.05581   5.42498   5.72894
 Alpha virt. eigenvalues --   49.98106
          Condensed to atoms (all electrons):
              1          2          3
     1  O    7.868500   0.325954   0.325954
     2  H    0.325954   0.440551  -0.026709
     3  H    0.325954  -0.026709   0.440551
 Mulliken atomic charges:
              1
     1  O   -0.520408
     2  H    0.260204
     3  H    0.260204
 Sum of Mulliken atomic charges =   0.00000
 Mulliken charges with hydrogens summed into heavy atoms:
              1
     1  O    0.000000
 Sum of Mulliken charges with hydrogens summed into heavy atoms =   0.00000
 Electronic spatial extent (au):  <R**2>=             19.8553
 Charge=              0.0000 electrons
 Dipole moment (field-independent basis, Debye):
    X=              0.0000    Y=              0.0000    Z=             -2.1801  Tot=              2.1801
 Quadrupole moment (field-independent basis, Debye-Ang):
   XX=             -7.6958   YY=             -4.3711   ZZ=             -6.4564
   XY=              0.0000   XZ=              0.0000   YZ=              0.0000
 Traceless Quadrupole moment (field-independent basis, Debye-Ang):
   XX=             -1.5214   YY=              1.8033   ZZ=             -0.2820
   XY=              0.0000   XZ=              0.0000   YZ=              0.0000
 Octapole moment (field-independent basis, Debye-Ang**2):
  XXX=              0.0000  YYY=              0.0000  ZZZ=             -1.5151  XYY=              0.0000
  XXY=              0.0000  XXZ=             -0.4392  XZZ=              0.0000  YZZ=              0.0000
  YYZ=             -1.3798  XYZ=              0.0000
 Hexadecapole moment (field-independent basis, Debye-Ang**3):
 XXXX=             -7.1829 YYYY=             -6.3337 ZZZZ=             -7.7400 XXXY=              0.0000
 XXXZ=              0.0000 YYYX=              0.0000 YYYZ=              0.0000 ZZZX=              0.0000
 ZZZY=              0.0000 XXYY=             -2.5530 XXZZ=             -2.5413 YYZZ=             -2.0233
 XXYZ=              0.0000 YYXZ=              0.0000 ZZXY=              0.0000
 N-N= 9.175898239542D+00 E-N=-1.992066496765D+02  KE= 7.622072828631D+01
 Symmetry A1   KE= 6.807278296566D+01
 Symmetry A2   KE= 2.254666015420D-34
 Symmetry B1   KE= 4.511867128197D+00
 Symmetry B2   KE= 3.636078192452D+00
 1|1|UNPC-DESKTOP-319GPER|FOpt|RM062X|6-311++G(d,p)|H2O1|SAGAD|08-Oct-2
 020|0||#opt freq M062X/6-311++g(d,p)||Calculation of water M062X with 
 6-311++g(d,p)||0,1|O,-0.2004002323,-0.579583264,0.|H,0.7579436203,-0.5
 431599707,0.|H,-0.4859678562,0.3359497655,0.||Version=IA32W-G09RevA.02
 |State=1-A1|HF=-76.4208888|RMSD=4.806e-009|RMSF=8.615e-005|Dipole=0.49
 50379,0.7004624,0.|Quadrupole=0.8243201,0.3067928,-1.1311129,-0.730726
 ,0.,0.|PG=C02V [C2(O1),SGV(H2)]||@


 WE ARE PERHAPS NOT FAR REMOVED FROM THE TIME WHEN WE SHALL BE ABLE TO SUBMIT
 THE BULK OF CHEMICAL PHENOMENA TO CALCULATION.

            -- JOSEPH LOUIS GAY-LUSSAC
               MEMOIRES DE LA SOCIETE D'ARCUEIL, 2, 207 (1808)
 Job cpu time:  0 days  0 hours  0 minutes  7.0 seconds.
 File lengths (MBytes):  RWF=      5 Int=      0 D2E=      0 Chk=      1 Scr=      1
 Normal termination of Gaussian 09 at Thu Oct 08 23:57:58 2020.
 Link1:  Proceeding to internal job step number  2.
 ----------------------------------------------------------------------
 #N Geom=AllCheck Guess=TCheck SCRF=Check GenChk RM062X/6-311++G(d,p) F
 req
 ----------------------------------------------------------------------
 1/10=4,29=7,30=1,38=1,40=1/1,3;
 2/12=2,40=1/2;
 3/5=4,6=6,7=1111,11=2,14=-4,16=1,25=1,30=1,70=2,71=2,74=-55,116=1/1,2,3;
 4/5=101/1;
 5/5=2,98=1/2;
 8/6=4,10=90,11=11/1;
 11/6=1,8=1,9=11,15=111,16=1/1,2,10;
 10/6=1/2;
 6/7=2,8=2,9=2,10=2,18=1,28=1/1;
 7/8=1,10=1,25=1/1,2,3,16;
 1/10=4,30=1/3;
 99//99;
 ---------------------------------------------
 Calculation of water M062X with 6-311++g(d,p)
 ---------------------------------------------
 Redundant internal coordinates taken from checkpoint file:
 C:\Users\sagad\Documents\rayGit\FQ\quimicaComputacional\class4Metilo\productos\waterM062XTwo.chk
 Charge =  0 Multiplicity = 1
 O,0,-0.2004002323,-0.579583264,0.
 H,0,0.7579436203,-0.5431599707,0.
 H,0,-0.4859678562,0.3359497655,0.
 Recover connectivity data from disk.

 GradGradGradGradGradGradGradGradGradGradGradGradGradGradGradGradGradGrad
 Berny optimization.
 Initialization pass.
                           ----------------------------
                           !    Initial Parameters    !
                           ! (Angstroms and Degrees)  !
 --------------------------                            --------------------------
 ! Name  Definition              Value          Derivative Info.                !
 --------------------------------------------------------------------------------
 ! R1    R(1,2)                  0.959          calculate D2E/DX2 analytically  !
 ! R2    R(1,3)                  0.959          calculate D2E/DX2 analytically  !
 ! A1    A(2,1,3)              105.1469         calculate D2E/DX2 analytically  !
 --------------------------------------------------------------------------------
 Trust Radius=3.00D-01 FncErr=1.00D-07 GrdErr=1.00D-07
 Number of steps in this run=   2 maximum allowed number of steps=   2.
 GradGradGradGradGradGradGradGradGradGradGradGradGradGradGradGradGradGrad

                          Input orientation:                          
 ---------------------------------------------------------------------
 Center     Atomic      Atomic             Coordinates (Angstroms)
 Number     Number       Type             X           Y           Z
 ---------------------------------------------------------------------
      1          8           0       -0.200400   -0.579583    0.000000
      2          1           0        0.757944   -0.543160    0.000000
      3          1           0       -0.485968    0.335950    0.000000
 ---------------------------------------------------------------------
                    Distance matrix (angstroms):
                    1          2          3
     1  O    0.000000
     2  H    0.959036   0.000000
     3  H    0.959036   1.523204   0.000000
 Stoichiometry    H2O
 Framework group  C2V[C2(O),SGV(H2)]
 Deg. of freedom     2
 Full point group                 C2V     NOp   4
 Largest Abelian subgroup         C2V     NOp   4
 Largest concise Abelian subgroup C2      NOp   2
                         Standard orientation:                         
 ---------------------------------------------------------------------
 Center     Atomic      Atomic             Coordinates (Angstroms)
 Number     Number       Type             X           Y           Z
 ---------------------------------------------------------------------
      1          8           0        0.000000    0.000000    0.116570
      2          1           0        0.000000    0.761602   -0.466279
      3          1           0        0.000000   -0.761602   -0.466279
 ---------------------------------------------------------------------
 Rotational constants (GHZ):    831.0675985    432.2609894    284.3584051
 Standard basis: 6-311++G(d,p) (5D, 7F)
 There are    17 symmetry adapted basis functions of A1  symmetry.
 There are     2 symmetry adapted basis functions of A2  symmetry.
 There are     6 symmetry adapted basis functions of B1  symmetry.
 There are    11 symmetry adapted basis functions of B2  symmetry.
 Integral buffers will be    262144 words long.
 Raffenetti 2 integral format.
 Two-electron integral symmetry is turned on.
    36 basis functions,    54 primitive gaussians,    37 cartesian basis functions
     5 alpha electrons        5 beta electrons
       nuclear repulsion energy         9.1758982395 Hartrees.
 NAtoms=    3 NActive=    3 NUniq=    2 SFac= 1.69D+00 NAtFMM=   80 NAOKFM=F Big=F
 One-electron integrals computed using PRISM.
 NBasis=    36 RedAO= T  NBF=    17     2     6    11
 NBsUse=    36 1.00D-06 NBFU=    17     2     6    11
 Initial guess read from the checkpoint file:  C:\Users\sagad\Documents\rayGit\FQ
 \quimicaComputacional\class4Metilo\productos\waterM062XTwo.chk
 B after Tr=     0.000000    0.000000    0.000000
         Rot=    1.000000    0.000000    0.000000    0.000000 Ang=   0.00 deg.
 Initial guess orbital symmetries:
       Occupied  (A1) (A1) (B2) (A1) (B1)
       Virtual   (A1) (B2) (A1) (A1) (B1) (B2) (B2) (A1) (B2) (A1)
                 (A1) (B2) (B1) (A1) (A2) (A1) (B1) (B2) (B2) (A1)
                 (A1) (B2) (B1) (A2) (A1) (A1) (B2) (B1) (A1) (B2)
                 (A1)
 Requested convergence on RMS density matrix=1.00D-08 within 128 cycles.
 Requested convergence on MAX density matrix=1.00D-06.
 Requested convergence on             energy=1.00D-06.
 No special actions if energy rises.
 Keep R1 ints in memory in canonical form, NReq=1151819.
 SCF Done:  E(RM062X) =  -76.4208888263     A.U. after    1 cycles
             Convg  =    0.6964D-09             -V/T =  2.0026
 Range of M.O.s used for correlation:     1    36
 NBasis=    36 NAE=     5 NBE=     5 NFC=     0 NFV=     0
 NROrb=     36 NOA=     5 NOB=     5 NVA=    31 NVB=    31
 Symmetrizing basis deriv contribution to polar:
 IMax=3 JMax=2 DiffMx= 0.00D+00
 G2DrvN: will do     4 centers at a time, making    1 passes doing MaxLOS=2.
 Calling FoFCou, ICntrl=  3107 FMM=F I1Cent=   0 AccDes= 0.00D+00.
 FoFDir/FoFCou used for L=0 through L=2.
 End of G2Drv Frequency-dependent properties file   721 does not exist.
 End of G2Drv Frequency-dependent properties file   722 does not exist.
          IDoAtm=111
          Differentiating once with respect to electric field.
                with respect to dipole field.
          Differentiating once with respect to nuclear coordinates.
          Keep R1 ints in memory in canonical form, NReq=1068279.
          There are     9 degrees of freedom in the 1st order CPHF.  IDoFFX=4.
      9 vectors produced by pass  0 Test12= 1.72D-15 1.11D-08 XBig12= 2.54D+00 9.53D-01.
 AX will form     9 AO Fock derivatives at one time.
      9 vectors produced by pass  1 Test12= 1.72D-15 1.11D-08 XBig12= 2.62D-01 2.13D-01.
      9 vectors produced by pass  2 Test12= 1.72D-15 1.11D-08 XBig12= 4.77D-03 2.60D-02.
      9 vectors produced by pass  3 Test12= 1.72D-15 1.11D-08 XBig12= 3.25D-05 2.25D-03.
      9 vectors produced by pass  4 Test12= 1.72D-15 1.11D-08 XBig12= 1.77D-07 1.40D-04.
      7 vectors produced by pass  5 Test12= 1.72D-15 1.11D-08 XBig12= 4.38D-10 9.79D-06.
      3 vectors produced by pass  6 Test12= 1.72D-15 1.11D-08 XBig12= 6.80D-13 2.87D-07.
      1 vectors produced by pass  7 Test12= 1.72D-15 1.11D-08 XBig12= 9.45D-16 1.43D-08.
 Inverted reduced A of dimension    56 with in-core refinement.
 Isotropic polarizability for W=    0.000000        6.94 Bohr**3.
 End of Minotr Frequency-dependent properties file   721 does not exist.
 End of Minotr Frequency-dependent properties file   722 does not exist.

 **********************************************************************

            Population analysis using the SCF density.

 **********************************************************************

 Orbital symmetries:
       Occupied  (A1) (A1) (B2) (A1) (B1)
       Virtual   (A1) (B2) (A1) (A1) (B1) (B2) (B2) (A1) (B2) (A1)
                 (A1) (B2) (B1) (A1) (A2) (A1) (B1) (B2) (B2) (A1)
                 (A1) (B2) (B1) (A2) (A1) (A1) (B2) (B1) (A1) (B2)
                 (A1)
 The electronic state is 1-A1.
 Alpha  occ. eigenvalues --  -19.62517  -1.13797  -0.61388  -0.47306  -0.40084
 Alpha virt. eigenvalues --   -0.00720   0.03231   0.16804   0.17561   0.17946
 Alpha virt. eigenvalues --    0.18352   0.24595   0.25188   0.54569   0.59295
 Alpha virt. eigenvalues --    1.01694   1.06112   1.06197   1.28438   1.30499
 Alpha virt. eigenvalues --    1.41260   1.51239   1.70943   2.05115   2.18736
 Alpha virt. eigenvalues --    2.43357   2.59626   3.16551   3.21486   3.37832
 Alpha virt. eigenvalues --    3.73780   3.94438   5.05581   5.42498   5.72894
 Alpha virt. eigenvalues --   49.98106
          Condensed to atoms (all electrons):
              1          2          3
     1  O    7.868500   0.325954   0.325954
     2  H    0.325954   0.440551  -0.026709
     3  H    0.325954  -0.026709   0.440551
 Mulliken atomic charges:
              1
     1  O   -0.520408
     2  H    0.260204
     3  H    0.260204
 Sum of Mulliken atomic charges =   0.00000
 Mulliken charges with hydrogens summed into heavy atoms:
              1
     1  O    0.000000
 Sum of Mulliken charges with hydrogens summed into heavy atoms =   0.00000
 APT atomic charges:
              1
     1  O   -0.581366
     2  H    0.290683
     3  H    0.290683
 Sum of APT charges=   0.00000
 APT Atomic charges with hydrogens summed into heavy atoms:
              1
     1  O    0.000000
     2  H    0.000000
     3  H    0.000000
 Sum of APT charges=   0.00000
 Electronic spatial extent (au):  <R**2>=             19.8553
 Charge=              0.0000 electrons
 Dipole moment (field-independent basis, Debye):
    X=              0.0000    Y=              0.0000    Z=             -2.1801  Tot=              2.1801
 Quadrupole moment (field-independent basis, Debye-Ang):
   XX=             -7.6958   YY=             -4.3711   ZZ=             -6.4564
   XY=              0.0000   XZ=              0.0000   YZ=              0.0000
 Traceless Quadrupole moment (field-independent basis, Debye-Ang):
   XX=             -1.5214   YY=              1.8033   ZZ=             -0.2820
   XY=              0.0000   XZ=              0.0000   YZ=              0.0000
 Octapole moment (field-independent basis, Debye-Ang**2):
  XXX=              0.0000  YYY=              0.0000  ZZZ=             -1.5151  XYY=              0.0000
  XXY=              0.0000  XXZ=             -0.4392  XZZ=              0.0000  YZZ=              0.0000
  YYZ=             -1.3798  XYZ=              0.0000
 Hexadecapole moment (field-independent basis, Debye-Ang**3):
 XXXX=             -7.1829 YYYY=             -6.3337 ZZZZ=             -7.7400 XXXY=              0.0000
 XXXZ=              0.0000 YYYX=              0.0000 YYYZ=              0.0000 ZZZX=              0.0000
 ZZZY=              0.0000 XXYY=             -2.5530 XXZZ=             -2.5413 YYZZ=             -2.0233
 XXYZ=              0.0000 YYXZ=              0.0000 ZZXY=              0.0000
 N-N= 9.175898239542D+00 E-N=-1.992066494606D+02  KE= 7.622072817675D+01
 Symmetry A1   KE= 6.807278288344D+01
 Symmetry A2   KE= 8.155274718864D-35
 Symmetry B1   KE= 4.511867101809D+00
 Symmetry B2   KE= 3.636078191496D+00
  Exact polarizability:   6.196   0.000   8.088   0.000   0.000   6.539
 Approx polarizability:   5.529   0.000   8.312   0.000   0.000   6.452
 Calling FoFJK, ICntrl=    100127 FMM=F ISym2X=1 I1Cent= 0 IOpClX= 0 NMat=1 NMatS=1 NMatT=0.
 Full mass-weighted force constant matrix:
 Low frequencies --- -127.2815 -125.6612  -69.0367   -0.0014   -0.0012   -0.0008
 Low frequencies --- 1594.9708 3896.3002 4002.1912
 Diagonal vibrational polarizability:
        0.0000000       0.1250223       0.7786656
 Harmonic frequencies (cm**-1), IR intensities (KM/Mole), Raman scattering
 activities (A**4/AMU), depolarization ratios for plane and unpolarized
 incident light, reduced masses (AMU), force constants (mDyne/A),
 and normal coordinates:
                     1                      2                      3
                    A1                     A1                     B2
 Frequencies --  1594.9708              3896.3002              4002.1771
 Red. masses --     1.0821                 1.0457                 1.0825
 Frc consts  --     1.6219                 9.3532                10.2158
 IR Inten    --    70.6675                17.5462                74.4127
  Atom  AN      X      Y      Z        X      Y      Z        X      Y      Z
     1   8     0.00   0.00   0.07     0.00   0.00   0.05     0.00   0.07   0.00
     2   1     0.00  -0.43  -0.56     0.00   0.58  -0.40     0.00  -0.56   0.43
     3   1     0.00   0.43  -0.56     0.00  -0.58  -0.40     0.00  -0.56  -0.43

 -------------------
 - Thermochemistry -
 -------------------
 Temperature   298.150 Kelvin.  Pressure   1.00000 Atm.
 Atom     1 has atomic number  8 and mass  15.99491
 Atom     2 has atomic number  1 and mass   1.00783
 Atom     3 has atomic number  1 and mass   1.00783
 Molecular mass:    18.01056 amu.
 Principal axes and moments of inertia in atomic units:
                           1         2         3
     Eigenvalues --     2.17159   4.17512   6.34671
           X            0.00000   0.00000   1.00000
           Y            1.00000   0.00000   0.00000
           Z            0.00000   1.00000   0.00000
 This molecule is an asymmetric top.
 Rotational symmetry number  2.
 Rotational temperatures (Kelvin)     39.88491    20.74523    13.64703
 Rotational constants (GHZ):         831.06760   432.26099   284.35841
 Zero-point vibrational energy      56783.4 (Joules/Mol)
                                   13.57157 (Kcal/Mol)
 Vibrational temperatures:   2294.80  5605.90  5758.23
          (Kelvin)
 
 Zero-point correction=                           0.021628 (Hartree/Particle)
 Thermal correction to Energy=                    0.024464
 Thermal correction to Enthalpy=                  0.025408
 Thermal correction to Gibbs Free Energy=         0.003994
 Sum of electronic and zero-point Energies=            -76.399261
 Sum of electronic and thermal Energies=               -76.396425
 Sum of electronic and thermal Enthalpies=             -76.395481
 Sum of electronic and thermal Free Energies=          -76.416895
 
                     E (Thermal)             CV                S
                      KCal/Mol        Cal/Mol-Kelvin    Cal/Mol-Kelvin
 Total                   15.351              6.015             45.068
 Electronic               0.000              0.000              0.000
 Translational            0.889              2.981             34.608
 Rotational               0.889              2.981             10.452
 Vibrational             13.574              0.054              0.008
                       Q            Log10(Q)             Ln(Q)
 Total Bot       0.145460D-01         -1.837256         -4.230439
 Total V=0       0.129050D+09          8.110758         18.675711
 Vib (Bot)       0.112767D-09         -9.947817        -22.905696
 Vib (V=0)       0.100045D+01          0.000197          0.000454
 Electronic      0.100000D+01          0.000000          0.000000
 Translational   0.300432D+07          6.477746         14.915562
 Rotational      0.429353D+02          1.632815          3.759695
 ***** Axes restored to original set *****
 -------------------------------------------------------------------
 Center     Atomic                   Forces (Hartrees/Bohr)
 Number     Number              X              Y              Z
 -------------------------------------------------------------------
      1        8          -0.000099670   -0.000141030    0.000000000
      2        1           0.000135606    0.000009898    0.000000000
      3        1          -0.000035936    0.000131132    0.000000000
 -------------------------------------------------------------------
 Cartesian Forces:  Max     0.000141030 RMS     0.000086151

 GradGradGradGradGradGradGradGradGradGradGradGradGradGradGradGradGradGrad
 Berny optimization.
 Internal  Forces:  Max     0.000135885 RMS     0.000111060
 Search for a local minimum.
 Step number   1 out of a maximum of    2
 All quantities printed in internal units (Hartrees-Bohrs-Radians)
 Second derivative matrix not updated -- analytic derivatives used.
 The second derivative matrix:
                          R1        R2        A1
           R1           0.55992
           R2          -0.00486   0.55992
           A1           0.02697   0.02697   0.15035
     Eigenvalues ---    0.14679   0.55863   0.56478
 Angle between quadratic step and forces=  19.93 degrees.
 Linear search not attempted -- first point.
 Iteration  1 RMS(Cart)=  0.00015608 RMS(Int)=  0.00000001
 Iteration  2 RMS(Cart)=  0.00000001 RMS(Int)=  0.00000000
 ClnCor:  largest displacement from symmetrization is 5.36D-15 for atom     3.
 Variable       Old X    -DE/DX   Delta X   Delta X   Delta X     New X
                                 (Linear)    (Quad)   (Total)
    R1        1.81231   0.00014   0.00000   0.00025   0.00025   1.81257
    R2        1.81231   0.00014   0.00000   0.00025   0.00025   1.81257
    A1        1.83516  -0.00001   0.00000  -0.00015  -0.00015   1.83501
         Item               Value     Threshold  Converged?
 Maximum Force            0.000136     0.000450     YES
 RMS     Force            0.000111     0.000300     YES
 Maximum Displacement     0.000147     0.001800     YES
 RMS     Displacement     0.000156     0.001200     YES
 Predicted change in Energy=-3.487371D-08
 Optimization completed.
    -- Stationary point found.
                           ----------------------------
                           !   Optimized Parameters   !
                           ! (Angstroms and Degrees)  !
 --------------------------                            --------------------------
 ! Name  Definition              Value          Derivative Info.                !
 --------------------------------------------------------------------------------
 ! R1    R(1,2)                  0.959          -DE/DX =    0.0001              !
 ! R2    R(1,3)                  0.959          -DE/DX =    0.0001              !
 ! A1    A(2,1,3)              105.1469         -DE/DX =    0.0                 !
 --------------------------------------------------------------------------------
 GradGradGradGradGradGradGradGradGradGradGradGradGradGradGradGradGradGrad

 1|1|UNPC-DESKTOP-319GPER|Freq|RM062X|6-311++G(d,p)|H2O1|SAGAD|08-Oct-2
 020|0||#N Geom=AllCheck Guess=TCheck SCRF=Check GenChk RM062X/6-311++G
 (d,p) Freq||Calculation of water M062X with 6-311++g(d,p)||0,1|O,-0.20
 04002323,-0.579583264,0.|H,0.7579436203,-0.5431599707,0.|H,-0.48596785
 62,0.3359497655,0.||Version=IA32W-G09RevA.02|State=1-A1|HF=-76.4208888
 |RMSD=6.964e-010|RMSF=8.615e-005|ZeroPoint=0.0216277|Thermal=0.0244635
 |Dipole=0.4950379,0.7004624,0.|DipoleDeriv=-0.5096375,0.0796459,0.,0.0
 796459,-0.4532293,0.,0.,0.,-0.7812325,0.1999987,-0.0363347,0.,-0.08213
 69,0.2814347,0.,0.,0.,0.3906162,0.3096388,-0.0433112,0.,0.0024909,0.17
 17946,0.,0.,0.,0.3906162|Polar=7.5717829,-0.7297312,7.0549603,0.,0.,6.
 1959305|PG=C02V [C2(O1),SGV(H2)]|NImag=0||0.63000966,-0.11453054,0.548
 89489,0.,0.,-0.00109747,-0.54579046,0.00440465,0.,0.56090904,-0.053325
 06,-0.04366182,0.,0.00546165,0.04532493,0.,0.,0.00054873,0.,0.,-0.0005
 7549,-0.08421921,0.11012588,0.,-0.01511859,0.04786341,0.,0.09933780,0.
 16785559,-0.50523307,0.,-0.00986630,-0.00166311,0.,-0.15798929,0.50689
 617,0.,0.,0.00054873,0.,0.,0.00002676,0.,0.,-0.00057549||0.00009967,0.
 00014103,0.,-0.00013561,-0.00000990,0.,0.00003594,-0.00013113,0.|||@


 WE ARE PERHAPS NOT FAR REMOVED FROM THE TIME WHEN WE SHALL BE ABLE TO SUBMIT
 THE BULK OF CHEMICAL PHENOMENA TO CALCULATION.

            -- JOSEPH LOUIS GAY-LUSSAC
               MEMOIRES DE LA SOCIETE D'ARCUEIL, 2, 207 (1808)
 Job cpu time:  0 days  0 hours  0 minutes  6.0 seconds.
 File lengths (MBytes):  RWF=      5 Int=      0 D2E=      0 Chk=      1 Scr=      1
 Normal termination of Gaussian 09 at Thu Oct 08 23:58:04 2020.
