 Entering Link 1 = C:\G09W\l1.exe PID=      7376.
  
 Copyright (c) 1988,1990,1992,1993,1995,1998,2003,2009, Gaussian, Inc.
                  All Rights Reserved.
  
 This is part of the Gaussian(R) 09 program.  It is based on
 the Gaussian(R) 03 system (copyright 2003, Gaussian, Inc.),
 the Gaussian(R) 98 system (copyright 1998, Gaussian, Inc.),
 the Gaussian(R) 94 system (copyright 1995, Gaussian, Inc.),
 the Gaussian 92(TM) system (copyright 1992, Gaussian, Inc.),
 the Gaussian 90(TM) system (copyright 1990, Gaussian, Inc.),
 the Gaussian 88(TM) system (copyright 1988, Gaussian, Inc.),
 the Gaussian 86(TM) system (copyright 1986, Carnegie Mellon
 University), and the Gaussian 82(TM) system (copyright 1983,
 Carnegie Mellon University). Gaussian is a federally registered
 trademark of Gaussian, Inc.
  
 This software contains proprietary and confidential information,
 including trade secrets, belonging to Gaussian, Inc.
  
 This software is provided under written license and may be
 used, copied, transmitted, or stored only in accord with that
 written license.
  
 The following legend is applicable only to US Government
 contracts under FAR:
  
                    RESTRICTED RIGHTS LEGEND
  
 Use, reproduction and disclosure by the US Government is
 subject to restrictions as set forth in subparagraphs (a)
 and (c) of the Commercial Computer Software - Restricted
 Rights clause in FAR 52.227-19.
  
 Gaussian, Inc.
 340 Quinnipiac St., Bldg. 40, Wallingford CT 06492
  
  
 ---------------------------------------------------------------
 Warning -- This program may not be used in any manner that
 competes with the business of Gaussian, Inc. or will provide
 assistance to any competitor of Gaussian, Inc.  The licensee
 of this program is prohibited from giving any competitor of
 Gaussian, Inc. access to this program.  By using this program,
 the user acknowledges that Gaussian, Inc. is engaged in the
 business of creating and licensing software in the field of
 computational chemistry and represents and warrants to the
 licensee that it is not a competitor of Gaussian, Inc. and that
 it will not use this program in any manner prohibited above.
 ---------------------------------------------------------------
  

 Cite this work as:
 Gaussian 09, Revision A.02,
 M. J. Frisch, G. W. Trucks, H. B. Schlegel, G. E. Scuseria, 
 M. A. Robb, J. R. Cheeseman, G. Scalmani, V. Barone, B. Mennucci, 
 G. A. Petersson, H. Nakatsuji, M. Caricato, X. Li, H. P. Hratchian, 
 A. F. Izmaylov, J. Bloino, G. Zheng, J. L. Sonnenberg, M. Hada, 
 M. Ehara, K. Toyota, R. Fukuda, J. Hasegawa, M. Ishida, T. Nakajima, 
 Y. Honda, O. Kitao, H. Nakai, T. Vreven, J. A. Montgomery, Jr., 
 J. E. Peralta, F. Ogliaro, M. Bearpark, J. J. Heyd, E. Brothers, 
 K. N. Kudin, V. N. Staroverov, R. Kobayashi, J. Normand, 
 K. Raghavachari, A. Rendell, J. C. Burant, S. S. Iyengar, J. Tomasi, 
 M. Cossi, N. Rega, J. M. Millam, M. Klene, J. E. Knox, J. B. Cross, 
 V. Bakken, C. Adamo, J. Jaramillo, R. Gomperts, R. E. Stratmann, 
 O. Yazyev, A. J. Austin, R. Cammi, C. Pomelli, J. W. Ochterski, 
 R. L. Martin, K. Morokuma, V. G. Zakrzewski, G. A. Voth, 
 P. Salvador, J. J. Dannenberg, S. Dapprich, A. D. Daniels, 
 O. Farkas, J. B. Foresman, J. V. Ortiz, J. Cioslowski, 
 and D. J. Fox, Gaussian, Inc., Wallingford CT, 2009.
 
 ******************************************
 Gaussian 09:  IA32W-G09RevA.02 11-Jun-2009
                08-Oct-2020 
 ******************************************
 %chk=C:\Users\sagad\Documents\rayGit\FQ\quimicaComputacional\class4Metilo\produc
 tos\waterM062X.chk
 %nprocshared=4
 Will use up to    4 processors via shared memory.
 %mem=1500MB
 ---------------------------
 #opt freq M062X/6-31+g(d,p)
 ---------------------------
 1/14=-1,18=20,19=15,26=3,38=1/1,3;
 2/9=110,12=2,17=6,18=5,40=1/2;
 3/5=1,6=6,7=111,11=2,16=1,25=1,30=1,71=1,74=-55/1,2,3;
 4//1;
 5/5=2,38=5/2;
 6/7=2,8=2,9=2,10=2,28=1/1;
 7//1,2,3,16;
 1/14=-1,18=20,19=15/3(2);
 2/9=110/2;
 99//99;
 2/9=110/2;
 3/5=1,6=6,7=111,11=2,16=1,25=1,30=1,71=1,74=-55/1,2,3;
 4/5=5,16=3/1;
 5/5=2,38=5/2;
 7//1,2,3,16;
 1/14=-1,18=20,19=15/3(-5);
 2/9=110/2;
 6/7=2,8=2,9=2,10=2,19=2,28=1/1;
 99/9=1/99;
 --------------------------
 Calculation of water M062X
 --------------------------
 Symbolic Z-matrix:
 Charge =  0 Multiplicity = 1
 O                    -0.18932  -0.56391   0. 
 H                     0.77068  -0.56391   0. 
 H                    -0.50978   0.34103   0. 
 

 GradGradGradGradGradGradGradGradGradGradGradGradGradGradGradGradGradGrad
 Berny optimization.
 Initialization pass.
                           ----------------------------
                           !    Initial Parameters    !
                           ! (Angstroms and Degrees)  !
 --------------------------                            --------------------------
 ! Name  Definition              Value          Derivative Info.                !
 --------------------------------------------------------------------------------
 ! R1    R(1,2)                  0.96           estimate D2E/DX2                !
 ! R2    R(1,3)                  0.96           estimate D2E/DX2                !
 ! A1    A(2,1,3)              109.5            estimate D2E/DX2                !
 --------------------------------------------------------------------------------
 Trust Radius=3.00D-01 FncErr=1.00D-07 GrdErr=1.00D-06
 Number of steps in this run=  20 maximum allowed number of steps= 100.
 GradGradGradGradGradGradGradGradGradGradGradGradGradGradGradGradGradGrad

                          Input orientation:                          
 ---------------------------------------------------------------------
 Center     Atomic      Atomic             Coordinates (Angstroms)
 Number     Number       Type             X           Y           Z
 ---------------------------------------------------------------------
      1          8           0       -0.189323   -0.563910    0.000000
      2          1           0        0.770677   -0.563910    0.000000
      3          1           0       -0.509778    0.341026    0.000000
 ---------------------------------------------------------------------
                    Distance matrix (angstroms):
                    1          2          3
     1  O    0.000000
     2  H    0.960000   0.000000
     3  H    0.960000   1.567952   0.000000
 Stoichiometry    H2O
 Framework group  C2V[C2(O),SGV(H2)]
 Deg. of freedom     2
 Full point group                 C2V     NOp   4
 Largest Abelian subgroup         C2V     NOp   4
 Largest concise Abelian subgroup C2      NOp   2
                         Standard orientation:                         
 ---------------------------------------------------------------------
 Center     Atomic      Atomic             Coordinates (Angstroms)
 Number     Number       Type             X           Y           Z
 ---------------------------------------------------------------------
      1          8           0        0.000000    0.000000    0.110812
      2          1           0        0.000000   -0.783976   -0.443248
      3          1           0        0.000000    0.783976   -0.443248
 ---------------------------------------------------------------------
 Rotational constants (GHZ):    919.6759295    407.9403325    282.5913747
 Standard basis: 6-31+G(d,p) (6D, 7F)
 There are    14 symmetry adapted basis functions of A1  symmetry.
 There are     2 symmetry adapted basis functions of A2  symmetry.
 There are     5 symmetry adapted basis functions of B1  symmetry.
 There are     8 symmetry adapted basis functions of B2  symmetry.
 Integral buffers will be    262144 words long.
 Raffenetti 2 integral format.
 Two-electron integral symmetry is turned on.
    29 basis functions,    46 primitive gaussians,    29 cartesian basis functions
     5 alpha electrons        5 beta electrons
       nuclear repulsion energy         9.1571159776 Hartrees.
 NAtoms=    3 NActive=    3 NUniq=    2 SFac= 1.69D+00 NAtFMM=   80 NAOKFM=F Big=F
 One-electron integrals computed using PRISM.
 NBasis=    29 RedAO= T  NBF=    14     2     5     8
 NBsUse=    29 1.00D-06 NBFU=    14     2     5     8
 Harris functional with IExCor= 1009 diagonalized for initial guess.
 ExpMin= 8.45D-02 ExpMax= 5.48D+03 ExpMxC= 8.25D+02 IAcc=2 IRadAn=         0 AccDes= 0.00D+00
 HarFok:  IExCor= 1009 AccDes= 0.00D+00 IRadAn=         0 IDoV= 1
 ScaDFX=  1.000000  1.000000  1.000000  1.000000
 FoFCou: FMM=F IPFlag=           0 FMFlag=      100000 FMFlg1=           0
         NFxFlg=           0 DoJE=T BraDBF=F KetDBF=T FulRan=T
         Omega=  0.000000  0.000000  1.000000  0.000000  0.000000 ICntrl=     500 IOpCl=  0
         NMat0=    1 NMatS0=    1 NMatT0=    0 NMatD0=    1 NMtDS0=    0 NMtDT0=    0
         I1Cent=           4 NGrid=           0.
 Petite list used in FoFCou.
 Initial guess orbital symmetries:
       Occupied  (A1) (A1) (B2) (A1) (B1)
       Virtual   (A1) (B2) (A1) (B1) (B2) (A1) (B2) (A1) (B1) (B2)
                 (A1) (A1) (A2) (A1) (B1) (A1) (B2) (B2) (B1) (A2)
                 (A1) (A1) (B2) (A1)
 The electronic state of the initial guess is 1-A1.
 Requested convergence on RMS density matrix=1.00D-08 within 128 cycles.
 Requested convergence on MAX density matrix=1.00D-06.
 Requested convergence on             energy=1.00D-06.
 No special actions if energy rises.
 Keep R1 ints in memory in canonical form, NReq=996184.
 Integral accuracy reduced to 1.0D-05 until final iterations.
 Initial convergence to 1.0D-05 achieved.  Increase integral accuracy.
 SCF Done:  E(RM062X) =  -76.3947141358     A.U. after   12 cycles
             Convg  =    0.8950D-08             -V/T =  2.0084

 **********************************************************************

            Population analysis using the SCF density.

 **********************************************************************

 Orbital symmetries:
       Occupied  (A1) (A1) (B2) (A1) (B1)
       Virtual   (A1) (B2) (A1) (B1) (B2) (A1) (B2) (A1) (B2) (A1)
                 (B1) (A1) (A2) (A1) (B1) (B2) (A1) (B2) (B1) (A2)
                 (A1) (A1) (B2) (A1)
 The electronic state is 1-A1.
 Alpha  occ. eigenvalues --  -19.64868  -1.13350  -0.61917  -0.46231  -0.39627
 Alpha virt. eigenvalues --    0.07261   0.14527   0.18167   0.18581   0.25569
 Alpha virt. eigenvalues --    0.27808   0.98861   1.05912   1.14664   1.17991
 Alpha virt. eigenvalues --    1.19559   1.28677   1.55355   1.61843   1.70052
 Alpha virt. eigenvalues --    2.25880   2.29395   2.58397   2.65860   2.69967
 Alpha virt. eigenvalues --    3.06367   3.37406   3.53006   3.95250
          Condensed to atoms (all electrons):
              1          2          3
     1  O    8.156457   0.294602   0.294602
     2  H    0.294602   0.356735  -0.024169
     3  H    0.294602  -0.024169   0.356735
 Mulliken atomic charges:
              1
     1  O   -0.745662
     2  H    0.372831
     3  H    0.372831
 Sum of Mulliken atomic charges =   0.00000
 Mulliken charges with hydrogens summed into heavy atoms:
              1
     1  O    0.000000
 Sum of Mulliken charges with hydrogens summed into heavy atoms =   0.00000
 Electronic spatial extent (au):  <R**2>=             19.8570
 Charge=              0.0000 electrons
 Dipole moment (field-independent basis, Debye):
    X=              0.0000    Y=              0.0000    Z=             -2.1556  Tot=              2.1556
 Quadrupole moment (field-independent basis, Debye-Ang):
   XX=             -7.7704   YY=             -4.1244   ZZ=             -6.5501
   XY=              0.0000   XZ=              0.0000   YZ=              0.0000
 Traceless Quadrupole moment (field-independent basis, Debye-Ang):
   XX=             -1.6221   YY=              2.0239   ZZ=             -0.4018
   XY=              0.0000   XZ=              0.0000   YZ=              0.0000
 Octapole moment (field-independent basis, Debye-Ang**2):
  XXX=              0.0000  YYY=              0.0000  ZZZ=             -1.5426  XYY=              0.0000
  XXY=              0.0000  XXZ=             -0.4504  XZZ=              0.0000  YZZ=              0.0000
  YYZ=             -1.4542  XYZ=              0.0000
 Hexadecapole moment (field-independent basis, Debye-Ang**3):
 XXXX=             -7.4133 YYYY=             -6.0020 ZZZZ=             -7.7109 XXXY=              0.0000
 XXXZ=              0.0000 YYYX=              0.0000 YYYZ=              0.0000 ZZZX=              0.0000
 ZZZY=              0.0000 XXYY=             -2.5633 XXZZ=             -2.5648 YYZZ=             -2.0098
 XXYZ=              0.0000 YYXZ=              0.0000 ZZXY=              0.0000
 N-N= 9.157115977618D+00 E-N=-1.986402479174D+02  KE= 7.576081286892D+01
 Symmetry A1   KE= 6.772917283213D+01
 Symmetry A2   KE=-1.500144961797D-36
 Symmetry B1   KE= 4.446789717982D+00
 Symmetry B2   KE= 3.584850318811D+00
 Calling FoFJK, ICntrl=      2127 FMM=F ISym2X=1 I1Cent= 0 IOpClX= 0 NMat=1 NMatS=1 NMatT=0.
 ***** Axes restored to original set *****
 -------------------------------------------------------------------
 Center     Atomic                   Forces (Hartrees/Bohr)
 Number     Number              X              Y              Z
 -------------------------------------------------------------------
      1        8          -0.004521324   -0.006397525    0.000000000
      2        1           0.000220224    0.004640802    0.000000000
      3        1           0.004301100    0.001756724    0.000000000
 -------------------------------------------------------------------
 Cartesian Forces:  Max     0.006397525 RMS     0.003408189

 GradGradGradGradGradGradGradGradGradGradGradGradGradGradGradGradGradGrad
 Berny optimization.
 Internal  Forces:  Max     0.008419050 RMS     0.004864066
 Search for a local minimum.
 Step number   1 out of a maximum of   20
 All quantities printed in internal units (Hartrees-Bohrs-Radians)
 Mixed Optimization -- RFO/linear search
 Second derivative matrix not updated -- first step.
 The second derivative matrix:
                          R1        R2        A1
           R1           0.55473
           R2           0.00000   0.55473
           A1           0.00000   0.00000   0.16000
     Eigenvalues ---    0.16000   0.55473   0.55473
 RFO step:  Lambda=-4.41953594D-04 EMin= 1.60000000D-01
 Linear search not attempted -- first point.
 Iteration  1 RMS(Cart)=  0.02882697 RMS(Int)=  0.00050980
 Iteration  2 RMS(Cart)=  0.00045140 RMS(Int)=  0.00000000
 Iteration  3 RMS(Cart)=  0.00000000 RMS(Int)=  0.00000000
 ClnCor:  largest displacement from symmetrization is 5.66D-16 for atom     3.
 Variable       Old X    -DE/DX   Delta X   Delta X   Delta X     New X
                                 (Linear)    (Quad)   (Total)
    R1        1.81414   0.00022   0.00000   0.00040   0.00040   1.81453
    R2        1.81414   0.00022   0.00000   0.00040   0.00040   1.81453
    A1        1.91114  -0.00842   0.00000  -0.05247  -0.05247   1.85866
         Item               Value     Threshold  Converged?
 Maximum Force            0.008419     0.000450     NO 
 RMS     Force            0.004864     0.000300     NO 
 Maximum Displacement     0.030041     0.001800     NO 
 RMS     Displacement     0.029045     0.001200     NO 
 Predicted change in Energy=-2.215870D-04
 GradGradGradGradGradGradGradGradGradGradGradGradGradGradGradGradGradGrad

                          Input orientation:                          
 ---------------------------------------------------------------------
 Center     Atomic      Atomic             Coordinates (Angstroms)
 Number     Number       Type             X           Y           Z
 ---------------------------------------------------------------------
      1          8           0       -0.197212   -0.575072    0.000000
      2          1           0        0.762668   -0.549881    0.000000
      3          1           0       -0.493881    0.338159    0.000000
 ---------------------------------------------------------------------
                    Distance matrix (angstroms):
                    1          2          3
     1  O    0.000000
     2  H    0.960210   0.000000
     3  H    0.960210   1.538678   0.000000
 Stoichiometry    H2O
 Framework group  C2V[C2(O),SGV(H2)]
 Deg. of freedom     2
 Full point group                 C2V     NOp   4
 Largest Abelian subgroup         C2V     NOp   4
 Largest concise Abelian subgroup C2      NOp   2
                         Standard orientation:                         
 ---------------------------------------------------------------------
 Center     Atomic      Atomic             Coordinates (Angstroms)
 Number     Number       Type             X           Y           Z
 ---------------------------------------------------------------------
      1          8           0        0.000000    0.000000    0.114912
      2          1           0        0.000000    0.769339   -0.459649
      3          1           0        0.000000   -0.769339   -0.459649
 ---------------------------------------------------------------------
 Rotational constants (GHZ):    855.2142364    423.6103154    283.2895036
 Standard basis: 6-31+G(d,p) (6D, 7F)
 There are    14 symmetry adapted basis functions of A1  symmetry.
 There are     2 symmetry adapted basis functions of A2  symmetry.
 There are     5 symmetry adapted basis functions of B1  symmetry.
 There are     8 symmetry adapted basis functions of B2  symmetry.
 Integral buffers will be    262144 words long.
 Raffenetti 2 integral format.
 Two-electron integral symmetry is turned on.
    29 basis functions,    46 primitive gaussians,    29 cartesian basis functions
     5 alpha electrons        5 beta electrons
       nuclear repulsion energy         9.1616088626 Hartrees.
 NAtoms=    3 NActive=    3 NUniq=    2 SFac= 1.69D+00 NAtFMM=   80 NAOKFM=F Big=F
 One-electron integrals computed using PRISM.
 NBasis=    29 RedAO= T  NBF=    14     2     5     8
 NBsUse=    29 1.00D-06 NBFU=    14     2     5     8
 Initial guess read from the read-write file.
 B after Tr=     0.000000    0.000000    0.000000
         Rot=    1.000000    0.000000    0.000000    0.000000 Ang=   0.00 deg.
 Initial guess orbital symmetries:
       Occupied  (A1) (A1) (B2) (A1) (B1)
       Virtual   (A1) (B2) (A1) (B1) (B2) (A1) (B2) (A1) (B2) (A1)
                 (B1) (A1) (A2) (A1) (B1) (B2) (A1) (B2) (B1) (A2)
                 (A1) (A1) (B2) (A1)
 Harris functional with IExCor= 1009 diagonalized for initial guess.
 ExpMin= 8.45D-02 ExpMax= 5.48D+03 ExpMxC= 8.25D+02 IAcc=2 IRadAn=         0 AccDes= 0.00D+00
 HarFok:  IExCor= 1009 AccDes= 0.00D+00 IRadAn=         0 IDoV= 1
 ScaDFX=  1.000000  1.000000  1.000000  1.000000
 FoFCou: FMM=F IPFlag=           0 FMFlag=      100000 FMFlg1=           0
         NFxFlg=           0 DoJE=T BraDBF=F KetDBF=T FulRan=T
         Omega=  0.000000  0.000000  1.000000  0.000000  0.000000 ICntrl=     500 IOpCl=  0
         NMat0=    1 NMatS0=    1 NMatT0=    0 NMatD0=    1 NMtDS0=    0 NMtDT0=    0
         I1Cent=           4 NGrid=           0.
 Petite list used in FoFCou.
 Requested convergence on RMS density matrix=1.00D-08 within 128 cycles.
 Requested convergence on MAX density matrix=1.00D-06.
 Requested convergence on             energy=1.00D-06.
 No special actions if energy rises.
 Keep R1 ints in memory in canonical form, NReq=996184.
 Integral accuracy reduced to 1.0D-05 until final iterations.
 Initial convergence to 1.0D-05 achieved.  Increase integral accuracy.
 SCF Done:  E(RM062X) =  -76.3949575251     A.U. after   13 cycles
             Convg  =    0.8051D-08             -V/T =  2.0083
 Calling FoFJK, ICntrl=      2127 FMM=F ISym2X=1 I1Cent= 0 IOpClX= 0 NMat=1 NMatS=1 NMatT=0.
 ***** Axes restored to original set *****
 -------------------------------------------------------------------
 Center     Atomic                   Forces (Hartrees/Bohr)
 Number     Number              X              Y              Z
 -------------------------------------------------------------------
      1        8          -0.001364585   -0.001930843    0.000000000
      2        1           0.001401184    0.000457359    0.000000000
      3        1          -0.000036600    0.001473484    0.000000000
 -------------------------------------------------------------------
 Cartesian Forces:  Max     0.001930843 RMS     0.001050673

 GradGradGradGradGradGradGradGradGradGradGradGradGradGradGradGradGradGrad
 Berny optimization.
 Using GEDIIS/GDIIS optimizer.
 Internal  Forces:  Max     0.001412700 RMS     0.001234703
 Search for a local minimum.
 Step number   2 out of a maximum of   20
 All quantities printed in internal units (Hartrees-Bohrs-Radians)
 Mixed Optimization -- RFO/linear search
 Update second derivatives using D2CorX and points    1    2
 DE= -2.43D-04 DEPred=-2.22D-04 R= 1.10D+00
 SS=  1.41D+00  RLast= 5.25D-02 DXNew= 5.0454D-01 1.5743D-01
 Trust test= 1.10D+00 RLast= 5.25D-02 DXMaxT set to 3.00D-01
 The second derivative matrix:
                          R1        R2        A1
           R1           0.55817
           R2           0.00344   0.55817
           A1           0.02697   0.02697   0.14631
 Use linear search instead of GDIIS.
     Eigenvalues ---    0.14284   0.55473   0.56508
 RFO step:  Lambda=-8.45807300D-06 EMin= 1.42836991D-01
 Quartic linear search produced a step of  0.09965.
 Iteration  1 RMS(Cart)=  0.00300598 RMS(Int)=  0.00000876
 Iteration  2 RMS(Cart)=  0.00000973 RMS(Int)=  0.00000000
 Iteration  3 RMS(Cart)=  0.00000000 RMS(Int)=  0.00000000
 ClnCor:  largest displacement from symmetrization is 8.95D-15 for atom     3.
 Variable       Old X    -DE/DX   Delta X   Delta X   Delta X     New X
                                 (Linear)    (Quad)   (Total)
    R1        1.81453   0.00141   0.00004   0.00277   0.00281   1.81734
    R2        1.81453   0.00141   0.00004   0.00277   0.00281   1.81734
    A1        1.85866  -0.00076  -0.00523  -0.00086  -0.00609   1.85257
         Item               Value     Threshold  Converged?
 Maximum Force            0.001413     0.000450     NO 
 RMS     Force            0.001235     0.000300     NO 
 Maximum Displacement     0.003326     0.001800     NO 
 RMS     Displacement     0.003010     0.001200     NO 
 Predicted change in Energy=-6.360875D-06
 GradGradGradGradGradGradGradGradGradGradGradGradGradGradGradGradGradGrad

                          Input orientation:                          
 ---------------------------------------------------------------------
 Center     Atomic      Atomic             Coordinates (Angstroms)
 Number     Number       Type             X           Y           Z
 ---------------------------------------------------------------------
      1          8           0       -0.198456   -0.576832    0.000000
      2          1           0        0.762828   -0.548675    0.000000
      3          1           0       -0.492797    0.338713    0.000000
 ---------------------------------------------------------------------
                    Distance matrix (angstroms):
                    1          2          3
     1  O    0.000000
     2  H    0.961696   0.000000
     3  H    0.961696   1.537546   0.000000
 Stoichiometry    H2O
 Framework group  C2V[C2(O),SGV(H2)]
 Deg. of freedom     2
 Full point group                 C2V     NOp   4
 Largest Abelian subgroup         C2V     NOp   4
 Largest concise Abelian subgroup C2      NOp   2
                         Standard orientation:                         
 ---------------------------------------------------------------------
 Center     Atomic      Atomic             Coordinates (Angstroms)
 Number     Number       Type             X           Y           Z
 ---------------------------------------------------------------------
      1          8           0        0.000000    0.000000    0.115559
      2          1           0        0.000000    0.768773   -0.462235
      3          1           0        0.000000   -0.768773   -0.462235
 ---------------------------------------------------------------------
 Rotational constants (GHZ):    845.6699852    424.2341149    282.5111421
 Standard basis: 6-31+G(d,p) (6D, 7F)
 There are    14 symmetry adapted basis functions of A1  symmetry.
 There are     2 symmetry adapted basis functions of A2  symmetry.
 There are     5 symmetry adapted basis functions of B1  symmetry.
 There are     8 symmetry adapted basis functions of B2  symmetry.
 Integral buffers will be    262144 words long.
 Raffenetti 2 integral format.
 Two-electron integral symmetry is turned on.
    29 basis functions,    46 primitive gaussians,    29 cartesian basis functions
     5 alpha electrons        5 beta electrons
       nuclear repulsion energy         9.1482394648 Hartrees.
 NAtoms=    3 NActive=    3 NUniq=    2 SFac= 1.69D+00 NAtFMM=   80 NAOKFM=F Big=F
 One-electron integrals computed using PRISM.
 NBasis=    29 RedAO= T  NBF=    14     2     5     8
 NBsUse=    29 1.00D-06 NBFU=    14     2     5     8
 Initial guess read from the read-write file.
 B after Tr=     0.000000    0.000000    0.000000
         Rot=    1.000000    0.000000    0.000000    0.000000 Ang=   0.00 deg.
 Initial guess orbital symmetries:
       Occupied  (A1) (A1) (B2) (A1) (B1)
       Virtual   (A1) (B2) (A1) (B1) (B2) (A1) (B2) (A1) (B2) (A1)
                 (B1) (A1) (A2) (A1) (B1) (B2) (A1) (B2) (B1) (A2)
                 (A1) (A1) (B2) (A1)
 Requested convergence on RMS density matrix=1.00D-08 within 128 cycles.
 Requested convergence on MAX density matrix=1.00D-06.
 Requested convergence on             energy=1.00D-06.
 No special actions if energy rises.
 Keep R1 ints in memory in canonical form, NReq=996184.
 SCF Done:  E(RM062X) =  -76.3949638714     A.U. after    7 cycles
             Convg  =    0.4361D-08             -V/T =  2.0084
 Calling FoFJK, ICntrl=      2127 FMM=F ISym2X=1 I1Cent= 0 IOpClX= 0 NMat=1 NMatS=1 NMatT=0.
 ***** Axes restored to original set *****
 -------------------------------------------------------------------
 Center     Atomic                   Forces (Hartrees/Bohr)
 Number     Number              X              Y              Z
 -------------------------------------------------------------------
      1        8          -0.000015157   -0.000021447    0.000000000
      2        1           0.000021517    0.000000873    0.000000000
      3        1          -0.000006360    0.000020574    0.000000000
 -------------------------------------------------------------------
 Cartesian Forces:  Max     0.000021517 RMS     0.000013405

 GradGradGradGradGradGradGradGradGradGradGradGradGradGradGradGradGradGrad
 Berny optimization.
 Using GEDIIS/GDIIS optimizer.
 Internal  Forces:  Max     0.000021533 RMS     0.000017584
 Search for a local minimum.
 Step number   3 out of a maximum of   20
 All quantities printed in internal units (Hartrees-Bohrs-Radians)
 Mixed Optimization -- En-DIIS/RFO-DIIS
 Update second derivatives using D2CorX and points    1    2    3
 DE= -6.35D-06 DEPred=-6.36D-06 R= 9.98D-01
 SS=  1.41D+00  RLast= 7.27D-03 DXNew= 5.0454D-01 2.1814D-02
 Trust test= 9.98D-01 RLast= 7.27D-03 DXMaxT set to 3.00D-01
 The second derivative matrix:
                          R1        R2        A1
           R1           0.55352
           R2          -0.00122   0.55352
           A1           0.02618   0.02618   0.14931
 Use linear search instead of GDIIS.
     Eigenvalues ---    0.14593   0.55473   0.55568
 RFO step:  Lambda= 0.00000000D+00 EMin= 1.45932228D-01
 Quartic linear search produced a step of  0.00995.
 Iteration  1 RMS(Cart)=  0.00002512 RMS(Int)=  0.00000000
 Iteration  2 RMS(Cart)=  0.00000000 RMS(Int)=  0.00000000
 ClnCor:  largest displacement from symmetrization is 1.16D-14 for atom     3.
 Variable       Old X    -DE/DX   Delta X   Delta X   Delta X     New X
                                 (Linear)    (Quad)   (Total)
    R1        1.81734   0.00002   0.00003   0.00001   0.00004   1.81738
    R2        1.81734   0.00002   0.00003   0.00001   0.00004   1.81738
    A1        1.85257   0.00000  -0.00006   0.00004  -0.00002   1.85255
         Item               Value     Threshold  Converged?
 Maximum Force            0.000022     0.000450     YES
 RMS     Force            0.000018     0.000300     YES
 Maximum Displacement     0.000025     0.001800     YES
 RMS     Displacement     0.000025     0.001200     YES
 Predicted change in Energy=-8.605046D-10
 Optimization completed.
    -- Stationary point found.
                           ----------------------------
                           !   Optimized Parameters   !
                           ! (Angstroms and Degrees)  !
 --------------------------                            --------------------------
 ! Name  Definition              Value          Derivative Info.                !
 --------------------------------------------------------------------------------
 ! R1    R(1,2)                  0.9617         -DE/DX =    0.0                 !
 ! R2    R(1,3)                  0.9617         -DE/DX =    0.0                 !
 ! A1    A(2,1,3)              106.1444         -DE/DX =    0.0                 !
 --------------------------------------------------------------------------------
 GradGradGradGradGradGradGradGradGradGradGradGradGradGradGradGradGradGrad

                          Input orientation:                          
 ---------------------------------------------------------------------
 Center     Atomic      Atomic             Coordinates (Angstroms)
 Number     Number       Type             X           Y           Z
 ---------------------------------------------------------------------
      1          8           0       -0.198456   -0.576832    0.000000
      2          1           0        0.762828   -0.548675    0.000000
      3          1           0       -0.492797    0.338713    0.000000
 ---------------------------------------------------------------------
                    Distance matrix (angstroms):
                    1          2          3
     1  O    0.000000
     2  H    0.961696   0.000000
     3  H    0.961696   1.537546   0.000000
 Stoichiometry    H2O
 Framework group  C2V[C2(O),SGV(H2)]
 Deg. of freedom     2
 Full point group                 C2V     NOp   4
 Largest Abelian subgroup         C2V     NOp   4
 Largest concise Abelian subgroup C2      NOp   2
                         Standard orientation:                         
 ---------------------------------------------------------------------
 Center     Atomic      Atomic             Coordinates (Angstroms)
 Number     Number       Type             X           Y           Z
 ---------------------------------------------------------------------
      1          8           0        0.000000    0.000000    0.115559
      2          1           0        0.000000    0.768773   -0.462235
      3          1           0        0.000000   -0.768773   -0.462235
 ---------------------------------------------------------------------
 Rotational constants (GHZ):    845.6699852    424.2341149    282.5111421

 **********************************************************************

            Population analysis using the SCF density.

 **********************************************************************

 Orbital symmetries:
       Occupied  (A1) (A1) (B2) (A1) (B1)
       Virtual   (A1) (B2) (A1) (B1) (B2) (A1) (B2) (A1) (B2) (A1)
                 (B1) (A1) (A2) (A1) (B1) (B2) (A1) (B2) (A2) (B1)
                 (A1) (A1) (B2) (A1)
 The electronic state is 1-A1.
 Alpha  occ. eigenvalues --  -19.65024  -1.13517  -0.61260  -0.46822  -0.39690
 Alpha virt. eigenvalues --    0.07101   0.14693   0.18169   0.18564   0.25051
 Alpha virt. eigenvalues --    0.28326   0.97906   1.06531   1.14484   1.18903
 Alpha virt. eigenvalues --    1.19503   1.29029   1.56011   1.59587   1.68992
 Alpha virt. eigenvalues --    2.27948   2.29337   2.57136   2.67711   2.68015
 Alpha virt. eigenvalues --    3.05896   3.36829   3.54205   3.94306
          Condensed to atoms (all electrons):
              1          2          3
     1  O    8.157600   0.290408   0.290408
     2  H    0.290408   0.364657  -0.024272
     3  H    0.290408  -0.024272   0.364657
 Mulliken atomic charges:
              1
     1  O   -0.738415
     2  H    0.369208
     3  H    0.369208
 Sum of Mulliken atomic charges =   0.00000
 Mulliken charges with hydrogens summed into heavy atoms:
              1
     1  O    0.000000
 Sum of Mulliken charges with hydrogens summed into heavy atoms =   0.00000
 Electronic spatial extent (au):  <R**2>=             19.8717
 Charge=              0.0000 electrons
 Dipole moment (field-independent basis, Debye):
    X=              0.0000    Y=              0.0000    Z=             -2.2169  Tot=              2.2169
 Quadrupole moment (field-independent basis, Debye-Ang):
   XX=             -7.7669   YY=             -4.2717   ZZ=             -6.4464
   XY=              0.0000   XZ=              0.0000   YZ=              0.0000
 Traceless Quadrupole moment (field-independent basis, Debye-Ang):
   XX=             -1.6052   YY=              1.8900   ZZ=             -0.2847
   XY=              0.0000   XZ=              0.0000   YZ=              0.0000
 Octapole moment (field-independent basis, Debye-Ang**2):
  XXX=              0.0000  YYY=              0.0000  ZZZ=             -1.6126  XYY=              0.0000
  XXY=              0.0000  XXZ=             -0.4652  XZZ=              0.0000  YZZ=              0.0000
  YYZ=             -1.4514  XYZ=              0.0000
 Hexadecapole moment (field-independent basis, Debye-Ang**3):
 XXXX=             -7.3935 YYYY=             -6.1371 ZZZZ=             -7.7048 XXXY=              0.0000
 XXXZ=              0.0000 YYYX=              0.0000 YYYZ=              0.0000 ZZZX=              0.0000
 ZZZY=              0.0000 XXYY=             -2.5530 XXZZ=             -2.5681 YYZZ=             -1.9855
 XXYZ=              0.0000 YYXZ=              0.0000 ZZXY=              0.0000
 N-N= 9.148239464760D+00 E-N=-1.986180604270D+02  KE= 7.576187771773D+01
 Symmetry A1   KE= 6.771783849321D+01
 Symmetry A2   KE= 4.967091972625D-35
 Symmetry B1   KE= 4.450782563388D+00
 Symmetry B2   KE= 3.593256661129D+00
 1|1|UNPC-DESKTOP-319GPER|FOpt|RM062X|6-31+G(d,p)|H2O1|SAGAD|08-Oct-202
 0|0||#opt freq M062X/6-31+g(d,p)||Calculation of water M062X||0,1|O,-0
 .1984556365,-0.5768317247,0.|H,0.7628277191,-0.5486746325,0.|H,-0.4927
 965508,0.338712888,0.||Version=IA32W-G09RevA.02|State=1-A1|HF=-76.3949
 639|RMSD=4.361e-009|RMSF=1.340e-005|Dipole=0.5033825,0.7122698,0.|Quad
 rupole=0.8665826,0.3268674,-1.1934501,-0.7620544,0.,0.|PG=C02V [C2(O1)
 ,SGV(H2)]||@


 ACHIEVEMENT--  THE MAN WHO ROWS THE BOAT GENERALLY 
                DOESN'T HAVE TIME TO ROCK IT.

                   -- FROM THE BACK OF A SUGAR PACKET
 Job cpu time:  0 days  0 hours  0 minutes  4.0 seconds.
 File lengths (MBytes):  RWF=      5 Int=      0 D2E=      0 Chk=      1 Scr=      1
 Normal termination of Gaussian 09 at Thu Oct 08 03:12:32 2020.
 Link1:  Proceeding to internal job step number  2.
 ----------------------------------------------------------------------
 #N Geom=AllCheck Guess=TCheck SCRF=Check GenChk RM062X/6-31+G(d,p) Fre
 q
 ----------------------------------------------------------------------
 1/10=4,29=7,30=1,38=1,40=1/1,3;
 2/12=2,40=1/2;
 3/5=1,6=6,7=111,11=2,14=-4,16=1,25=1,30=1,70=2,71=2,74=-55,116=1/1,2,3;
 4/5=101/1;
 5/5=2,98=1/2;
 8/6=4,10=90,11=11/1;
 11/6=1,8=1,9=11,15=111,16=1/1,2,10;
 10/6=1/2;
 6/7=2,8=2,9=2,10=2,18=1,28=1/1;
 7/8=1,10=1,25=1/1,2,3,16;
 1/10=4,30=1/3;
 99//99;
 --------------------------
 Calculation of water M062X
 --------------------------
 Redundant internal coordinates taken from checkpoint file:
 C:\Users\sagad\Documents\rayGit\FQ\quimicaComputacional\class4Metilo\productos\waterM062X.chk
 Charge =  0 Multiplicity = 1
 O,0,-0.1984556365,-0.5768317247,0.
 H,0,0.7628277191,-0.5486746325,0.
 H,0,-0.4927965508,0.338712888,0.
 Recover connectivity data from disk.

 GradGradGradGradGradGradGradGradGradGradGradGradGradGradGradGradGradGrad
 Berny optimization.
 Initialization pass.
                           ----------------------------
                           !    Initial Parameters    !
                           ! (Angstroms and Degrees)  !
 --------------------------                            --------------------------
 ! Name  Definition              Value          Derivative Info.                !
 --------------------------------------------------------------------------------
 ! R1    R(1,2)                  0.9617         calculate D2E/DX2 analytically  !
 ! R2    R(1,3)                  0.9617         calculate D2E/DX2 analytically  !
 ! A1    A(2,1,3)              106.1444         calculate D2E/DX2 analytically  !
 --------------------------------------------------------------------------------
 Trust Radius=3.00D-01 FncErr=1.00D-07 GrdErr=1.00D-07
 Number of steps in this run=   2 maximum allowed number of steps=   2.
 GradGradGradGradGradGradGradGradGradGradGradGradGradGradGradGradGradGrad

                          Input orientation:                          
 ---------------------------------------------------------------------
 Center     Atomic      Atomic             Coordinates (Angstroms)
 Number     Number       Type             X           Y           Z
 ---------------------------------------------------------------------
      1          8           0       -0.198456   -0.576832    0.000000
      2          1           0        0.762828   -0.548675    0.000000
      3          1           0       -0.492797    0.338713    0.000000
 ---------------------------------------------------------------------
                    Distance matrix (angstroms):
                    1          2          3
     1  O    0.000000
     2  H    0.961696   0.000000
     3  H    0.961696   1.537546   0.000000
 Stoichiometry    H2O
 Framework group  C2V[C2(O),SGV(H2)]
 Deg. of freedom     2
 Full point group                 C2V     NOp   4
 Largest Abelian subgroup         C2V     NOp   4
 Largest concise Abelian subgroup C2      NOp   2
                         Standard orientation:                         
 ---------------------------------------------------------------------
 Center     Atomic      Atomic             Coordinates (Angstroms)
 Number     Number       Type             X           Y           Z
 ---------------------------------------------------------------------
      1          8           0        0.000000    0.000000    0.115559
      2          1           0        0.000000    0.768773   -0.462235
      3          1           0        0.000000   -0.768773   -0.462235
 ---------------------------------------------------------------------
 Rotational constants (GHZ):    845.6699852    424.2341149    282.5111421
 Standard basis: 6-31+G(d,p) (6D, 7F)
 There are    14 symmetry adapted basis functions of A1  symmetry.
 There are     2 symmetry adapted basis functions of A2  symmetry.
 There are     5 symmetry adapted basis functions of B1  symmetry.
 There are     8 symmetry adapted basis functions of B2  symmetry.
 Integral buffers will be    262144 words long.
 Raffenetti 2 integral format.
 Two-electron integral symmetry is turned on.
    29 basis functions,    46 primitive gaussians,    29 cartesian basis functions
     5 alpha electrons        5 beta electrons
       nuclear repulsion energy         9.1482394648 Hartrees.
 NAtoms=    3 NActive=    3 NUniq=    2 SFac= 1.69D+00 NAtFMM=   80 NAOKFM=F Big=F
 One-electron integrals computed using PRISM.
 NBasis=    29 RedAO= T  NBF=    14     2     5     8
 NBsUse=    29 1.00D-06 NBFU=    14     2     5     8
 Initial guess read from the checkpoint file:  C:\Users\sagad\Documents\rayGit\FQ
 \quimicaComputacional\class4Metilo\productos\waterM062X.chk
 B after Tr=     0.000000    0.000000    0.000000
         Rot=    1.000000    0.000000    0.000000    0.000000 Ang=   0.00 deg.
 Initial guess orbital symmetries:
       Occupied  (A1) (A1) (B2) (A1) (B1)
       Virtual   (A1) (B2) (A1) (B1) (B2) (A1) (B2) (A1) (B2) (A1)
                 (B1) (A1) (A2) (A1) (B1) (B2) (A1) (B2) (A2) (B1)
                 (A1) (A1) (B2) (A1)
 Requested convergence on RMS density matrix=1.00D-08 within 128 cycles.
 Requested convergence on MAX density matrix=1.00D-06.
 Requested convergence on             energy=1.00D-06.
 No special actions if energy rises.
 Keep R1 ints in memory in canonical form, NReq=996184.
 SCF Done:  E(RM062X) =  -76.3949638714     A.U. after    1 cycles
             Convg  =    0.3509D-09             -V/T =  2.0084
 Range of M.O.s used for correlation:     1    29
 NBasis=    29 NAE=     5 NBE=     5 NFC=     0 NFV=     0
 NROrb=     29 NOA=     5 NOB=     5 NVA=    24 NVB=    24
 Symmetrizing basis deriv contribution to polar:
 IMax=3 JMax=2 DiffMx= 0.00D+00
 G2DrvN: will do     4 centers at a time, making    1 passes doing MaxLOS=2.
 Calling FoFCou, ICntrl=  3107 FMM=F I1Cent=   0 AccDes= 0.00D+00.
 FoFDir/FoFCou used for L=0 through L=2.
 End of G2Drv Frequency-dependent properties file   721 does not exist.
 End of G2Drv Frequency-dependent properties file   722 does not exist.
          IDoAtm=111
          Differentiating once with respect to electric field.
                with respect to dipole field.
          Differentiating once with respect to nuclear coordinates.
          Keep R1 ints in memory in canonical form, NReq=915598.
          There are     9 degrees of freedom in the 1st order CPHF.  IDoFFX=4.
      9 vectors produced by pass  0 Test12= 1.33D-15 1.11D-08 XBig12= 2.31D+00 1.02D+00.
 AX will form     9 AO Fock derivatives at one time.
      9 vectors produced by pass  1 Test12= 1.33D-15 1.11D-08 XBig12= 2.35D-01 1.86D-01.
      9 vectors produced by pass  2 Test12= 1.33D-15 1.11D-08 XBig12= 3.87D-03 2.92D-02.
      9 vectors produced by pass  3 Test12= 1.33D-15 1.11D-08 XBig12= 2.45D-05 1.91D-03.
      9 vectors produced by pass  4 Test12= 1.33D-15 1.11D-08 XBig12= 1.50D-07 1.57D-04.
      6 vectors produced by pass  5 Test12= 1.33D-15 1.11D-08 XBig12= 2.00D-10 7.00D-06.
      2 vectors produced by pass  6 Test12= 1.33D-15 1.11D-08 XBig12= 1.04D-13 1.21D-07.
 Inverted reduced A of dimension    53 with in-core refinement.
 Isotropic polarizability for W=    0.000000        6.64 Bohr**3.
 End of Minotr Frequency-dependent properties file   721 does not exist.
 End of Minotr Frequency-dependent properties file   722 does not exist.

 **********************************************************************

            Population analysis using the SCF density.

 **********************************************************************

 Orbital symmetries:
       Occupied  (A1) (A1) (B2) (A1) (B1)
       Virtual   (A1) (B2) (A1) (B1) (B2) (A1) (B2) (A1) (B2) (A1)
                 (B1) (A1) (A2) (A1) (B1) (B2) (A1) (B2) (A2) (B1)
                 (A1) (A1) (B2) (A1)
 The electronic state is 1-A1.
 Alpha  occ. eigenvalues --  -19.65024  -1.13517  -0.61260  -0.46822  -0.39690
 Alpha virt. eigenvalues --    0.07101   0.14693   0.18169   0.18564   0.25051
 Alpha virt. eigenvalues --    0.28326   0.97906   1.06531   1.14484   1.18903
 Alpha virt. eigenvalues --    1.19503   1.29029   1.56011   1.59587   1.68992
 Alpha virt. eigenvalues --    2.27948   2.29337   2.57136   2.67711   2.68015
 Alpha virt. eigenvalues --    3.05896   3.36829   3.54205   3.94306
          Condensed to atoms (all electrons):
              1          2          3
     1  O    8.157600   0.290408   0.290408
     2  H    0.290408   0.364657  -0.024272
     3  H    0.290408  -0.024272   0.364657
 Mulliken atomic charges:
              1
     1  O   -0.738415
     2  H    0.369208
     3  H    0.369208
 Sum of Mulliken atomic charges =   0.00000
 Mulliken charges with hydrogens summed into heavy atoms:
              1
     1  O    0.000000
 Sum of Mulliken charges with hydrogens summed into heavy atoms =   0.00000
 APT atomic charges:
              1
     1  O   -0.605500
     2  H    0.302750
     3  H    0.302750
 Sum of APT charges=   0.00000
 APT Atomic charges with hydrogens summed into heavy atoms:
              1
     1  O    0.000000
     2  H    0.000000
     3  H    0.000000
 Sum of APT charges=   0.00000
 Electronic spatial extent (au):  <R**2>=             19.8717
 Charge=              0.0000 electrons
 Dipole moment (field-independent basis, Debye):
    X=              0.0000    Y=              0.0000    Z=             -2.2169  Tot=              2.2169
 Quadrupole moment (field-independent basis, Debye-Ang):
   XX=             -7.7669   YY=             -4.2717   ZZ=             -6.4464
   XY=              0.0000   XZ=              0.0000   YZ=              0.0000
 Traceless Quadrupole moment (field-independent basis, Debye-Ang):
   XX=             -1.6052   YY=              1.8900   ZZ=             -0.2847
   XY=              0.0000   XZ=              0.0000   YZ=              0.0000
 Octapole moment (field-independent basis, Debye-Ang**2):
  XXX=              0.0000  YYY=              0.0000  ZZZ=             -1.6126  XYY=              0.0000
  XXY=              0.0000  XXZ=             -0.4652  XZZ=              0.0000  YZZ=              0.0000
  YYZ=             -1.4514  XYZ=              0.0000
 Hexadecapole moment (field-independent basis, Debye-Ang**3):
 XXXX=             -7.3935 YYYY=             -6.1371 ZZZZ=             -7.7048 XXXY=              0.0000
 XXXZ=              0.0000 YYYX=              0.0000 YYYZ=              0.0000 ZZZX=              0.0000
 ZZZY=              0.0000 XXYY=             -2.5530 XXZZ=             -2.5681 YYZZ=             -1.9855
 XXYZ=              0.0000 YYXZ=              0.0000 ZZXY=              0.0000
 N-N= 9.148239464760D+00 E-N=-1.986180604236D+02  KE= 7.576187771407D+01
 Symmetry A1   KE= 6.771783847765D+01
 Symmetry A2   KE= 1.145000292545D-34
 Symmetry B1   KE= 4.450782565826D+00
 Symmetry B2   KE= 3.593256670596D+00
  Exact polarizability:   6.032   0.000   7.627   0.000   0.000   6.254
 Approx polarizability:   5.402   0.000   7.951   0.000   0.000   6.170
 Calling FoFJK, ICntrl=    100127 FMM=F ISym2X=1 I1Cent= 0 IOpClX= 0 NMat=1 NMatS=1 NMatT=0.
 Full mass-weighted force constant matrix:
 Low frequencies --- -172.9564 -163.2153  -72.5015   -0.0021   -0.0016   -0.0005
 Low frequencies --- 1596.2833 3887.5900 4012.6656
 Diagonal vibrational polarizability:
        0.0000000       0.1285089       1.0903528
 Harmonic frequencies (cm**-1), IR intensities (KM/Mole), Raman scattering
 activities (A**4/AMU), depolarization ratios for plane and unpolarized
 incident light, reduced masses (AMU), force constants (mDyne/A),
 and normal coordinates:
                     1                      2                      3
                    A1                     A1                     B2
 Frequencies --  1596.2833              3887.5900              4012.6594
 Red. masses --     1.0834                 1.0445                 1.0835
 Frc consts  --     1.6265                 9.3008                10.2787
 IR Inten    --   101.0113                13.2273                76.8891
  Atom  AN      X      Y      Z        X      Y      Z        X      Y      Z
     1   8     0.00   0.00   0.07     0.00   0.00   0.05     0.00   0.07   0.00
     2   1     0.00  -0.42  -0.56     0.00   0.59  -0.39     0.00  -0.56   0.42
     3   1     0.00   0.42  -0.56     0.00  -0.59  -0.39     0.00  -0.56  -0.42

 -------------------
 - Thermochemistry -
 -------------------
 Temperature   298.150 Kelvin.  Pressure   1.00000 Atm.
 Atom     1 has atomic number  8 and mass  15.99491
 Atom     2 has atomic number  1 and mass   1.00783
 Atom     3 has atomic number  1 and mass   1.00783
 Molecular mass:    18.01056 amu.
 Principal axes and moments of inertia in atomic units:
                           1         2         3
     Eigenvalues --     2.13410   4.25412   6.38821
           X            0.00000   0.00000   1.00000
           Y            1.00000   0.00000   0.00000
           Z            0.00000   1.00000   0.00000
 This molecule is an asymmetric top.
 Rotational symmetry number  2.
 Rotational temperatures (Kelvin)     40.58571    20.36000    13.55838
 Rotational constants (GHZ):         845.66999   424.23411   282.51114
 Zero-point vibrational energy      56801.9 (Joules/Mol)
                                   13.57597 (Kcal/Mol)
 Vibrational temperatures:   2296.69  5593.37  5773.31
          (Kelvin)
 
 Zero-point correction=                           0.021635 (Hartree/Particle)
 Thermal correction to Energy=                    0.024471
 Thermal correction to Enthalpy=                  0.025415
 Thermal correction to Gibbs Free Energy=         0.003998
 Sum of electronic and zero-point Energies=            -76.373329
 Sum of electronic and thermal Energies=               -76.370493
 Sum of electronic and thermal Enthalpies=             -76.369549
 Sum of electronic and thermal Free Energies=          -76.390966
 
                     E (Thermal)             CV                S
                      KCal/Mol        Cal/Mol-Kelvin    Cal/Mol-Kelvin
 Total                   15.355              6.015             45.076
 Electronic               0.000              0.000              0.000
 Translational            0.889              2.981             34.608
 Rotational               0.889              2.981             10.460
 Vibrational             13.578              0.053              0.008
                       Q            Log10(Q)             Ln(Q)
 Total Bot       0.144948D-01         -1.838787         -4.233963
 Total V=0       0.129557D+09          8.112460         18.679630
 Vib (Bot)       0.111931D-09         -9.951051        -22.913141
 Vib (V=0)       0.100045D+01          0.000196          0.000452
 Electronic      0.100000D+01          0.000000          0.000000
 Translational   0.300432D+07          6.477746         14.915562
 Rotational      0.431040D+02          1.634518          3.763616
 ***** Axes restored to original set *****
 -------------------------------------------------------------------
 Center     Atomic                   Forces (Hartrees/Bohr)
 Number     Number              X              Y              Z
 -------------------------------------------------------------------
      1        8          -0.000015157   -0.000021447    0.000000000
      2        1           0.000021517    0.000000873    0.000000000
      3        1          -0.000006360    0.000020574    0.000000000
 -------------------------------------------------------------------
 Cartesian Forces:  Max     0.000021517 RMS     0.000013405

 GradGradGradGradGradGradGradGradGradGradGradGradGradGradGradGradGradGrad
 Berny optimization.
 Internal  Forces:  Max     0.000021533 RMS     0.000017584
 Search for a local minimum.
 Step number   1 out of a maximum of    2
 All quantities printed in internal units (Hartrees-Bohrs-Radians)
 Second derivative matrix not updated -- analytic derivatives used.
 The second derivative matrix:
                          R1        R2        A1
           R1           0.56035
           R2          -0.00722   0.56035
           A1           0.02779   0.02779   0.15134
     Eigenvalues ---    0.14753   0.55694   0.56757
 Angle between quadratic step and forces=  16.47 degrees.
 Linear search not attempted -- first point.
 Iteration  1 RMS(Cart)=  0.00002507 RMS(Int)=  0.00000000
 Iteration  2 RMS(Cart)=  0.00000000 RMS(Int)=  0.00000000
 ClnCor:  largest displacement from symmetrization is 2.42D-15 for atom     3.
 Variable       Old X    -DE/DX   Delta X   Delta X   Delta X     New X
                                 (Linear)    (Quad)   (Total)
    R1        1.81734   0.00002   0.00000   0.00004   0.00004   1.81738
    R2        1.81734   0.00002   0.00000   0.00004   0.00004   1.81738
    A1        1.85257   0.00000   0.00000  -0.00002  -0.00002   1.85255
         Item               Value     Threshold  Converged?
 Maximum Force            0.000022     0.000450     YES
 RMS     Force            0.000018     0.000300     YES
 Maximum Displacement     0.000025     0.001800     YES
 RMS     Displacement     0.000025     0.001200     YES
 Predicted change in Energy=-8.611197D-10
 Optimization completed.
    -- Stationary point found.
                           ----------------------------
                           !   Optimized Parameters   !
                           ! (Angstroms and Degrees)  !
 --------------------------                            --------------------------
 ! Name  Definition              Value          Derivative Info.                !
 --------------------------------------------------------------------------------
 ! R1    R(1,2)                  0.9617         -DE/DX =    0.0                 !
 ! R2    R(1,3)                  0.9617         -DE/DX =    0.0                 !
 ! A1    A(2,1,3)              106.1444         -DE/DX =    0.0                 !
 --------------------------------------------------------------------------------
 GradGradGradGradGradGradGradGradGradGradGradGradGradGradGradGradGradGrad

 1|1|UNPC-DESKTOP-319GPER|Freq|RM062X|6-31+G(d,p)|H2O1|SAGAD|08-Oct-202
 0|0||#N Geom=AllCheck Guess=TCheck SCRF=Check GenChk RM062X/6-31+G(d,p
 ) Freq||Calculation of water M062X||0,1|O,-0.1984556365,-0.5768317247,
 0.|H,0.7628277191,-0.5486746325,0.|H,-0.4927965508,0.338712888,0.||Ver
 sion=IA32W-G09RevA.02|State=1-A1|HF=-76.3949639|RMSD=3.509e-010|RMSF=1
 .340e-005|ZeroPoint=0.0216347|Thermal=0.0244705|Dipole=0.5033825,0.712
 2698,0.|DipoleDeriv=-0.5294313,0.0622027,0.,0.0622027,-0.4853771,0.,0.
 ,0.,-0.8016927,0.1942967,-0.0461324,0.,-0.0659437,0.3131075,0.,0.,0.,0
 .4008463,0.3351346,-0.0160703,0.,0.003741,0.1722696,0.,0.,0.,0.4008463
 |Polar=7.1698501,-0.6469904,6.7116275,0.,0.,6.0323029|PG=C02V [C2(O1),
 SGV(H2)]|NImag=0||0.63557984,-0.12572931,0.54653368,0.,0.,-0.00180461,
 -0.54710241,0.01178262,0.,0.56121431,-0.04846092,-0.04395435,0.,0.0003
 0966,0.04529710,0.,0.,0.00090230,0.,0.,-0.00102160,-0.08847743,0.11394
 669,0.,-0.01411190,0.04815126,0.,0.10258933,0.17419023,-0.50257933,0.,
 -0.01209228,-0.00134275,0.,-0.16209795,0.50392207,0.,0.,0.00090230,0.,
 0.,0.00011930,0.,0.,-0.00102160||0.00001516,0.00002145,0.,-0.00002152,
 -0.00000087,0.,0.00000636,-0.00002057,0.|||@


 ACHIEVEMENT--  THE MAN WHO ROWS THE BOAT GENERALLY 
                DOESN'T HAVE TIME TO ROCK IT.

                   -- FROM THE BACK OF A SUGAR PACKET
 Job cpu time:  0 days  0 hours  0 minutes  3.0 seconds.
 File lengths (MBytes):  RWF=      5 Int=      0 D2E=      0 Chk=      1 Scr=      1
 Normal termination of Gaussian 09 at Thu Oct 08 03:12:35 2020.
