 Entering Link 1 = C:\G09W\l1.exe PID=     15840.
  
 Copyright (c) 1988,1990,1992,1993,1995,1998,2003,2009, Gaussian, Inc.
                  All Rights Reserved.
  
 This is part of the Gaussian(R) 09 program.  It is based on
 the Gaussian(R) 03 system (copyright 2003, Gaussian, Inc.),
 the Gaussian(R) 98 system (copyright 1998, Gaussian, Inc.),
 the Gaussian(R) 94 system (copyright 1995, Gaussian, Inc.),
 the Gaussian 92(TM) system (copyright 1992, Gaussian, Inc.),
 the Gaussian 90(TM) system (copyright 1990, Gaussian, Inc.),
 the Gaussian 88(TM) system (copyright 1988, Gaussian, Inc.),
 the Gaussian 86(TM) system (copyright 1986, Carnegie Mellon
 University), and the Gaussian 82(TM) system (copyright 1983,
 Carnegie Mellon University). Gaussian is a federally registered
 trademark of Gaussian, Inc.
  
 This software contains proprietary and confidential information,
 including trade secrets, belonging to Gaussian, Inc.
  
 This software is provided under written license and may be
 used, copied, transmitted, or stored only in accord with that
 written license.
  
 The following legend is applicable only to US Government
 contracts under FAR:
  
                    RESTRICTED RIGHTS LEGEND
  
 Use, reproduction and disclosure by the US Government is
 subject to restrictions as set forth in subparagraphs (a)
 and (c) of the Commercial Computer Software - Restricted
 Rights clause in FAR 52.227-19.
  
 Gaussian, Inc.
 340 Quinnipiac St., Bldg. 40, Wallingford CT 06492
  
  
 ---------------------------------------------------------------
 Warning -- This program may not be used in any manner that
 competes with the business of Gaussian, Inc. or will provide
 assistance to any competitor of Gaussian, Inc.  The licensee
 of this program is prohibited from giving any competitor of
 Gaussian, Inc. access to this program.  By using this program,
 the user acknowledges that Gaussian, Inc. is engaged in the
 business of creating and licensing software in the field of
 computational chemistry and represents and warrants to the
 licensee that it is not a competitor of Gaussian, Inc. and that
 it will not use this program in any manner prohibited above.
 ---------------------------------------------------------------
  

 Cite this work as:
 Gaussian 09, Revision A.02,
 M. J. Frisch, G. W. Trucks, H. B. Schlegel, G. E. Scuseria, 
 M. A. Robb, J. R. Cheeseman, G. Scalmani, V. Barone, B. Mennucci, 
 G. A. Petersson, H. Nakatsuji, M. Caricato, X. Li, H. P. Hratchian, 
 A. F. Izmaylov, J. Bloino, G. Zheng, J. L. Sonnenberg, M. Hada, 
 M. Ehara, K. Toyota, R. Fukuda, J. Hasegawa, M. Ishida, T. Nakajima, 
 Y. Honda, O. Kitao, H. Nakai, T. Vreven, J. A. Montgomery, Jr., 
 J. E. Peralta, F. Ogliaro, M. Bearpark, J. J. Heyd, E. Brothers, 
 K. N. Kudin, V. N. Staroverov, R. Kobayashi, J. Normand, 
 K. Raghavachari, A. Rendell, J. C. Burant, S. S. Iyengar, J. Tomasi, 
 M. Cossi, N. Rega, J. M. Millam, M. Klene, J. E. Knox, J. B. Cross, 
 V. Bakken, C. Adamo, J. Jaramillo, R. Gomperts, R. E. Stratmann, 
 O. Yazyev, A. J. Austin, R. Cammi, C. Pomelli, J. W. Ochterski, 
 R. L. Martin, K. Morokuma, V. G. Zakrzewski, G. A. Voth, 
 P. Salvador, J. J. Dannenberg, S. Dapprich, A. D. Daniels, 
 O. Farkas, J. B. Foresman, J. V. Ortiz, J. Cioslowski, 
 and D. J. Fox, Gaussian, Inc., Wallingford CT, 2009.
 
 ******************************************
 Gaussian 09:  IA32W-G09RevA.02 11-Jun-2009
                08-Oct-2020 
 ******************************************
 %chk=C:\Users\sagad\Documents\rayGit\FQ\quimicaComputacional\class4Metilo\produc
 tos\waterB3LYP.chk
 %nprocshared=4
 Will use up to    4 processors via shared memory.
 %mem=1500MB
 ---------------------------
 #opt freq B3LYP/6-31+g(d,p)
 ---------------------------
 1/14=-1,18=20,19=15,26=3,38=1/1,3;
 2/9=110,12=2,17=6,18=5,40=1/2;
 3/5=1,6=6,7=111,11=2,16=1,25=1,30=1,71=1,74=-5/1,2,3;
 4//1;
 5/5=2,38=5/2;
 6/7=2,8=2,9=2,10=2,28=1/1;
 7//1,2,3,16;
 1/14=-1,18=20,19=15/3(2);
 2/9=110/2;
 99//99;
 2/9=110/2;
 3/5=1,6=6,7=111,11=2,16=1,25=1,30=1,71=1,74=-5/1,2,3;
 4/5=5,16=3/1;
 5/5=2,38=5/2;
 7//1,2,3,16;
 1/14=-1,18=20,19=15/3(-5);
 2/9=110/2;
 6/7=2,8=2,9=2,10=2,19=2,28=1/1;
 99/9=1/99;
 --------------------------
 Calculation of water B3LYP
 --------------------------
 Symbolic Z-matrix:
 Charge =  0 Multiplicity = 1
 O                    -0.18932  -0.56391   0. 
 H                     0.77068  -0.56391   0. 
 H                    -0.50978   0.34103   0. 
 

 GradGradGradGradGradGradGradGradGradGradGradGradGradGradGradGradGradGrad
 Berny optimization.
 Initialization pass.
                           ----------------------------
                           !    Initial Parameters    !
                           ! (Angstroms and Degrees)  !
 --------------------------                            --------------------------
 ! Name  Definition              Value          Derivative Info.                !
 --------------------------------------------------------------------------------
 ! R1    R(1,2)                  0.96           estimate D2E/DX2                !
 ! R2    R(1,3)                  0.96           estimate D2E/DX2                !
 ! A1    A(2,1,3)              109.5            estimate D2E/DX2                !
 --------------------------------------------------------------------------------
 Trust Radius=3.00D-01 FncErr=1.00D-07 GrdErr=1.00D-06
 Number of steps in this run=  20 maximum allowed number of steps= 100.
 GradGradGradGradGradGradGradGradGradGradGradGradGradGradGradGradGradGrad

                          Input orientation:                          
 ---------------------------------------------------------------------
 Center     Atomic      Atomic             Coordinates (Angstroms)
 Number     Number       Type             X           Y           Z
 ---------------------------------------------------------------------
      1          8           0       -0.189323   -0.563910    0.000000
      2          1           0        0.770677   -0.563910    0.000000
      3          1           0       -0.509778    0.341026    0.000000
 ---------------------------------------------------------------------
                    Distance matrix (angstroms):
                    1          2          3
     1  O    0.000000
     2  H    0.960000   0.000000
     3  H    0.960000   1.567952   0.000000
 Stoichiometry    H2O
 Framework group  C2V[C2(O),SGV(H2)]
 Deg. of freedom     2
 Full point group                 C2V     NOp   4
 Largest Abelian subgroup         C2V     NOp   4
 Largest concise Abelian subgroup C2      NOp   2
                         Standard orientation:                         
 ---------------------------------------------------------------------
 Center     Atomic      Atomic             Coordinates (Angstroms)
 Number     Number       Type             X           Y           Z
 ---------------------------------------------------------------------
      1          8           0        0.000000    0.000000    0.110812
      2          1           0        0.000000   -0.783976   -0.443248
      3          1           0        0.000000    0.783976   -0.443248
 ---------------------------------------------------------------------
 Rotational constants (GHZ):    919.6759295    407.9403325    282.5913747
 Standard basis: 6-31+G(d,p) (6D, 7F)
 There are    14 symmetry adapted basis functions of A1  symmetry.
 There are     2 symmetry adapted basis functions of A2  symmetry.
 There are     5 symmetry adapted basis functions of B1  symmetry.
 There are     8 symmetry adapted basis functions of B2  symmetry.
 Integral buffers will be    262144 words long.
 Raffenetti 2 integral format.
 Two-electron integral symmetry is turned on.
    29 basis functions,    46 primitive gaussians,    29 cartesian basis functions
     5 alpha electrons        5 beta electrons
       nuclear repulsion energy         9.1571159776 Hartrees.
 NAtoms=    3 NActive=    3 NUniq=    2 SFac= 1.69D+00 NAtFMM=   80 NAOKFM=F Big=F
 One-electron integrals computed using PRISM.
 NBasis=    29 RedAO= T  NBF=    14     2     5     8
 NBsUse=    29 1.00D-06 NBFU=    14     2     5     8
 Harris functional with IExCor=  402 diagonalized for initial guess.
 ExpMin= 8.45D-02 ExpMax= 5.48D+03 ExpMxC= 8.25D+02 IAcc=2 IRadAn=         0 AccDes= 0.00D+00
 HarFok:  IExCor=  402 AccDes= 0.00D+00 IRadAn=         0 IDoV= 1
 ScaDFX=  1.000000  1.000000  1.000000  1.000000
 FoFCou: FMM=F IPFlag=           0 FMFlag=      100000 FMFlg1=           0
         NFxFlg=           0 DoJE=T BraDBF=F KetDBF=T FulRan=T
         Omega=  0.000000  0.000000  1.000000  0.000000  0.000000 ICntrl=     500 IOpCl=  0
         NMat0=    1 NMatS0=    1 NMatT0=    0 NMatD0=    1 NMtDS0=    0 NMtDT0=    0
         I1Cent=           4 NGrid=           0.
 Petite list used in FoFCou.
 Initial guess orbital symmetries:
       Occupied  (A1) (A1) (B2) (A1) (B1)
       Virtual   (A1) (B2) (A1) (B1) (B2) (A1) (B2) (A1) (B1) (B2)
                 (A1) (A1) (A2) (A1) (B1) (A1) (B2) (B2) (B1) (A2)
                 (A1) (A1) (B2) (A1)
 The electronic state of the initial guess is 1-A1.
 Requested convergence on RMS density matrix=1.00D-08 within 128 cycles.
 Requested convergence on MAX density matrix=1.00D-06.
 Requested convergence on             energy=1.00D-06.
 No special actions if energy rises.
 Keep R1 ints in memory in canonical form, NReq=995801.
 Integral accuracy reduced to 1.0D-05 until final iterations.
 Initial convergence to 1.0D-05 achieved.  Increase integral accuracy.
 SCF Done:  E(RB3LYP) =  -76.4337111231     A.U. after   10 cycles
             Convg  =    0.4289D-08             -V/T =  2.0091

 **********************************************************************

            Population analysis using the SCF density.

 **********************************************************************

 Orbital symmetries:
       Occupied  (A1) (A1) (B2) (A1) (B1)
       Virtual   (A1) (B2) (A1) (B1) (B2) (A1) (B2) (A1) (B2) (B1)
                 (A1) (A1) (A2) (A1) (B1) (B2) (A1) (B2) (B1) (A2)
                 (A1) (A1) (B2) (A1)
 The electronic state is 1-A1.
 Alpha  occ. eigenvalues --  -19.16750  -1.02181  -0.55081  -0.38781  -0.32073
 Alpha virt. eigenvalues --    0.02698   0.11380   0.15476   0.15510   0.21273
 Alpha virt. eigenvalues --    0.23652   0.91201   0.98588   1.09032   1.11322
 Alpha virt. eigenvalues --    1.11545   1.22596   1.49566   1.56128   1.64221
 Alpha virt. eigenvalues --    2.22077   2.23536   2.52224   2.62503   2.66171
 Alpha virt. eigenvalues --    3.03613   3.33122   3.49881   3.93357
          Condensed to atoms (all electrons):
              1          2          3
     1  O    8.142386   0.288754   0.288754
     2  H    0.288754   0.375608  -0.024310
     3  H    0.288754  -0.024310   0.375608
 Mulliken atomic charges:
              1
     1  O   -0.719895
     2  H    0.359947
     3  H    0.359947
 Sum of Mulliken atomic charges =   0.00000
 Mulliken charges with hydrogens summed into heavy atoms:
              1
     1  O    0.000000
 Sum of Mulliken charges with hydrogens summed into heavy atoms =   0.00000
 Electronic spatial extent (au):  <R**2>=             20.0860
 Charge=              0.0000 electrons
 Dipole moment (field-independent basis, Debye):
    X=              0.0000    Y=              0.0000    Z=             -2.1278  Tot=              2.1278
 Quadrupole moment (field-independent basis, Debye-Ang):
   XX=             -7.8810   YY=             -4.2193   ZZ=             -6.6525
   XY=              0.0000   XZ=              0.0000   YZ=              0.0000
 Traceless Quadrupole moment (field-independent basis, Debye-Ang):
   XX=             -1.6301   YY=              2.0316   ZZ=             -0.4015
   XY=              0.0000   XZ=              0.0000   YZ=              0.0000
 Octapole moment (field-independent basis, Debye-Ang**2):
  XXX=              0.0000  YYY=              0.0000  ZZZ=             -1.5396  XYY=              0.0000
  XXY=              0.0000  XXZ=             -0.4635  XZZ=              0.0000  YZZ=              0.0000
  YYZ=             -1.4041  XYZ=              0.0000
 Hexadecapole moment (field-independent basis, Debye-Ang**3):
 XXXX=             -7.9708 YYYY=             -6.3372 ZZZZ=             -8.1495 XXXY=              0.0000
 XXXZ=              0.0000 YYYX=              0.0000 YYYZ=              0.0000 ZZZX=              0.0000
 ZZZY=              0.0000 XXYY=             -2.7021 XXZZ=             -2.7300 YYZZ=             -2.1517
 XXYZ=              0.0000 YYXZ=              0.0000 ZZXY=              0.0000
 N-N= 9.157115977618D+00 E-N=-1.986163210669D+02  KE= 7.574200810328D+01
 Symmetry A1   KE= 6.767425712434D+01
 Symmetry A2   KE= 7.522701575144D-36
 Symmetry B1   KE= 4.460041314661D+00
 Symmetry B2   KE= 3.607709664283D+00
 Calling FoFJK, ICntrl=      2127 FMM=F ISym2X=1 I1Cent= 0 IOpClX= 0 NMat=1 NMatS=1 NMatT=0.
 ***** Axes restored to original set *****
 -------------------------------------------------------------------
 Center     Atomic                   Forces (Hartrees/Bohr)
 Number     Number              X              Y              Z
 -------------------------------------------------------------------
      1        8          -0.006980790   -0.009877589    0.000000000
      2        1           0.003291259    0.005079530    0.000000000
      3        1           0.003689531    0.004798059    0.000000000
 -------------------------------------------------------------------
 Cartesian Forces:  Max     0.009877589 RMS     0.004939256

 GradGradGradGradGradGradGradGradGradGradGradGradGradGradGradGradGradGrad
 Berny optimization.
 Internal  Forces:  Max     0.009214963 RMS     0.005960434
 Search for a local minimum.
 Step number   1 out of a maximum of   20
 All quantities printed in internal units (Hartrees-Bohrs-Radians)
 Mixed Optimization -- RFO/linear search
 Second derivative matrix not updated -- first step.
 The second derivative matrix:
                          R1        R2        A1
           R1           0.55473
           R2           0.00000   0.55473
           A1           0.00000   0.00000   0.16000
     Eigenvalues ---    0.16000   0.55473   0.55473
 RFO step:  Lambda=-5.67853220D-04 EMin= 1.60000000D-01
 Linear search not attempted -- first point.
 Iteration  1 RMS(Cart)=  0.02987191 RMS(Int)=  0.00061886
 Iteration  2 RMS(Cart)=  0.00059342 RMS(Int)=  0.00000005
 Iteration  3 RMS(Cart)=  0.00000004 RMS(Int)=  0.00000000
 ClnCor:  largest displacement from symmetrization is 1.40D-15 for atom     3.
 Variable       Old X    -DE/DX   Delta X   Delta X   Delta X     New X
                                 (Linear)    (Quad)   (Total)
    R1        1.81414   0.00329   0.00000   0.00593   0.00593   1.82006
    R2        1.81414   0.00329   0.00000   0.00593   0.00593   1.82006
    A1        1.91114  -0.00921   0.00000  -0.05739  -0.05739   1.85375
         Item               Value     Threshold  Converged?
 Maximum Force            0.009215     0.000450     NO 
 RMS     Force            0.005960     0.000300     NO 
 Maximum Displacement     0.029938     0.001800     NO 
 RMS     Displacement     0.030171     0.001200     NO 
 Predicted change in Energy=-2.848849D-04
 GradGradGradGradGradGradGradGradGradGradGradGradGradGradGradGradGradGrad

                          Input orientation:                          
 ---------------------------------------------------------------------
 Center     Atomic      Atomic             Coordinates (Angstroms)
 Number     Number       Type             X           Y           Z
 ---------------------------------------------------------------------
      1          8           0       -0.198615   -0.577057    0.000000
      2          1           0        0.764125   -0.549423    0.000000
      3          1           0       -0.493935    0.339686    0.000000
 ---------------------------------------------------------------------
                    Distance matrix (angstroms):
                    1          2          3
     1  O    0.000000
     2  H    0.963136   0.000000
     3  H    0.963136   1.540530   0.000000
 Stoichiometry    H2O
 Framework group  C2V[C2(O),SGV(H2)]
 Deg. of freedom     2
 Full point group                 C2V     NOp   4
 Largest Abelian subgroup         C2V     NOp   4
 Largest concise Abelian subgroup C2      NOp   2
                         Standard orientation:                         
 ---------------------------------------------------------------------
 Center     Atomic      Atomic             Coordinates (Angstroms)
 Number     Number       Type             X           Y           Z
 ---------------------------------------------------------------------
      1          8           0        0.000000    0.000000    0.115641
      2          1           0        0.000000    0.770265   -0.462566
      3          1           0        0.000000   -0.770265   -0.462566
 ---------------------------------------------------------------------
 Rotational constants (GHZ):    844.4625500    422.5924666    281.6480005
 Standard basis: 6-31+G(d,p) (6D, 7F)
 There are    14 symmetry adapted basis functions of A1  symmetry.
 There are     2 symmetry adapted basis functions of A2  symmetry.
 There are     5 symmetry adapted basis functions of B1  symmetry.
 There are     8 symmetry adapted basis functions of B2  symmetry.
 Integral buffers will be    262144 words long.
 Raffenetti 2 integral format.
 Two-electron integral symmetry is turned on.
    29 basis functions,    46 primitive gaussians,    29 cartesian basis functions
     5 alpha electrons        5 beta electrons
       nuclear repulsion energy         9.1344027116 Hartrees.
 NAtoms=    3 NActive=    3 NUniq=    2 SFac= 1.69D+00 NAtFMM=   80 NAOKFM=F Big=F
 One-electron integrals computed using PRISM.
 NBasis=    29 RedAO= T  NBF=    14     2     5     8
 NBsUse=    29 1.00D-06 NBFU=    14     2     5     8
 Initial guess read from the read-write file.
 B after Tr=     0.000000    0.000000    0.000000
         Rot=    1.000000    0.000000    0.000000    0.000000 Ang=   0.00 deg.
 Initial guess orbital symmetries:
       Occupied  (A1) (A1) (B2) (A1) (B1)
       Virtual   (A1) (B2) (A1) (B1) (B2) (A1) (B2) (A1) (B2) (B1)
                 (A1) (A1) (A2) (A1) (B1) (B2) (A1) (B2) (B1) (A2)
                 (A1) (A1) (B2) (A1)
 Harris functional with IExCor=  402 diagonalized for initial guess.
 ExpMin= 8.45D-02 ExpMax= 5.48D+03 ExpMxC= 8.25D+02 IAcc=2 IRadAn=         0 AccDes= 0.00D+00
 HarFok:  IExCor=  402 AccDes= 0.00D+00 IRadAn=         0 IDoV= 1
 ScaDFX=  1.000000  1.000000  1.000000  1.000000
 FoFCou: FMM=F IPFlag=           0 FMFlag=      100000 FMFlg1=           0
         NFxFlg=           0 DoJE=T BraDBF=F KetDBF=T FulRan=T
         Omega=  0.000000  0.000000  1.000000  0.000000  0.000000 ICntrl=     500 IOpCl=  0
         NMat0=    1 NMatS0=    1 NMatT0=    0 NMatD0=    1 NMtDS0=    0 NMtDT0=    0
         I1Cent=           4 NGrid=           0.
 Petite list used in FoFCou.
 Requested convergence on RMS density matrix=1.00D-08 within 128 cycles.
 Requested convergence on MAX density matrix=1.00D-06.
 Requested convergence on             energy=1.00D-06.
 No special actions if energy rises.
 Keep R1 ints in memory in canonical form, NReq=995801.
 Integral accuracy reduced to 1.0D-05 until final iterations.
 Initial convergence to 1.0D-05 achieved.  Increase integral accuracy.
 SCF Done:  E(RB3LYP) =  -76.4340371786     A.U. after   11 cycles
             Convg  =    0.4940D-08             -V/T =  2.0092
 Calling FoFJK, ICntrl=      2127 FMM=F ISym2X=1 I1Cent= 0 IOpClX= 0 NMat=1 NMatS=1 NMatT=0.
 ***** Axes restored to original set *****
 -------------------------------------------------------------------
 Center     Atomic                   Forces (Hartrees/Bohr)
 Number     Number              X              Y              Z
 -------------------------------------------------------------------
      1        8          -0.001718376   -0.002431446    0.000000000
      2        1           0.001709158    0.000615024    0.000000000
      3        1           0.000009218    0.001816423    0.000000000
 -------------------------------------------------------------------
 Cartesian Forces:  Max     0.002431446 RMS     0.001310797

 GradGradGradGradGradGradGradGradGradGradGradGradGradGradGradGradGradGrad
 Berny optimization.
 Using GEDIIS/GDIIS optimizer.
 Internal  Forces:  Max     0.001726101 RMS     0.001529604
 Search for a local minimum.
 Step number   2 out of a maximum of   20
 All quantities printed in internal units (Hartrees-Bohrs-Radians)
 Mixed Optimization -- RFO/linear search
 Update second derivatives using D2CorX and points    1    2
 DE= -3.26D-04 DEPred=-2.85D-04 R= 1.14D+00
 SS=  1.41D+00  RLast= 5.80D-02 DXNew= 5.0454D-01 1.7400D-01
 Trust test= 1.14D+00 RLast= 5.80D-02 DXMaxT set to 3.00D-01
 The second derivative matrix:
                          R1        R2        A1
           R1           0.54065
           R2          -0.01408   0.54065
           A1           0.02711   0.02711   0.14823
 Use linear search instead of GDIIS.
     Eigenvalues ---    0.14438   0.53041   0.55473
 RFO step:  Lambda=-8.42217961D-06 EMin= 1.44379807D-01
 Quartic linear search produced a step of  0.15762.
 Iteration  1 RMS(Cart)=  0.00395940 RMS(Int)=  0.00001509
 Iteration  2 RMS(Cart)=  0.00001678 RMS(Int)=  0.00000000
 Iteration  3 RMS(Cart)=  0.00000000 RMS(Int)=  0.00000000
 ClnCor:  largest displacement from symmetrization is 1.14D-15 for atom     3.
 Variable       Old X    -DE/DX   Delta X   Delta X   Delta X     New X
                                 (Linear)    (Quad)   (Total)
    R1        1.82006   0.00173   0.00093   0.00275   0.00368   1.82375
    R2        1.82006   0.00173   0.00093   0.00275   0.00368   1.82375
    A1        1.85375  -0.00103  -0.00905   0.00105  -0.00800   1.84575
         Item               Value     Threshold  Converged?
 Maximum Force            0.001726     0.000450     NO 
 RMS     Force            0.001530     0.000300     NO 
 Maximum Displacement     0.004373     0.001800     NO 
 RMS     Displacement     0.003966     0.001200     NO 
 Predicted change in Energy=-1.066326D-05
 GradGradGradGradGradGradGradGradGradGradGradGradGradGradGradGradGradGrad

                          Input orientation:                          
 ---------------------------------------------------------------------
 Center     Atomic      Atomic             Coordinates (Angstroms)
 Number     Number       Type             X           Y           Z
 ---------------------------------------------------------------------
      1          8           0       -0.200250   -0.579370    0.000000
      2          1           0        0.764319   -0.547825    0.000000
      3          1           0       -0.492493    0.340402    0.000000
 ---------------------------------------------------------------------
                    Distance matrix (angstroms):
                    1          2          3
     1  O    0.000000
     2  H    0.965084   0.000000
     3  H    0.965084   1.539001   0.000000
 Stoichiometry    H2O
 Framework group  C2V[C2(O),SGV(H2)]
 Deg. of freedom     2
 Full point group                 C2V     NOp   4
 Largest Abelian subgroup         C2V     NOp   4
 Largest concise Abelian subgroup C2      NOp   2
                         Standard orientation:                         
 ---------------------------------------------------------------------
 Center     Atomic      Atomic             Coordinates (Angstroms)
 Number     Number       Type             X           Y           Z
 ---------------------------------------------------------------------
      1          8           0        0.000000    0.000000    0.116491
      2          1           0        0.000000    0.769500   -0.465966
      3          1           0        0.000000   -0.769500   -0.465966
 ---------------------------------------------------------------------
 Rotational constants (GHZ):    832.1833503    423.4325718    280.6379961
 Standard basis: 6-31+G(d,p) (6D, 7F)
 There are    14 symmetry adapted basis functions of A1  symmetry.
 There are     2 symmetry adapted basis functions of A2  symmetry.
 There are     5 symmetry adapted basis functions of B1  symmetry.
 There are     8 symmetry adapted basis functions of B2  symmetry.
 Integral buffers will be    262144 words long.
 Raffenetti 2 integral format.
 Two-electron integral symmetry is turned on.
    29 basis functions,    46 primitive gaussians,    29 cartesian basis functions
     5 alpha electrons        5 beta electrons
       nuclear repulsion energy         9.1170008855 Hartrees.
 NAtoms=    3 NActive=    3 NUniq=    2 SFac= 1.69D+00 NAtFMM=   80 NAOKFM=F Big=F
 One-electron integrals computed using PRISM.
 NBasis=    29 RedAO= T  NBF=    14     2     5     8
 NBsUse=    29 1.00D-06 NBFU=    14     2     5     8
 Initial guess read from the read-write file.
 B after Tr=     0.000000    0.000000    0.000000
         Rot=    1.000000    0.000000    0.000000    0.000000 Ang=   0.00 deg.
 Initial guess orbital symmetries:
       Occupied  (A1) (A1) (B2) (A1) (B1)
       Virtual   (A1) (B2) (A1) (B1) (B2) (A1) (B2) (A1) (B2) (B1)
                 (A1) (A1) (A2) (A1) (B1) (A1) (B2) (B2) (A2) (B1)
                 (A1) (A1) (B2) (A1)
 Requested convergence on RMS density matrix=1.00D-08 within 128 cycles.
 Requested convergence on MAX density matrix=1.00D-06.
 Requested convergence on             energy=1.00D-06.
 No special actions if energy rises.
 Keep R1 ints in memory in canonical form, NReq=995801.
 SCF Done:  E(RB3LYP) =  -76.4340476899     A.U. after    7 cycles
             Convg  =    0.6709D-09             -V/T =  2.0093
 Calling FoFJK, ICntrl=      2127 FMM=F ISym2X=1 I1Cent= 0 IOpClX= 0 NMat=1 NMatS=1 NMatT=0.
 ***** Axes restored to original set *****
 -------------------------------------------------------------------
 Center     Atomic                   Forces (Hartrees/Bohr)
 Number     Number              X              Y              Z
 -------------------------------------------------------------------
      1        8          -0.000005389   -0.000007625    0.000000000
      2        1          -0.000005486    0.000009594    0.000000000
      3        1           0.000010875   -0.000001969    0.000000000
 -------------------------------------------------------------------
 Cartesian Forces:  Max     0.000010875 RMS     0.000006069

 GradGradGradGradGradGradGradGradGradGradGradGradGradGradGradGradGradGrad
 Berny optimization.
 Using GEDIIS/GDIIS optimizer.
 Internal  Forces:  Max     0.000017815 RMS     0.000011118
 Search for a local minimum.
 Step number   3 out of a maximum of   20
 All quantities printed in internal units (Hartrees-Bohrs-Radians)
 Mixed Optimization -- En-DIIS/RFO-DIIS
 Update second derivatives using D2CorX and points    1    2    3
 DE= -1.05D-05 DEPred=-1.07D-05 R= 9.86D-01
 SS=  1.41D+00  RLast= 9.54D-03 DXNew= 5.0454D-01 2.8622D-02
 Trust test= 9.86D-01 RLast= 9.54D-03 DXMaxT set to 3.00D-01
 The second derivative matrix:
                          R1        R2        A1
           R1           0.54041
           R2          -0.01432   0.54041
           A1           0.02567   0.02567   0.15019
 Use linear search instead of GDIIS.
     Eigenvalues ---    0.14672   0.52957   0.55473
 RFO step:  Lambda= 0.00000000D+00 EMin= 1.46719983D-01
 Quartic linear search produced a step of  0.00503.
 Iteration  1 RMS(Cart)=  0.00006781 RMS(Int)=  0.00000000
 Iteration  2 RMS(Cart)=  0.00000000 RMS(Int)=  0.00000000
 ClnCor:  largest displacement from symmetrization is 2.64D-15 for atom     3.
 Variable       Old X    -DE/DX   Delta X   Delta X   Delta X     New X
                                 (Linear)    (Quad)   (Total)
    R1        1.82375  -0.00001   0.00002  -0.00002   0.00000   1.82374
    R2        1.82375  -0.00001   0.00002  -0.00002   0.00000   1.82374
    A1        1.84575  -0.00002  -0.00004  -0.00008  -0.00012   1.84563
         Item               Value     Threshold  Converged?
 Maximum Force            0.000018     0.000450     YES
 RMS     Force            0.000011     0.000300     YES
 Maximum Displacement     0.000071     0.001800     YES
 RMS     Displacement     0.000068     0.001200     YES
 Predicted change in Energy=-1.065308D-09
 Optimization completed.
    -- Stationary point found.
                           ----------------------------
                           !   Optimized Parameters   !
                           ! (Angstroms and Degrees)  !
 --------------------------                            --------------------------
 ! Name  Definition              Value          Derivative Info.                !
 --------------------------------------------------------------------------------
 ! R1    R(1,2)                  0.9651         -DE/DX =    0.0                 !
 ! R2    R(1,3)                  0.9651         -DE/DX =    0.0                 !
 ! A1    A(2,1,3)              105.7537         -DE/DX =    0.0                 !
 --------------------------------------------------------------------------------
 GradGradGradGradGradGradGradGradGradGradGradGradGradGradGradGradGradGrad

                          Input orientation:                          
 ---------------------------------------------------------------------
 Center     Atomic      Atomic             Coordinates (Angstroms)
 Number     Number       Type             X           Y           Z
 ---------------------------------------------------------------------
      1          8           0       -0.200250   -0.579370    0.000000
      2          1           0        0.764319   -0.547825    0.000000
      3          1           0       -0.492493    0.340402    0.000000
 ---------------------------------------------------------------------
                    Distance matrix (angstroms):
                    1          2          3
     1  O    0.000000
     2  H    0.965084   0.000000
     3  H    0.965084   1.539001   0.000000
 Stoichiometry    H2O
 Framework group  C2V[C2(O),SGV(H2)]
 Deg. of freedom     2
 Full point group                 C2V     NOp   4
 Largest Abelian subgroup         C2V     NOp   4
 Largest concise Abelian subgroup C2      NOp   2
                         Standard orientation:                         
 ---------------------------------------------------------------------
 Center     Atomic      Atomic             Coordinates (Angstroms)
 Number     Number       Type             X           Y           Z
 ---------------------------------------------------------------------
      1          8           0        0.000000    0.000000    0.116491
      2          1           0        0.000000    0.769500   -0.465966
      3          1           0        0.000000   -0.769500   -0.465966
 ---------------------------------------------------------------------
 Rotational constants (GHZ):    832.1833503    423.4325718    280.6379961

 **********************************************************************

            Population analysis using the SCF density.

 **********************************************************************

 Orbital symmetries:
       Occupied  (A1) (A1) (B2) (A1) (B1)
       Virtual   (A1) (B2) (B1) (A1) (B2) (A1) (B2) (A1) (B2) (B1)
                 (A1) (A1) (A2) (A1) (B1) (A1) (B2) (B2) (A2) (B1)
                 (A1) (A1) (B2) (A1)
 The electronic state is 1-A1.
 Alpha  occ. eigenvalues --  -19.16961  -1.02229  -0.54232  -0.39423  -0.32104
 Alpha virt. eigenvalues --    0.02515   0.11449   0.15506   0.15506   0.20614
 Alpha virt. eigenvalues --    0.24194   0.90043   0.98865   1.08842   1.11265
 Alpha virt. eigenvalues --    1.12669   1.23128   1.50293   1.53639   1.63049
 Alpha virt. eigenvalues --    2.23020   2.24143   2.50088   2.63278   2.64573
 Alpha virt. eigenvalues --    3.02414   3.31867   3.51001   3.92166
          Condensed to atoms (all electrons):
              1          2          3
     1  O    8.147387   0.282273   0.282273
     2  H    0.282273   0.385840  -0.024080
     3  H    0.282273  -0.024080   0.385840
 Mulliken atomic charges:
              1
     1  O   -0.711933
     2  H    0.355967
     3  H    0.355967
 Sum of Mulliken atomic charges =   0.00000
 Mulliken charges with hydrogens summed into heavy atoms:
              1
     1  O    0.000000
 Sum of Mulliken charges with hydrogens summed into heavy atoms =   0.00000
 Electronic spatial extent (au):  <R**2>=             20.1428
 Charge=              0.0000 electrons
 Dipole moment (field-independent basis, Debye):
    X=              0.0000    Y=              0.0000    Z=             -2.1950  Tot=              2.1950
 Quadrupole moment (field-independent basis, Debye-Ang):
   XX=             -7.8842   YY=             -4.3753   ZZ=             -6.5378
   XY=              0.0000   XZ=              0.0000   YZ=              0.0000
 Traceless Quadrupole moment (field-independent basis, Debye-Ang):
   XX=             -1.6184   YY=              1.8905   ZZ=             -0.2721
   XY=              0.0000   XZ=              0.0000   YZ=              0.0000
 Octapole moment (field-independent basis, Debye-Ang**2):
  XXX=              0.0000  YYY=              0.0000  ZZZ=             -1.6086  XYY=              0.0000
  XXY=              0.0000  XXZ=             -0.4780  XZZ=              0.0000  YZZ=              0.0000
  YYZ=             -1.4079  XYZ=              0.0000
 Hexadecapole moment (field-independent basis, Debye-Ang**3):
 XXXX=             -7.9584 YYYY=             -6.5055 ZZZZ=             -8.1558 XXXY=              0.0000
 XXXZ=              0.0000 YYYX=              0.0000 YYYZ=              0.0000 ZZZX=              0.0000
 ZZZY=              0.0000 XXYY=             -2.6994 XXZZ=             -2.7379 YYZZ=             -2.1280
 XXYZ=              0.0000 YYXZ=              0.0000 ZZXY=              0.0000
 N-N= 9.117000885546D+00 E-N=-1.985279004139D+02  KE= 7.573253063593D+01
 Symmetry A1   KE= 6.765761157538D+01
 Symmetry A2   KE= 7.798439434716D-36
 Symmetry B1   KE= 4.464302559412D+00
 Symmetry B2   KE= 3.610616501133D+00
 1|1|UNPC-DESKTOP-319GPER|FOpt|RB3LYP|6-31+G(d,p)|H2O1|SAGAD|08-Oct-202
 0|0||#opt freq B3LYP/6-31+g(d,p)||Calculation of water B3LYP||0,1|O,-0
 .2002498442,-0.5793704697,0.|H,0.7643187552,-0.5478250098,0.|H,-0.4924
 933793,0.3404020103,0.||Version=IA32W-G09RevA.02|State=1-A1|HF=-76.434
 0477|RMSD=6.709e-010|RMSF=6.069e-006|Dipole=0.4984033,0.7052243,0.|Qua
 drupole=0.8699664,0.3332747,-1.2032412,-0.7577854,0.,0.|PG=C02V [C2(O1
 ),SGV(H2)]||@


 COMMON SENSE IS NOT SO COMMON.   -- VOLTAIRE
 Job cpu time:  0 days  0 hours  0 minutes  4.0 seconds.
 File lengths (MBytes):  RWF=      5 Int=      0 D2E=      0 Chk=      1 Scr=      1
 Normal termination of Gaussian 09 at Thu Oct 08 03:10:20 2020.
 Link1:  Proceeding to internal job step number  2.
 ----------------------------------------------------------------------
 #N Geom=AllCheck Guess=TCheck SCRF=Check GenChk RB3LYP/6-31+G(d,p) Fre
 q
 ----------------------------------------------------------------------
 1/10=4,29=7,30=1,38=1,40=1/1,3;
 2/12=2,40=1/2;
 3/5=1,6=6,7=111,11=2,14=-4,16=1,25=1,30=1,70=2,71=2,74=-5,116=1/1,2,3;
 4/5=101/1;
 5/5=2,98=1/2;
 8/6=4,10=90,11=11/1;
 11/6=1,8=1,9=11,15=111,16=1/1,2,10;
 10/6=1/2;
 6/7=2,8=2,9=2,10=2,18=1,28=1/1;
 7/8=1,10=1,25=1/1,2,3,16;
 1/10=4,30=1/3;
 99//99;
 --------------------------
 Calculation of water B3LYP
 --------------------------
 Redundant internal coordinates taken from checkpoint file:
 C:\Users\sagad\Documents\rayGit\FQ\quimicaComputacional\class4Metilo\productos\waterB3LYP.chk
 Charge =  0 Multiplicity = 1
 O,0,-0.2002498442,-0.5793704697,0.
 H,0,0.7643187552,-0.5478250098,0.
 H,0,-0.4924933793,0.3404020103,0.
 Recover connectivity data from disk.

 GradGradGradGradGradGradGradGradGradGradGradGradGradGradGradGradGradGrad
 Berny optimization.
 Initialization pass.
                           ----------------------------
                           !    Initial Parameters    !
                           ! (Angstroms and Degrees)  !
 --------------------------                            --------------------------
 ! Name  Definition              Value          Derivative Info.                !
 --------------------------------------------------------------------------------
 ! R1    R(1,2)                  0.9651         calculate D2E/DX2 analytically  !
 ! R2    R(1,3)                  0.9651         calculate D2E/DX2 analytically  !
 ! A1    A(2,1,3)              105.7537         calculate D2E/DX2 analytically  !
 --------------------------------------------------------------------------------
 Trust Radius=3.00D-01 FncErr=1.00D-07 GrdErr=1.00D-07
 Number of steps in this run=   2 maximum allowed number of steps=   2.
 GradGradGradGradGradGradGradGradGradGradGradGradGradGradGradGradGradGrad

                          Input orientation:                          
 ---------------------------------------------------------------------
 Center     Atomic      Atomic             Coordinates (Angstroms)
 Number     Number       Type             X           Y           Z
 ---------------------------------------------------------------------
      1          8           0       -0.200250   -0.579370    0.000000
      2          1           0        0.764319   -0.547825    0.000000
      3          1           0       -0.492493    0.340402    0.000000
 ---------------------------------------------------------------------
                    Distance matrix (angstroms):
                    1          2          3
     1  O    0.000000
     2  H    0.965084   0.000000
     3  H    0.965084   1.539001   0.000000
 Stoichiometry    H2O
 Framework group  C2V[C2(O),SGV(H2)]
 Deg. of freedom     2
 Full point group                 C2V     NOp   4
 Largest Abelian subgroup         C2V     NOp   4
 Largest concise Abelian subgroup C2      NOp   2
                         Standard orientation:                         
 ---------------------------------------------------------------------
 Center     Atomic      Atomic             Coordinates (Angstroms)
 Number     Number       Type             X           Y           Z
 ---------------------------------------------------------------------
      1          8           0        0.000000    0.000000    0.116491
      2          1           0        0.000000    0.769500   -0.465966
      3          1           0        0.000000   -0.769500   -0.465966
 ---------------------------------------------------------------------
 Rotational constants (GHZ):    832.1833503    423.4325718    280.6379961
 Standard basis: 6-31+G(d,p) (6D, 7F)
 There are    14 symmetry adapted basis functions of A1  symmetry.
 There are     2 symmetry adapted basis functions of A2  symmetry.
 There are     5 symmetry adapted basis functions of B1  symmetry.
 There are     8 symmetry adapted basis functions of B2  symmetry.
 Integral buffers will be    262144 words long.
 Raffenetti 2 integral format.
 Two-electron integral symmetry is turned on.
    29 basis functions,    46 primitive gaussians,    29 cartesian basis functions
     5 alpha electrons        5 beta electrons
       nuclear repulsion energy         9.1170008855 Hartrees.
 NAtoms=    3 NActive=    3 NUniq=    2 SFac= 1.69D+00 NAtFMM=   80 NAOKFM=F Big=F
 One-electron integrals computed using PRISM.
 NBasis=    29 RedAO= T  NBF=    14     2     5     8
 NBsUse=    29 1.00D-06 NBFU=    14     2     5     8
 Initial guess read from the checkpoint file:  C:\Users\sagad\Documents\rayGit\FQ
 \quimicaComputacional\class4Metilo\productos\waterB3LYP.chk
 B after Tr=     0.000000    0.000000    0.000000
         Rot=    1.000000    0.000000    0.000000    0.000000 Ang=   0.00 deg.
 Initial guess orbital symmetries:
       Occupied  (A1) (A1) (B2) (A1) (B1)
       Virtual   (A1) (B2) (B1) (A1) (B2) (A1) (B2) (A1) (B2) (B1)
                 (A1) (A1) (A2) (A1) (B1) (A1) (B2) (B2) (A2) (B1)
                 (A1) (A1) (B2) (A1)
 Requested convergence on RMS density matrix=1.00D-08 within 128 cycles.
 Requested convergence on MAX density matrix=1.00D-06.
 Requested convergence on             energy=1.00D-06.
 No special actions if energy rises.
 Keep R1 ints in memory in canonical form, NReq=995801.
 SCF Done:  E(RB3LYP) =  -76.4340476899     A.U. after    1 cycles
             Convg  =    0.4076D-10             -V/T =  2.0093
 Range of M.O.s used for correlation:     1    29
 NBasis=    29 NAE=     5 NBE=     5 NFC=     0 NFV=     0
 NROrb=     29 NOA=     5 NOB=     5 NVA=    24 NVB=    24
 Symmetrizing basis deriv contribution to polar:
 IMax=3 JMax=2 DiffMx= 0.00D+00
 G2DrvN: will do     4 centers at a time, making    1 passes doing MaxLOS=2.
 Calling FoFCou, ICntrl=  3107 FMM=F I1Cent=   0 AccDes= 0.00D+00.
 FoFDir/FoFCou used for L=0 through L=2.
 End of G2Drv Frequency-dependent properties file   721 does not exist.
 End of G2Drv Frequency-dependent properties file   722 does not exist.
          IDoAtm=111
          Differentiating once with respect to electric field.
                with respect to dipole field.
          Differentiating once with respect to nuclear coordinates.
          Keep R1 ints in memory in canonical form, NReq=915598.
          There are     9 degrees of freedom in the 1st order CPHF.  IDoFFX=4.
      9 vectors produced by pass  0 Test12= 1.33D-15 1.11D-08 XBig12= 3.46D+00 1.35D+00.
 AX will form     9 AO Fock derivatives at one time.
      9 vectors produced by pass  1 Test12= 1.33D-15 1.11D-08 XBig12= 4.99D-01 2.93D-01.
      9 vectors produced by pass  2 Test12= 1.33D-15 1.11D-08 XBig12= 4.39D-03 2.44D-02.
      9 vectors produced by pass  3 Test12= 1.33D-15 1.11D-08 XBig12= 1.02D-05 1.26D-03.
      9 vectors produced by pass  4 Test12= 1.33D-15 1.11D-08 XBig12= 2.75D-08 7.94D-05.
      4 vectors produced by pass  5 Test12= 1.33D-15 1.11D-08 XBig12= 2.16D-11 1.91D-06.
      1 vectors produced by pass  6 Test12= 1.33D-15 1.11D-08 XBig12= 6.93D-15 3.37D-08.
 Inverted reduced A of dimension    50 with in-core refinement.
 Isotropic polarizability for W=    0.000000        7.03 Bohr**3.
 End of Minotr Frequency-dependent properties file   721 does not exist.
 End of Minotr Frequency-dependent properties file   722 does not exist.

 **********************************************************************

            Population analysis using the SCF density.

 **********************************************************************

 Orbital symmetries:
       Occupied  (A1) (A1) (B2) (A1) (B1)
       Virtual   (A1) (B2) (B1) (A1) (B2) (A1) (B2) (A1) (B2) (B1)
                 (A1) (A1) (A2) (A1) (B1) (A1) (B2) (B2) (A2) (B1)
                 (A1) (A1) (B2) (A1)
 The electronic state is 1-A1.
 Alpha  occ. eigenvalues --  -19.16961  -1.02229  -0.54232  -0.39423  -0.32104
 Alpha virt. eigenvalues --    0.02515   0.11449   0.15506   0.15506   0.20614
 Alpha virt. eigenvalues --    0.24194   0.90043   0.98865   1.08842   1.11265
 Alpha virt. eigenvalues --    1.12669   1.23128   1.50293   1.53639   1.63049
 Alpha virt. eigenvalues --    2.23020   2.24143   2.50088   2.63278   2.64573
 Alpha virt. eigenvalues --    3.02414   3.31867   3.51001   3.92166
          Condensed to atoms (all electrons):
              1          2          3
     1  O    8.147387   0.282273   0.282273
     2  H    0.282273   0.385840  -0.024080
     3  H    0.282273  -0.024080   0.385840
 Mulliken atomic charges:
              1
     1  O   -0.711933
     2  H    0.355967
     3  H    0.355967
 Sum of Mulliken atomic charges =   0.00000
 Mulliken charges with hydrogens summed into heavy atoms:
              1
     1  O    0.000000
 Sum of Mulliken charges with hydrogens summed into heavy atoms =   0.00000
 APT atomic charges:
              1
     1  O   -0.570089
     2  H    0.285044
     3  H    0.285044
 Sum of APT charges=   0.00000
 APT Atomic charges with hydrogens summed into heavy atoms:
              1
     1  O    0.000000
     2  H    0.000000
     3  H    0.000000
 Sum of APT charges=   0.00000
 Electronic spatial extent (au):  <R**2>=             20.1428
 Charge=              0.0000 electrons
 Dipole moment (field-independent basis, Debye):
    X=              0.0000    Y=              0.0000    Z=             -2.1950  Tot=              2.1950
 Quadrupole moment (field-independent basis, Debye-Ang):
   XX=             -7.8842   YY=             -4.3753   ZZ=             -6.5378
   XY=              0.0000   XZ=              0.0000   YZ=              0.0000
 Traceless Quadrupole moment (field-independent basis, Debye-Ang):
   XX=             -1.6184   YY=              1.8905   ZZ=             -0.2721
   XY=              0.0000   XZ=              0.0000   YZ=              0.0000
 Octapole moment (field-independent basis, Debye-Ang**2):
  XXX=              0.0000  YYY=              0.0000  ZZZ=             -1.6086  XYY=              0.0000
  XXY=              0.0000  XXZ=             -0.4780  XZZ=              0.0000  YZZ=              0.0000
  YYZ=             -1.4079  XYZ=              0.0000
 Hexadecapole moment (field-independent basis, Debye-Ang**3):
 XXXX=             -7.9584 YYYY=             -6.5055 ZZZZ=             -8.1558 XXXY=              0.0000
 XXXZ=              0.0000 YYYX=              0.0000 YYYZ=              0.0000 ZZZX=              0.0000
 ZZZY=              0.0000 XXYY=             -2.6994 XXZZ=             -2.7379 YYZZ=             -2.1280
 XXYZ=              0.0000 YYXZ=              0.0000 ZZXY=              0.0000
 N-N= 9.117000885546D+00 E-N=-1.985279003996D+02  KE= 7.573253062928D+01
 Symmetry A1   KE= 6.765761157036D+01
 Symmetry A2   KE= 7.798439434716D-36
 Symmetry B1   KE= 4.464302558117D+00
 Symmetry B2   KE= 3.610616500804D+00
  Exact polarizability:   6.677   0.000   7.842   0.000   0.000   6.578
 Approx polarizability:   6.823   0.000   9.673   0.000   0.000   7.659
 Calling FoFJK, ICntrl=    100127 FMM=F ISym2X=1 I1Cent= 0 IOpClX= 0 NMat=1 NMatS=1 NMatT=0.
 Full mass-weighted force constant matrix:
 Low frequencies ---  -57.1533  -41.3834  -18.4096   -0.0020   -0.0006    0.0011
 Low frequencies --- 1603.2258 3809.2344 3931.2925
 Diagonal vibrational polarizability:
        0.0000000       0.0997558       0.9669703
 Harmonic frequencies (cm**-1), IR intensities (KM/Mole), Raman scattering
 activities (A**4/AMU), depolarization ratios for plane and unpolarized
 incident light, reduced masses (AMU), force constants (mDyne/A),
 and normal coordinates:
                     1                      2                      3
                    A1                     A1                     B2
 Frequencies --  1603.2258              3809.2344              3931.2925
 Red. masses --     1.0838                 1.0441                 1.0831
 Frc consts  --     1.6413                 8.9265                 9.8626
 IR Inten    --    91.2215                 6.4100                57.2896
  Atom  AN      X      Y      Z        X      Y      Z        X      Y      Z
     1   8     0.00   0.00   0.07     0.00   0.00   0.05     0.00   0.07   0.00
     2   1     0.00  -0.42  -0.56     0.00   0.59  -0.39     0.00  -0.56   0.43
     3   1     0.00   0.42  -0.56     0.00  -0.59  -0.39     0.00  -0.56  -0.43

 -------------------
 - Thermochemistry -
 -------------------
 Temperature   298.150 Kelvin.  Pressure   1.00000 Atm.
 Atom     1 has atomic number  8 and mass  15.99491
 Atom     2 has atomic number  1 and mass   1.00783
 Atom     3 has atomic number  1 and mass   1.00783
 Molecular mass:    18.01056 amu.
 Principal axes and moments of inertia in atomic units:
                           1         2         3
     Eigenvalues --     2.16868   4.26217   6.43085
           X            0.00000   0.00000   1.00000
           Y            1.00000   0.00000   0.00000
           Z            0.00000   1.00000   0.00000
 This molecule is an asymmetric top.
 Rotational symmetry number  2.
 Rotational temperatures (Kelvin)     39.93845    20.32153    13.46848
 Rotational constants (GHZ):         832.18335   423.43257   280.63800
 Zero-point vibrational energy      55888.1 (Joules/Mol)
                                   13.35757 (Kcal/Mol)
 Vibrational temperatures:   2306.68  5480.63  5656.25
          (Kelvin)
 
 Zero-point correction=                           0.021287 (Hartree/Particle)
 Thermal correction to Energy=                    0.024122
 Thermal correction to Enthalpy=                  0.025067
 Thermal correction to Gibbs Free Energy=         0.003638
 Sum of electronic and zero-point Energies=            -76.412761
 Sum of electronic and thermal Energies=               -76.409925
 Sum of electronic and thermal Enthalpies=             -76.408981
 Sum of electronic and thermal Free Energies=          -76.430410
 
                     E (Thermal)             CV                S
                      KCal/Mol        Cal/Mol-Kelvin    Cal/Mol-Kelvin
 Total                   15.137              6.014             45.100
 Electronic               0.000              0.000              0.000
 Translational            0.889              2.981             34.608
 Rotational               0.889              2.981             10.484
 Vibrational             13.360              0.052              0.008
                       Q            Log10(Q)             Ln(Q)
 Total Bot       0.212153D-01         -1.673352         -3.853035
 Total V=0       0.131160D+09          8.117800         18.691925
 Vib (Bot)       0.161822D-09         -9.790962        -22.544523
 Vib (V=0)       0.100044D+01          0.000190          0.000437
 Electronic      0.100000D+01          0.000000          0.000000
 Translational   0.300432D+07          6.477746         14.915562
 Rotational      0.436379D+02          1.639864          3.775926
 ***** Axes restored to original set *****
 -------------------------------------------------------------------
 Center     Atomic                   Forces (Hartrees/Bohr)
 Number     Number              X              Y              Z
 -------------------------------------------------------------------
      1        8          -0.000005389   -0.000007625    0.000000000
      2        1          -0.000005486    0.000009594    0.000000000
      3        1           0.000010875   -0.000001969    0.000000000
 -------------------------------------------------------------------
 Cartesian Forces:  Max     0.000010875 RMS     0.000006069

 GradGradGradGradGradGradGradGradGradGradGradGradGradGradGradGradGradGrad
 Berny optimization.
 Internal  Forces:  Max     0.000017815 RMS     0.000011118
 Search for a local minimum.
 Step number   1 out of a maximum of    2
 All quantities printed in internal units (Hartrees-Bohrs-Radians)
 Second derivative matrix not updated -- analytic derivatives used.
 The second derivative matrix:
                          R1        R2        A1
           R1           0.53827
           R2          -0.00742   0.53827
           A1           0.02950   0.02950   0.15421
     Eigenvalues ---    0.14965   0.53541   0.54569
 Angle between quadratic step and forces=  19.91 degrees.
 Linear search not attempted -- first point.
 Iteration  1 RMS(Cart)=  0.00006576 RMS(Int)=  0.00000000
 Iteration  2 RMS(Cart)=  0.00000000 RMS(Int)=  0.00000000
 ClnCor:  largest displacement from symmetrization is 4.04D-15 for atom     3.
 Variable       Old X    -DE/DX   Delta X   Delta X   Delta X     New X
                                 (Linear)    (Quad)   (Total)
    R1        1.82375  -0.00001   0.00000   0.00000   0.00000   1.82374
    R2        1.82375  -0.00001   0.00000   0.00000   0.00000   1.82374
    A1        1.84575  -0.00002   0.00000  -0.00011  -0.00011   1.84564
         Item               Value     Threshold  Converged?
 Maximum Force            0.000018     0.000450     YES
 RMS     Force            0.000011     0.000300     YES
 Maximum Displacement     0.000069     0.001800     YES
 RMS     Displacement     0.000066     0.001200     YES
 Predicted change in Energy=-1.035035D-09
 Optimization completed.
    -- Stationary point found.
                           ----------------------------
                           !   Optimized Parameters   !
                           ! (Angstroms and Degrees)  !
 --------------------------                            --------------------------
 ! Name  Definition              Value          Derivative Info.                !
 --------------------------------------------------------------------------------
 ! R1    R(1,2)                  0.9651         -DE/DX =    0.0                 !
 ! R2    R(1,3)                  0.9651         -DE/DX =    0.0                 !
 ! A1    A(2,1,3)              105.7537         -DE/DX =    0.0                 !
 --------------------------------------------------------------------------------
 GradGradGradGradGradGradGradGradGradGradGradGradGradGradGradGradGradGrad

 1|1|UNPC-DESKTOP-319GPER|Freq|RB3LYP|6-31+G(d,p)|H2O1|SAGAD|08-Oct-202
 0|0||#N Geom=AllCheck Guess=TCheck SCRF=Check GenChk RB3LYP/6-31+G(d,p
 ) Freq||Calculation of water B3LYP||0,1|O,-0.2002498442,-0.5793704697,
 0.|H,0.7643187552,-0.5478250098,0.|H,-0.4924933793,0.3404020103,0.||Ve
 rsion=IA32W-G09RevA.02|State=1-A1|HF=-76.4340477|RMSD=4.076e-011|RMSF=
 6.069e-006|ZeroPoint=0.0212866|Thermal=0.0241224|Dipole=0.4984033,0.70
 52243,0.|DipoleDeriv=-0.484803,0.0620065,0.,0.0620065,-0.4408877,0.,0.
 ,0.,-0.7845762,0.1599872,-0.0507523,0.,-0.069623,0.3028581,0.,0.,0.,0.
 3922881,0.3248157,-0.0112542,0.,0.0076165,0.1380296,0.,0.,0.,0.3922881
 |Polar=7.420936,-0.5956829,6.9990513,0.,0.,6.6765841|PG=C02V [C2(O1),S
 GV(H2)]|NImag=0||0.61004355,-0.11849898,0.52611818,0.,0.,-0.00011601,-
 0.52403655,0.01198926,0.,0.53881725,-0.04860467,-0.04404431,0.,-0.0000
 3895,0.04583123,0.,0.,0.00005801,0.,0.,-0.00009130,-0.08600700,0.10650
 972,0.,-0.01478069,0.04864362,0.,0.10078769,0.16710365,-0.48207387,0.,
 -0.01195032,-0.00178692,0.,-0.15515334,0.48386078,0.,0.,0.00005801,0.,
 0.,0.00003329,0.,0.,-0.00009130||0.00000539,0.00000763,0.,0.00000549,-
 0.00000959,0.,-0.00001088,0.00000197,0.|||@


 COMMON SENSE IS NOT SO COMMON.   -- VOLTAIRE
 Job cpu time:  0 days  0 hours  0 minutes  3.0 seconds.
 File lengths (MBytes):  RWF=      5 Int=      0 D2E=      0 Chk=      1 Scr=      1
 Normal termination of Gaussian 09 at Thu Oct 08 03:10:23 2020.
