 Entering Link 1 = C:\G09W\l1.exe PID=      9244.
  
 Copyright (c) 1988,1990,1992,1993,1995,1998,2003,2009, Gaussian, Inc.
                  All Rights Reserved.
  
 This is part of the Gaussian(R) 09 program.  It is based on
 the Gaussian(R) 03 system (copyright 2003, Gaussian, Inc.),
 the Gaussian(R) 98 system (copyright 1998, Gaussian, Inc.),
 the Gaussian(R) 94 system (copyright 1995, Gaussian, Inc.),
 the Gaussian 92(TM) system (copyright 1992, Gaussian, Inc.),
 the Gaussian 90(TM) system (copyright 1990, Gaussian, Inc.),
 the Gaussian 88(TM) system (copyright 1988, Gaussian, Inc.),
 the Gaussian 86(TM) system (copyright 1986, Carnegie Mellon
 University), and the Gaussian 82(TM) system (copyright 1983,
 Carnegie Mellon University). Gaussian is a federally registered
 trademark of Gaussian, Inc.
  
 This software contains proprietary and confidential information,
 including trade secrets, belonging to Gaussian, Inc.
  
 This software is provided under written license and may be
 used, copied, transmitted, or stored only in accord with that
 written license.
  
 The following legend is applicable only to US Government
 contracts under FAR:
  
                    RESTRICTED RIGHTS LEGEND
  
 Use, reproduction and disclosure by the US Government is
 subject to restrictions as set forth in subparagraphs (a)
 and (c) of the Commercial Computer Software - Restricted
 Rights clause in FAR 52.227-19.
  
 Gaussian, Inc.
 340 Quinnipiac St., Bldg. 40, Wallingford CT 06492
  
  
 ---------------------------------------------------------------
 Warning -- This program may not be used in any manner that
 competes with the business of Gaussian, Inc. or will provide
 assistance to any competitor of Gaussian, Inc.  The licensee
 of this program is prohibited from giving any competitor of
 Gaussian, Inc. access to this program.  By using this program,
 the user acknowledges that Gaussian, Inc. is engaged in the
 business of creating and licensing software in the field of
 computational chemistry and represents and warrants to the
 licensee that it is not a competitor of Gaussian, Inc. and that
 it will not use this program in any manner prohibited above.
 ---------------------------------------------------------------
  

 Cite this work as:
 Gaussian 09, Revision A.02,
 M. J. Frisch, G. W. Trucks, H. B. Schlegel, G. E. Scuseria, 
 M. A. Robb, J. R. Cheeseman, G. Scalmani, V. Barone, B. Mennucci, 
 G. A. Petersson, H. Nakatsuji, M. Caricato, X. Li, H. P. Hratchian, 
 A. F. Izmaylov, J. Bloino, G. Zheng, J. L. Sonnenberg, M. Hada, 
 M. Ehara, K. Toyota, R. Fukuda, J. Hasegawa, M. Ishida, T. Nakajima, 
 Y. Honda, O. Kitao, H. Nakai, T. Vreven, J. A. Montgomery, Jr., 
 J. E. Peralta, F. Ogliaro, M. Bearpark, J. J. Heyd, E. Brothers, 
 K. N. Kudin, V. N. Staroverov, R. Kobayashi, J. Normand, 
 K. Raghavachari, A. Rendell, J. C. Burant, S. S. Iyengar, J. Tomasi, 
 M. Cossi, N. Rega, J. M. Millam, M. Klene, J. E. Knox, J. B. Cross, 
 V. Bakken, C. Adamo, J. Jaramillo, R. Gomperts, R. E. Stratmann, 
 O. Yazyev, A. J. Austin, R. Cammi, C. Pomelli, J. W. Ochterski, 
 R. L. Martin, K. Morokuma, V. G. Zakrzewski, G. A. Voth, 
 P. Salvador, J. J. Dannenberg, S. Dapprich, A. D. Daniels, 
 O. Farkas, J. B. Foresman, J. V. Ortiz, J. Cioslowski, 
 and D. J. Fox, Gaussian, Inc., Wallingford CT, 2009.
 
 ******************************************
 Gaussian 09:  IA32W-G09RevA.02 11-Jun-2009
                09-Feb-2021 
 ******************************************
 %chk=D:\Documents\rayGit\FQ\quimicaComputacional\proyecto\decompositionHydrogenP
 eroxide\descompositionByRadicals\gasPhase\step4\ts\Q2ST\ts\martes\top\backup\r\r
 3\ts.chk
 %mem=1500MB
 %nprocshared=4
 Will use up to    4 processors via shared memory.
 ----------------------------------------------------------------------
 # opt=(calcfc,ts,noeigen,maxcycles=100) freq=noraman 6-31+g(d,p) m062x
 ----------------------------------------------------------------------
 1/5=1,6=100,10=4,11=1,14=-1,18=20,26=3,38=1/1,3;
 2/9=110,12=2,17=6,18=5,40=1/2;
 3/5=1,6=6,7=111,11=2,16=1,25=1,30=1,71=2,74=-55/1,2,3;
 4//1;
 5/5=2,38=5/2;
 8/6=4,10=90,11=11/1;
 11/6=1,8=1,9=11,15=111,16=1/1,2,10;
 10/6=1,7=6,13=1/2;
 6/7=2,8=2,9=2,10=2,28=1/1;
 7/10=1,18=20,25=1/1,2,3,16;
 1/5=1,6=100,10=4,11=1,14=-1,18=20/3(2);
 2/9=110/2;
 99//99;
 2/9=110/2;
 3/5=1,6=6,7=111,11=2,16=1,25=1,30=1,71=1,74=-55/1,2,3;
 4/5=5,16=3/1;
 5/5=2,38=5/2;
 7//1,2,3,16;
 1/5=1,6=100,11=1,14=-1,18=20/3(-5);
 2/9=110/2;
 6/7=2,8=2,9=2,10=2,19=2,28=1/1;
 99/9=1/99;
 ------------
 ts OOH vs OH
 ------------
 Symbolic Z-matrix:
 Charge =  0 Multiplicity = 1
 O                    -2.42784   1.18873   0. 
 O                    -1.16932   0.7906    0. 
 H                     0.01113   0.85092   0. 
 O                     0.60383  -0.13458   0. 
 H                     0.81352  -1.0412    0. 
 

 GradGradGradGradGradGradGradGradGradGradGradGradGradGradGradGradGradGrad
 Berny optimization.
 Initialization pass.
                           ----------------------------
                           !    Initial Parameters    !
                           ! (Angstroms and Degrees)  !
 --------------------------                            --------------------------
 ! Name  Definition              Value          Derivative Info.                !
 --------------------------------------------------------------------------------
 ! R1    R(1,2)                  1.32           calculate D2E/DX2 analytically  !
 ! R2    R(2,3)                  1.182          calculate D2E/DX2 analytically  !
 ! R3    R(3,4)                  1.15           calculate D2E/DX2 analytically  !
 ! R4    R(4,5)                  0.9306         calculate D2E/DX2 analytically  !
 ! A1    A(1,2,3)              159.5204         calculate D2E/DX2 analytically  !
 ! A2    A(2,3,4)              118.0982         calculate D2E/DX2 analytically  !
 ! A3    A(3,4,5)              162.0            calculate D2E/DX2 analytically  !
 ! D1    D(1,2,3,4)            180.0            calculate D2E/DX2 analytically  !
 ! D2    D(2,3,4,5)              0.0            calculate D2E/DX2 analytically  !
 --------------------------------------------------------------------------------
 Trust Radius=3.00D-01 FncErr=1.00D-07 GrdErr=1.00D-06
 Number of steps in this run= 100 maximum allowed number of steps= 100.
 Search for a saddle point of order  1.
 GradGradGradGradGradGradGradGradGradGradGradGradGradGradGradGradGradGrad

                          Input orientation:                          
 ---------------------------------------------------------------------
 Center     Atomic      Atomic             Coordinates (Angstroms)
 Number     Number       Type             X           Y           Z
 ---------------------------------------------------------------------
      1          8           0       -2.427845    1.188726    0.000000
      2          8           0       -1.169316    0.790598    0.000000
      3          1           0        0.011132    0.850916    0.000000
      4          8           0        0.603827   -0.134585    0.000000
      5          1           0        0.813524   -1.041202    0.000000
 ---------------------------------------------------------------------
                    Distance matrix (angstroms):
                    1          2          3          4          5
     1  O    0.000000
     2  O    1.320000   0.000000
     3  H    2.462260   1.181988   0.000000
     4  O    3.307897   2.000000   1.150000   0.000000
     5  H    3.934343   2.699472   2.055224   0.930553   0.000000
 Stoichiometry    H2O3
 Framework group  CS[SG(H2O3)]
 Deg. of freedom     7
 Full point group                 CS      NOp   2
 Largest Abelian subgroup         CS      NOp   2
 Largest concise Abelian subgroup C1      NOp   1
                         Standard orientation:                         
 ---------------------------------------------------------------------
 Center     Atomic      Atomic             Coordinates (Angstroms)
 Number     Number       Type             X           Y           Z
 ---------------------------------------------------------------------
      1          8           0       -0.491972    1.587446    0.000000
      2          8           0        0.000000    0.362553    0.000000
      3          1           0        0.796442   -0.510818    0.000000
      4          8           0        0.411815   -1.594590    0.000000
      5          1           0       -0.155180   -2.332455    0.000000
 ---------------------------------------------------------------------
 Rotational constants (GHZ):    424.7838583      5.3356980      5.2695079
 Standard basis: 6-31+G(d,p) (6D, 7F)
 There are    50 symmetry adapted basis functions of A'  symmetry.
 There are    17 symmetry adapted basis functions of A"  symmetry.
 Integral buffers will be    262144 words long.
 Raffenetti 2 integral format.
 Two-electron integral symmetry is turned on.
    67 basis functions,   110 primitive gaussians,    67 cartesian basis functions
    13 alpha electrons       13 beta electrons
       nuclear repulsion energy        69.2623318700 Hartrees.
 NAtoms=    5 NActive=    5 NUniq=    5 SFac= 7.50D-01 NAtFMM=   80 NAOKFM=F Big=F
 One-electron integrals computed using PRISM.
 NBasis=    67 RedAO= T  NBF=    50    17
 NBsUse=    67 1.00D-06 NBFU=    50    17
 Harris functional with IExCor= 1009 diagonalized for initial guess.
 ExpMin= 8.45D-02 ExpMax= 5.48D+03 ExpMxC= 8.25D+02 IAcc=2 IRadAn=         0 AccDes= 0.00D+00
 HarFok:  IExCor= 1009 AccDes= 0.00D+00 IRadAn=         0 IDoV= 1
 ScaDFX=  1.000000  1.000000  1.000000  1.000000
 FoFCou: FMM=F IPFlag=           0 FMFlag=      100000 FMFlg1=           0
         NFxFlg=           0 DoJE=T BraDBF=F KetDBF=T FulRan=T
         Omega=  0.000000  0.000000  1.000000  0.000000  0.000000 ICntrl=     500 IOpCl=  0
         NMat0=    1 NMatS0=    1 NMatT0=    0 NMatD0=    1 NMtDS0=    0 NMtDT0=    0
         I1Cent=           4 NGrid=           0.
 Petite list used in FoFCou.
 Initial guess orbital symmetries:
       Occupied  (A') (A') (A') (A') (A') (A') (A') (A') (A') (A")
                 (A") (A') (A')
       Virtual   (A") (A') (A') (A') (A') (A") (A') (A') (A') (A")
                 (A') (A") (A') (A') (A') (A') (A') (A') (A") (A')
                 (A') (A") (A') (A') (A") (A') (A') (A') (A") (A')
                 (A") (A") (A') (A') (A') (A") (A') (A") (A') (A')
                 (A') (A") (A') (A") (A') (A') (A") (A') (A') (A')
                 (A') (A') (A') (A')
 The electronic state of the initial guess is 1-A'.
 Requested convergence on RMS density matrix=1.00D-08 within 128 cycles.
 Requested convergence on MAX density matrix=1.00D-06.
 Requested convergence on             energy=1.00D-06.
 No special actions if energy rises.
 Keep R1 ints in memory in canonical form, NReq=3551239.
 Integral accuracy reduced to 1.0D-05 until final iterations.
 Initial convergence to 1.0D-05 achieved.  Increase integral accuracy.
 SCF Done:  E(RM062X) =  -226.463489541     A.U. after   19 cycles
             Convg  =    0.8861D-08             -V/T =  2.0086
 Range of M.O.s used for correlation:     1    67
 NBasis=    67 NAE=    13 NBE=    13 NFC=     0 NFV=     0
 NROrb=     67 NOA=    13 NOB=    13 NVA=    54 NVB=    54

 **** Warning!!: The largest alpha MO coefficient is  0.33632881D+02

 Symmetrizing basis deriv contribution to polar:
 IMax=3 JMax=2 DiffMx= 0.00D+00
 G2DrvN: will do     6 centers at a time, making    1 passes doing MaxLOS=2.
 Calling FoFCou, ICntrl=  3107 FMM=F I1Cent=   0 AccDes= 0.00D+00.
 FoFDir/FoFCou used for L=0 through L=2.
 End of G2Drv Frequency-dependent properties file   721 does not exist.
 End of G2Drv Frequency-dependent properties file   722 does not exist.
          IDoAtm=11111
          Differentiating once with respect to nuclear coordinates.
          Keep R1 ints in memory in canonical form, NReq=3416970.
          There are    18 degrees of freedom in the 1st order CPHF.  IDoFFX=5.
     12 vectors produced by pass  0 Test12= 3.90D-11 5.56D-07 XBig12= 1.54D-01 2.90D-01.
 AX will form    12 AO Fock derivatives at one time.
     12 vectors produced by pass  1 Test12= 3.90D-11 5.56D-07 XBig12= 1.78D-02 9.43D-02.
     12 vectors produced by pass  2 Test12= 3.90D-11 5.56D-07 XBig12= 1.45D-03 1.38D-02.
     12 vectors produced by pass  3 Test12= 3.90D-11 5.56D-07 XBig12= 3.17D-05 1.14D-03.
     12 vectors produced by pass  4 Test12= 3.90D-11 5.56D-07 XBig12= 4.99D-07 1.57D-04.
      9 vectors produced by pass  5 Test12= 3.90D-11 5.56D-07 XBig12= 1.23D-09 8.29D-06.
      1 vectors produced by pass  6 Test12= 3.90D-11 5.56D-07 XBig12= 4.17D-12 6.76D-07.
 Inverted reduced A of dimension    70 with in-core refinement.
 End of Minotr Frequency-dependent properties file   721 does not exist.
 End of Minotr Frequency-dependent properties file   722 does not exist.

 **********************************************************************

            Population analysis using the SCF density.

 **********************************************************************

 Orbital symmetries:
       Occupied  (A') (A') (A') (A') (A') (A') (A') (A') (A") (A')
                 (A') (A") (A')
       Virtual   (A") (A') (A') (A') (A") (A') (A') (A') (A") (A')
                 (A') (A") (A') (A') (A') (A') (A') (A") (A') (A')
                 (A') (A") (A') (A') (A') (A") (A') (A") (A') (A')
                 (A') (A") (A") (A') (A') (A') (A") (A") (A') (A')
                 (A") (A') (A') (A") (A') (A') (A") (A') (A') (A')
                 (A') (A') (A') (A')
 The electronic state is 1-A'.
 Alpha  occ. eigenvalues --  -19.84876 -19.83963 -19.62029  -1.36946  -1.10490
 Alpha  occ. eigenvalues --   -0.99663  -0.71637  -0.61191  -0.58452  -0.55000
 Alpha  occ. eigenvalues --   -0.41517  -0.36582  -0.35830
 Alpha virt. eigenvalues --   -0.18580   0.05704   0.08394   0.11627   0.14176
 Alpha virt. eigenvalues --    0.15578   0.16125   0.18844   0.20712   0.22403
 Alpha virt. eigenvalues --    0.25168   0.26347   0.30089   0.37737   0.42281
 Alpha virt. eigenvalues --    0.47972   0.86943   1.07882   1.08351   1.12257
 Alpha virt. eigenvalues --    1.12803   1.13101   1.16677   1.23240   1.26148
 Alpha virt. eigenvalues --    1.26271   1.31684   1.40010   1.40074   1.55223
 Alpha virt. eigenvalues --    1.59304   1.59594   1.61543   1.63082   1.76708
 Alpha virt. eigenvalues --    1.81407   1.87935   1.89428   1.92540   2.04907
 Alpha virt. eigenvalues --    2.23577   2.24114   2.42632   2.56011   2.59862
 Alpha virt. eigenvalues --    2.68738   2.94491   2.94982   3.31114   3.47747
 Alpha virt. eigenvalues --    3.72727   3.79778   4.18307   4.68951
          Condensed to atoms (all electrons):
              1          2          3          4          5
     1  O    7.994770   0.209127  -0.013321  -0.064099  -0.001245
     2  O    0.209127   7.791332   0.065954  -0.094201   0.004038
     3  H   -0.013321   0.065954   0.239262   0.206456  -0.011544
     4  O   -0.064099  -0.094201   0.206456   8.453096   0.313219
     5  H   -0.001245   0.004038  -0.011544   0.313219   0.292772
 Mulliken atomic charges:
              1
     1  O   -0.125232
     2  O    0.023751
     3  H    0.513194
     4  O   -0.814472
     5  H    0.402759
 Sum of Mulliken atomic charges =   0.00000
 Mulliken charges with hydrogens summed into heavy atoms:
              1
     1  O   -0.125232
     2  O    0.023751
     4  O    0.101481
 Sum of Mulliken charges with hydrogens summed into heavy atoms =   0.00000
 APT atomic charges:
              1
     1  O    0.253618
     2  O   -0.366258
     3  H    0.411834
     4  O   -1.096187
     5  H    0.796993
 Sum of APT charges=   0.00000
 APT Atomic charges with hydrogens summed into heavy atoms:
              1
     1  O    0.253618
     2  O   -0.366258
     3  H    0.000000
     4  O    0.112640
     5  H    0.000000
 Sum of APT charges=   0.00000
 Electronic spatial extent (au):  <R**2>=            221.2432
 Charge=              0.0000 electrons
 Dipole moment (field-independent basis, Debye):
    X=             -0.4990    Y=              0.7523    Z=              0.0000  Tot=              0.9027
 Quadrupole moment (field-independent basis, Debye-Ang):
   XX=            -17.7769   YY=            -16.4334   ZZ=            -17.4170
   XY=              3.1977   XZ=              0.0000   YZ=              0.0000
 Traceless Quadrupole moment (field-independent basis, Debye-Ang):
   XX=             -0.5678   YY=              0.7757   ZZ=             -0.2079
   XY=              3.1977   XZ=              0.0000   YZ=              0.0000
 Octapole moment (field-independent basis, Debye-Ang**2):
  XXX=             -0.5339  YYY=             -7.3298  ZZZ=              0.0000  XYY=             -9.1431
  XXY=              2.3311  XXZ=              0.0000  XZZ=             -0.9351  YZZ=              3.0601
  YYZ=              0.0000  XYZ=              0.0000
 Hexadecapole moment (field-independent basis, Debye-Ang**3):
 XXXX=            -31.3251 YYYY=           -170.1809 ZZZZ=            -14.8226 XXXY=             27.6811
 XXXZ=              0.0000 YYYX=             39.9683 YYYZ=              0.0000 ZZZX=              0.0000
 ZZZY=              0.0000 XXYY=            -43.8241 XXZZ=             -7.6448 YYZZ=            -37.4297
 XXYZ=              0.0000 YYXZ=              0.0000 ZZXY=              8.5970
 N-N= 6.926233186998D+01 E-N=-6.727824150185D+02  KE= 2.245371777345D+02
 Symmetry A'   KE= 2.159176627352D+02
 Symmetry A"   KE= 8.619514999236D+00
  Exact polarizability:   0.000   0.000   0.000   0.000   0.000   0.000
 Approx polarizability:  18.502 -19.990  86.422   0.000   0.000  12.821
 Calling FoFJK, ICntrl=    100147 FMM=F ISym2X=1 I1Cent= 0 IOpClX= 0 NMat=1 NMatS=1 NMatT=0.
 ***** Axes restored to original set *****
 -------------------------------------------------------------------
 Center     Atomic                   Forces (Hartrees/Bohr)
 Number     Number              X              Y              Z
 -------------------------------------------------------------------
      1        8           0.117189572   -0.013467878    0.000000000
      2        8          -0.205659608    0.023444210    0.000000000
      3        1           0.063383160   -0.062655131    0.000000000
      4        8           0.028806247    0.079655682    0.000000000
      5        1          -0.003719372   -0.026976883    0.000000000
 -------------------------------------------------------------------
 Cartesian Forces:  Max     0.205659608 RMS     0.069579589

 GradGradGradGradGradGradGradGradGradGradGradGradGradGradGradGradGradGrad
 Berny optimization.
 Internal  Forces:  Max     0.115796176 RMS     0.061557139
 Search for a saddle point.
 Step number   1 out of a maximum of  100
 All quantities printed in internal units (Hartrees-Bohrs-Radians)
 Swaping is turned off.
 Second derivative matrix not updated -- analytic derivatives used.
 The second derivative matrix:
                          R1        R2        R3        R4        A1
           R1           0.33886
           R2           0.04964   0.19129
           R3           0.00838   0.18519   0.18753
           R4          -0.00863   0.01040  -0.01573   0.69255
           A1          -0.00142  -0.06725   0.02662   0.00081   0.01920
           A2           0.05140   0.12641   0.11357   0.00686  -0.04808
           A3           0.01623   0.02951  -0.00425   0.00945   0.01064
           D1           0.00000   0.00000   0.00000   0.00000   0.00000
           D2           0.00000   0.00000   0.00000   0.00000   0.00000
                          A2        A3        D1        D2
           A2           0.25021
           A3           0.00878  -0.09024
           D1           0.00000   0.00000  -0.02761
           D2           0.00000   0.00000   0.00621  -0.00293
     Eigenvalues ---   -0.10488  -0.04626  -0.02909  -0.00146   0.06733
     Eigenvalues ---    0.13679   0.32051   0.52246   0.69344
 Eigenvectors required to have negative eigenvalues:
                          A3        A1        R2        R3        A2
   1                    0.88099  -0.29391  -0.28570   0.23381  -0.03439
                          R1        R4        D1        D2
   1                   -0.00167  -0.00153   0.00000   0.00000
 RFO step:  Lambda0=1.008811921D-02 Lambda=-1.12648149D-01.
 Linear search not attempted -- option 19 set.
 Maximum step size (   0.300) exceeded in Quadratic search.
    -- Step size scaled by   0.258
 Iteration  1 RMS(Cart)=  0.11223887 RMS(Int)=  0.00960306
 Iteration  2 RMS(Cart)=  0.00842052 RMS(Int)=  0.00008609
 Iteration  3 RMS(Cart)=  0.00004922 RMS(Int)=  0.00000000
 Iteration  4 RMS(Cart)=  0.00000001 RMS(Int)=  0.00000000
 ClnCor:  largest displacement from symmetrization is 4.95D-02 for atom     2.
 Variable       Old X    -DE/DX   Delta X   Delta X   Delta X     New X
                                 (Linear)    (Quad)   (Total)
    R1        2.49444  -0.11580   0.00000  -0.09193  -0.09314   2.40130
    R2        2.23363   0.08783   0.00000   0.12056   0.11974   2.35337
    R3        2.17319  -0.03220   0.00000  -0.12501  -0.12501   2.04817
    R4        1.75849   0.02545   0.00000   0.00051   0.00051   1.75900
    A1        2.78416  -0.05619   0.00000  -0.00411   0.00055   2.78470
    A2        2.06120   0.08858   0.00000   0.06934   0.06965   2.13085
    A3        2.82743  -0.01709   0.00000   0.16031   0.16031   2.98774
    D1        3.14159   0.00000   0.00000  -0.14061   0.00000   3.14159
    D2        0.00000   0.00000   0.00000  -0.03302   0.00000   0.00000
         Item               Value     Threshold  Converged?
 Maximum Force            0.115796     0.000450     NO 
 RMS     Force            0.061557     0.000300     NO 
 Maximum Displacement     0.202162     0.001800     NO 
 RMS     Displacement     0.108201     0.001200     NO 
 Predicted change in Energy=-2.797955D-02
 GradGradGradGradGradGradGradGradGradGradGradGradGradGradGradGradGradGrad

                          Input orientation:                          
 ---------------------------------------------------------------------
 Center     Atomic      Atomic             Coordinates (Angstroms)
 Number     Number       Type             X           Y           Z
 ---------------------------------------------------------------------
      1          8           0       -2.422521    1.256849    0.000000
      2          8           0       -1.239262    0.793594    0.000000
      3          1           0        0.005925    0.773328    0.000000
      4          8           0        0.566677   -0.154183    0.000000
      5          1           0        0.920504   -1.015133    0.000000
 ---------------------------------------------------------------------
                    Distance matrix (angstroms):
                    1          2          3          4          5
     1  O    0.000000
     2  O    1.270712   0.000000
     3  H    2.476115   1.245351   0.000000
     4  O    3.305498   2.039533   1.083845   0.000000
     5  H    4.041995   2.817105   2.008743   0.930821   0.000000
 Stoichiometry    H2O3
 Framework group  CS[SG(H2O3)]
 Deg. of freedom     7
 Full point group                 CS      NOp   2
 Largest Abelian subgroup         CS      NOp   2
 Largest concise Abelian subgroup C1      NOp   1
                         Standard orientation:                         
 ---------------------------------------------------------------------
 Center     Atomic      Atomic             Coordinates (Angstroms)
 Number     Number       Type             X           Y           Z
 ---------------------------------------------------------------------
      1          8           0       -0.282526    1.629021    0.000000
      2          8           0        0.000000    0.390115    0.000000
      3          1           0        0.683628   -0.650823    0.000000
      4          8           0        0.232157   -1.636162    0.000000
      5          1           0       -0.280671   -2.412973    0.000000
 ---------------------------------------------------------------------
 Rotational constants (GHZ):    617.5802862      5.2821405      5.2373457
 Standard basis: 6-31+G(d,p) (6D, 7F)
 There are    50 symmetry adapted basis functions of A'  symmetry.
 There are    17 symmetry adapted basis functions of A"  symmetry.
 Integral buffers will be    262144 words long.
 Raffenetti 2 integral format.
 Two-electron integral symmetry is turned on.
    67 basis functions,   110 primitive gaussians,    67 cartesian basis functions
    13 alpha electrons       13 beta electrons
       nuclear repulsion energy        69.8800554816 Hartrees.
 NAtoms=    5 NActive=    5 NUniq=    5 SFac= 7.50D-01 NAtFMM=   80 NAOKFM=F Big=F
 One-electron integrals computed using PRISM.
 NBasis=    67 RedAO= T  NBF=    50    17
 NBsUse=    67 1.00D-06 NBFU=    50    17
 Initial guess read from the read-write file.
 B after Tr=     0.000000    0.000000    0.000000
         Rot=    1.000000    0.000000    0.000000    0.000000 Ang=   0.00 deg.
 Initial guess orbital symmetries:
       Occupied  (A') (A') (A') (A') (A') (A') (A') (A') (A") (A')
                 (A') (A") (A')
       Virtual   (A") (A') (A') (A') (A") (A') (A') (A') (A") (A')
                 (A') (A") (A') (A') (A') (A') (A') (A") (A') (A')
                 (A') (A") (A') (A') (A') (A") (A') (A") (A') (A')
                 (A') (A") (A") (A') (A') (A') (A") (A") (A') (A')
                 (A") (A') (A') (A") (A') (A') (A") (A') (A') (A')
                 (A') (A') (A') (A')
 Harris functional with IExCor= 1009 diagonalized for initial guess.
 ExpMin= 8.45D-02 ExpMax= 5.48D+03 ExpMxC= 8.25D+02 IAcc=2 IRadAn=         0 AccDes= 0.00D+00
 HarFok:  IExCor= 1009 AccDes= 0.00D+00 IRadAn=         0 IDoV= 1
 ScaDFX=  1.000000  1.000000  1.000000  1.000000
 FoFCou: FMM=F IPFlag=           0 FMFlag=      100000 FMFlg1=           0
         NFxFlg=           0 DoJE=T BraDBF=F KetDBF=T FulRan=T
         Omega=  0.000000  0.000000  1.000000  0.000000  0.000000 ICntrl=     500 IOpCl=  0
         NMat0=    1 NMatS0=    1 NMatT0=    0 NMatD0=    1 NMtDS0=    0 NMtDT0=    0
         I1Cent=           4 NGrid=           0.
 Petite list used in FoFCou.
 Requested convergence on RMS density matrix=1.00D-08 within 128 cycles.
 Requested convergence on MAX density matrix=1.00D-06.
 Requested convergence on             energy=1.00D-06.
 No special actions if energy rises.
 Keep R1 ints in memory in canonical form, NReq=3551239.
 Integral accuracy reduced to 1.0D-05 until final iterations.
 Initial convergence to 1.0D-05 achieved.  Increase integral accuracy.
 SCF Done:  E(RM062X) =  -226.491093958     A.U. after   17 cycles
             Convg  =    0.3172D-08             -V/T =  2.0083
 Calling FoFJK, ICntrl=      2127 FMM=F ISym2X=1 I1Cent= 0 IOpClX= 0 NMat=1 NMatS=1 NMatT=0.
 ***** Axes restored to original set *****
 -------------------------------------------------------------------
 Center     Atomic                   Forces (Hartrees/Bohr)
 Number     Number              X              Y              Z
 -------------------------------------------------------------------
      1        8           0.086678809   -0.014866121    0.000000000
      2        8          -0.166609932    0.029009060    0.000000000
      3        1           0.063247408   -0.059229267    0.000000000
      4        8           0.010911529    0.064181221    0.000000000
      5        1           0.005772185   -0.019094892    0.000000000
 -------------------------------------------------------------------
 Cartesian Forces:  Max     0.166609932 RMS     0.056850199

 GradGradGradGradGradGradGradGradGradGradGradGradGradGradGradGradGradGrad
 Berny optimization.
 Internal  Forces:  Max     0.086138300 RMS     0.049830081
 Search for a saddle point.
 Step number   2 out of a maximum of  100
 All quantities printed in internal units (Hartrees-Bohrs-Radians)
 Swaping is turned off.
 Update second derivatives using D2CorX and points    1    2
 The second derivative matrix:
                          R1        R2        R3        R4        A1
           R1           0.36826
           R2           0.04119   0.18553
           R3           0.03667   0.18017   0.21357
           R4          -0.00685   0.00934  -0.01380   0.69262
           A1          -0.00039  -0.06788   0.02774   0.00085   0.01922
           A2           0.04456   0.12415   0.10860   0.00616  -0.04850
           A3           0.00745   0.02036  -0.00826   0.00815   0.00985
           D1           0.00000   0.00000   0.00000   0.00000   0.00000
           D2           0.00000   0.00000   0.00000   0.00000   0.00000
                          A2        A3        D1        D2
           A2           0.24962
           A3           0.00480  -0.10426
           D1           0.00000   0.00000  -0.02761
           D2           0.00000   0.00000   0.00621  -0.00293
     Eigenvalues ---   -0.11246  -0.04419  -0.02909  -0.00146   0.07200
     Eigenvalues ---    0.15020   0.33749   0.52818   0.69334
 Eigenvectors required to have negative eigenvalues:
                          A3        A1        R2        R3        A2
   1                    0.94189  -0.21505  -0.20100   0.16042  -0.01943
                          R1        R4        D1        D2
   1                   -0.00805  -0.00414   0.00000   0.00000
 RFO step:  Lambda0=2.174861163D-03 Lambda=-8.67399159D-02.
 Linear search not attempted -- option 19 set.
 Maximum step size (   0.300) exceeded in Quadratic search.
    -- Step size scaled by   0.277
 Iteration  1 RMS(Cart)=  0.07871436 RMS(Int)=  0.00707179
 Iteration  2 RMS(Cart)=  0.00519688 RMS(Int)=  0.00014530
 Iteration  3 RMS(Cart)=  0.00008517 RMS(Int)=  0.00000004
 Iteration  4 RMS(Cart)=  0.00000004 RMS(Int)=  0.00000000
 ClnCor:  largest displacement from symmetrization is 4.53D-02 for atom     2.
 Variable       Old X    -DE/DX   Delta X   Delta X   Delta X     New X
                                 (Linear)    (Quad)   (Total)
    R1        2.40130  -0.08614   0.00000  -0.06340  -0.06448   2.33682
    R2        2.35337   0.08010   0.00000   0.15876   0.15816   2.51153
    R3        2.04817  -0.02991   0.00000  -0.13839  -0.13839   1.90978
    R4        1.75900   0.01988   0.00000   0.00043   0.00043   1.75942
    A1        2.78470  -0.04284   0.00000   0.04624   0.05065   2.83535
    A2        2.13085   0.07331   0.00000   0.06004   0.06026   2.19111
    A3        2.98774  -0.00349   0.00000   0.10920   0.10920   3.09694
    D1        3.14159   0.00000   0.00000  -0.15068   0.00000   3.14159
    D2        0.00000   0.00000   0.00000  -0.03538   0.00000   0.00000
         Item               Value     Threshold  Converged?
 Maximum Force            0.086138     0.000450     NO 
 RMS     Force            0.049830     0.000300     NO 
 Maximum Displacement     0.133756     0.001800     NO 
 RMS     Displacement     0.078630     0.001200     NO 
 Predicted change in Energy=-2.355431D-02
 GradGradGradGradGradGradGradGradGradGradGradGradGradGradGradGradGradGrad

                          Input orientation:                          
 ---------------------------------------------------------------------
 Center     Atomic      Atomic             Coordinates (Angstroms)
 Number     Number       Type             X           Y           Z
 ---------------------------------------------------------------------
      1          8           0       -2.435040    1.291361    0.000000
      2          8           0       -1.292737    0.817754    0.000000
      3          1           0        0.031306    0.702547    0.000000
      4          8           0        0.545272   -0.167610    0.000000
      5          1           0        0.982521   -0.989597    0.000000
 ---------------------------------------------------------------------
                    Distance matrix (angstroms):
                    1          2          3          4          5
     1  O    0.000000
     2  O    1.236591   0.000000
     3  H    2.535658   1.329046   0.000000
     4  O    3.318261   2.085479   1.010611   0.000000
     5  H    4.108831   2.905739   1.941176   0.931048   0.000000
 Stoichiometry    H2O3
 Framework group  CS[SG(H2O3)]
 Deg. of freedom     7
 Full point group                 CS      NOp   2
 Largest Abelian subgroup         CS      NOp   2
 Largest concise Abelian subgroup C1      NOp   1
                         Standard orientation:                         
 ---------------------------------------------------------------------
 Center     Atomic      Atomic             Coordinates (Angstroms)
 Number     Number       Type             X           Y           Z
 ---------------------------------------------------------------------
      1          8           0       -0.230969    1.636499    0.000000
      2          8           0        0.000000    0.421669    0.000000
      3          1           0        0.630315   -0.748402    0.000000
      4          8           0        0.184958   -1.655591    0.000000
      5          1           0       -0.262232   -2.472213    0.000000
 ---------------------------------------------------------------------
 Rotational constants (GHZ):    768.4369745      5.1965795      5.1616736
 Standard basis: 6-31+G(d,p) (6D, 7F)
 There are    50 symmetry adapted basis functions of A'  symmetry.
 There are    17 symmetry adapted basis functions of A"  symmetry.
 Integral buffers will be    262144 words long.
 Raffenetti 2 integral format.
 Two-electron integral symmetry is turned on.
    67 basis functions,   110 primitive gaussians,    67 cartesian basis functions
    13 alpha electrons       13 beta electrons
       nuclear repulsion energy        70.1842216101 Hartrees.
 NAtoms=    5 NActive=    5 NUniq=    5 SFac= 7.50D-01 NAtFMM=   80 NAOKFM=F Big=F
 One-electron integrals computed using PRISM.
 NBasis=    67 RedAO= T  NBF=    50    17
 NBsUse=    67 1.00D-06 NBFU=    50    17
 Initial guess read from the read-write file.
 B after Tr=     0.000000    0.000000    0.000000
         Rot=    1.000000    0.000000    0.000000    0.000000 Ang=   0.00 deg.
 Initial guess orbital symmetries:
       Occupied  (A') (A') (A') (A') (A') (A') (A') (A') (A") (A')
                 (A') (A") (A')
       Virtual   (A") (A') (A') (A') (A") (A') (A') (A') (A") (A')
                 (A') (A") (A') (A') (A') (A') (A') (A") (A') (A')
                 (A') (A") (A') (A') (A") (A') (A') (A") (A') (A')
                 (A") (A') (A") (A') (A') (A') (A") (A") (A') (A')
                 (A") (A') (A') (A") (A') (A') (A') (A") (A') (A')
                 (A') (A') (A') (A')
 Harris functional with IExCor= 1009 diagonalized for initial guess.
 ExpMin= 8.45D-02 ExpMax= 5.48D+03 ExpMxC= 8.25D+02 IAcc=2 IRadAn=         0 AccDes= 0.00D+00
 HarFok:  IExCor= 1009 AccDes= 0.00D+00 IRadAn=         0 IDoV= 1
 ScaDFX=  1.000000  1.000000  1.000000  1.000000
 FoFCou: FMM=F IPFlag=           0 FMFlag=      100000 FMFlg1=           0
         NFxFlg=           0 DoJE=T BraDBF=F KetDBF=T FulRan=T
         Omega=  0.000000  0.000000  1.000000  0.000000  0.000000 ICntrl=     500 IOpCl=  0
         NMat0=    1 NMatS0=    1 NMatT0=    0 NMatD0=    1 NMtDS0=    0 NMtDT0=    0
         I1Cent=           4 NGrid=           0.
 Petite list used in FoFCou.
 Requested convergence on RMS density matrix=1.00D-08 within 128 cycles.
 Requested convergence on MAX density matrix=1.00D-06.
 Requested convergence on             energy=1.00D-06.
 No special actions if energy rises.
 Keep R1 ints in memory in canonical form, NReq=3551244.
 Integral accuracy reduced to 1.0D-05 until final iterations.
 Initial convergence to 1.0D-05 achieved.  Increase integral accuracy.
 SCF Done:  E(RM062X) =  -226.513044133     A.U. after   17 cycles
             Convg  =    0.3651D-08             -V/T =  2.0078
 Calling FoFJK, ICntrl=      2127 FMM=F ISym2X=1 I1Cent= 0 IOpClX= 0 NMat=1 NMatS=1 NMatT=0.
 ***** Axes restored to original set *****
 -------------------------------------------------------------------
 Center     Atomic                   Forces (Hartrees/Bohr)
 Number     Number              X              Y              Z
 -------------------------------------------------------------------
      1        8           0.055708660   -0.008439774    0.000000000
      2        8          -0.126463623    0.025380382    0.000000000
      3        1           0.051871635   -0.039410576    0.000000000
      4        8           0.008751005    0.034073649    0.000000000
      5        1           0.010132323   -0.011603681    0.000000000
 -------------------------------------------------------------------
 Cartesian Forces:  Max     0.126463623 RMS     0.041255835

 GradGradGradGradGradGradGradGradGradGradGradGradGradGradGradGradGradGrad
 Berny optimization.
 Internal  Forces:  Max     0.071934393 RMS     0.037999236
 Search for a saddle point.
 Step number   3 out of a maximum of  100
 All quantities printed in internal units (Hartrees-Bohrs-Radians)
 Swaping is turned off.
 Update second derivatives using D2CorX and points    1    2    3
 The second derivative matrix:
                          R1        R2        R3        R4        A1
           R1           0.39624
           R2           0.02813   0.17190
           R3           0.08955   0.15557   0.31329
           R4          -0.00591   0.00842  -0.01204   0.69264
           A1          -0.01121  -0.06473   0.00745   0.00044   0.02311
           A2           0.03988   0.11772   0.09973   0.00579  -0.04746
           A3           0.00199   0.00460  -0.01873   0.00751   0.01039
           D1           0.00000   0.00000   0.00000   0.00000   0.00000
           D2           0.00000   0.00000   0.00000   0.00000   0.00000
                          A2        A3        D1        D2
           A2           0.24661
           A3          -0.00238  -0.12051
           D1           0.00000   0.00000  -0.02761
           D2           0.00000   0.00000   0.00621  -0.00293
     Eigenvalues ---   -0.12351  -0.02909  -0.01596  -0.00146   0.07788
     Eigenvalues ---    0.18400   0.34403   0.56345   0.69339
 Eigenvectors required to have negative eigenvalues:
                          A3        A1        R2        R3        R1
   1                    0.98813  -0.10921  -0.07628   0.07464  -0.01482
                          R4        A2        D1        D2
   1                   -0.00724  -0.00179   0.00000   0.00000
 RFO step:  Lambda0=1.209648409D-04 Lambda=-4.71256964D-02.
 Linear search not attempted -- option 19 set.
 Maximum step size (   0.300) exceeded in Quadratic search.
    -- Step size scaled by   0.291
 Iteration  1 RMS(Cart)=  0.05072913 RMS(Int)=  0.00959042
 Iteration  2 RMS(Cart)=  0.00634921 RMS(Int)=  0.00026114
 Iteration  3 RMS(Cart)=  0.00014851 RMS(Int)=  0.00000023
 Iteration  4 RMS(Cart)=  0.00000015 RMS(Int)=  0.00000000
 ClnCor:  largest displacement from symmetrization is 5.35D-02 for atom     2.
 Variable       Old X    -DE/DX   Delta X   Delta X   Delta X     New X
                                 (Linear)    (Quad)   (Total)
    R1        2.33682  -0.05470   0.00000  -0.03138  -0.03296   2.30386
    R2        2.51153   0.07193   0.00000   0.15739   0.15662   2.66815
    R3        1.90978  -0.00972   0.00000  -0.07966  -0.07966   1.83012
    R4        1.75942   0.01501   0.00000   0.00206   0.00206   1.76148
    A1        2.83535  -0.03174   0.00000   0.05966   0.06728   2.90263
    A2        2.19111   0.05886   0.00000   0.03638   0.03665   2.22776
    A3        3.09694   0.00609   0.00000   0.01517   0.01517   3.11212
    D1        3.14159   0.00000   0.00000  -0.22884   0.00000   3.14159
    D2        0.00000   0.00000   0.00000  -0.02036   0.00000   0.00000
         Item               Value     Threshold  Converged?
 Maximum Force            0.071934     0.000450     NO 
 RMS     Force            0.037999     0.000300     NO 
 Maximum Displacement     0.074227     0.001800     NO 
 RMS     Displacement     0.051508     0.001200     NO 
 Predicted change in Energy=-1.274694D-02
 GradGradGradGradGradGradGradGradGradGradGradGradGradGradGradGradGradGrad

                          Input orientation:                          
 ---------------------------------------------------------------------
 Center     Atomic      Atomic             Coordinates (Angstroms)
 Number     Number       Type             X           Y           Z
 ---------------------------------------------------------------------
      1          8           0       -2.465263    1.295235    0.000000
      2          8           0       -1.329053    0.853246    0.000000
      3          1           0        0.070586    0.667378    0.000000
      4          8           0        0.555939   -0.170680    0.000000
      5          1           0        0.999113   -0.990725    0.000000
 ---------------------------------------------------------------------
                    Distance matrix (angstroms):
                    1          2          3          4          5
     1  O    0.000000
     2  O    1.219150   0.000000
     3  H    2.612419   1.411926   0.000000
     4  O    3.358059   2.145138   0.968456   0.000000
     5  H    4.150604   2.969947   1.900387   0.932137   0.000000
 Stoichiometry    H2O3
 Framework group  CS[SG(H2O3)]
 Deg. of freedom     7
 Full point group                 CS      NOp   2
 Largest Abelian subgroup         CS      NOp   2
 Largest concise Abelian subgroup C1      NOp   1
                         Standard orientation:                         
 ---------------------------------------------------------------------
 Center     Atomic      Atomic             Coordinates (Angstroms)
 Number     Number       Type             X           Y           Z
 ---------------------------------------------------------------------
      1          8           0       -0.279824    1.640276    0.000000
      2          8           0        0.000000    0.453674    0.000000
      3          1           0        0.640139   -0.804800    0.000000
      4          8           0        0.224766   -1.679656    0.000000
      5          1           0       -0.199673   -2.509554    0.000000
 ---------------------------------------------------------------------
 Rotational constants (GHZ):    744.5949894      5.0504021      5.0163773
 Standard basis: 6-31+G(d,p) (6D, 7F)
 There are    50 symmetry adapted basis functions of A'  symmetry.
 There are    17 symmetry adapted basis functions of A"  symmetry.
 Integral buffers will be    262144 words long.
 Raffenetti 2 integral format.
 Two-electron integral symmetry is turned on.
    67 basis functions,   110 primitive gaussians,    67 cartesian basis functions
    13 alpha electrons       13 beta electrons
       nuclear repulsion energy        69.9083994708 Hartrees.
 NAtoms=    5 NActive=    5 NUniq=    5 SFac= 7.50D-01 NAtFMM=   80 NAOKFM=F Big=F
 One-electron integrals computed using PRISM.
 NBasis=    67 RedAO= T  NBF=    50    17
 NBsUse=    67 1.00D-06 NBFU=    50    17
 Initial guess read from the read-write file.
 B after Tr=     0.000000    0.000000    0.000000
         Rot=    1.000000    0.000000    0.000000    0.000000 Ang=   0.00 deg.
 Initial guess orbital symmetries:
       Occupied  (A') (A') (A') (A') (A') (A') (A') (A') (A") (A')
                 (A') (A") (A')
       Virtual   (A") (A') (A') (A') (A") (A') (A') (A') (A") (A')
                 (A') (A") (A') (A') (A') (A') (A') (A') (A") (A')
                 (A') (A") (A') (A') (A") (A') (A') (A") (A') (A')
                 (A") (A') (A") (A') (A') (A') (A") (A") (A') (A')
                 (A') (A") (A') (A") (A') (A') (A') (A") (A') (A')
                 (A') (A') (A') (A')
 Harris functional with IExCor= 1009 diagonalized for initial guess.
 ExpMin= 8.45D-02 ExpMax= 5.48D+03 ExpMxC= 8.25D+02 IAcc=2 IRadAn=         0 AccDes= 0.00D+00
 HarFok:  IExCor= 1009 AccDes= 0.00D+00 IRadAn=         0 IDoV= 1
 ScaDFX=  1.000000  1.000000  1.000000  1.000000
 FoFCou: FMM=F IPFlag=           0 FMFlag=      100000 FMFlg1=           0
         NFxFlg=           0 DoJE=T BraDBF=F KetDBF=T FulRan=T
         Omega=  0.000000  0.000000  1.000000  0.000000  0.000000 ICntrl=     500 IOpCl=  0
         NMat0=    1 NMatS0=    1 NMatT0=    0 NMatD0=    1 NMtDS0=    0 NMtDT0=    0
         I1Cent=           4 NGrid=           0.
 Petite list used in FoFCou.
 Requested convergence on RMS density matrix=1.00D-08 within 128 cycles.
 Requested convergence on MAX density matrix=1.00D-06.
 Requested convergence on             energy=1.00D-06.
 No special actions if energy rises.
 Keep R1 ints in memory in canonical form, NReq=3551244.
 Integral accuracy reduced to 1.0D-05 until final iterations.
 Initial convergence to 1.0D-05 achieved.  Increase integral accuracy.
 SCF Done:  E(RM062X) =  -226.525192960     A.U. after   15 cycles
             Convg  =    0.9631D-08             -V/T =  2.0076
 Calling FoFJK, ICntrl=      2127 FMM=F ISym2X=1 I1Cent= 0 IOpClX= 0 NMat=1 NMatS=1 NMatT=0.
 ***** Axes restored to original set *****
 -------------------------------------------------------------------
 Center     Atomic                   Forces (Hartrees/Bohr)
 Number     Number              X              Y              Z
 -------------------------------------------------------------------
      1        8           0.034817683   -0.002401211    0.000000000
      2        8          -0.093787542    0.018640953    0.000000000
      3        1           0.035291255   -0.019964311    0.000000000
      4        8           0.015718065    0.011587861    0.000000000
      5        1           0.007960539   -0.007863292    0.000000000
 -------------------------------------------------------------------
 Cartesian Forces:  Max     0.093787542 RMS     0.028881608

 GradGradGradGradGradGradGradGradGradGradGradGradGradGradGradGradGradGrad
 Berny optimization.
 Internal  Forces:  Max     0.060569470 RMS     0.029324554
 Search for a saddle point.
 Step number   4 out of a maximum of  100
 All quantities printed in internal units (Hartrees-Bohrs-Radians)
 Swaping is turned off.
 Update second derivatives using D2CorX and points    2    3    4
 The second derivative matrix:
                          R1        R2        R3        R4        A1
           R1           0.40991
           R2           0.01502   0.13801
           R3           0.12747   0.11255   0.41751
           R4          -0.00616   0.00826  -0.01279   0.69264
           A1          -0.02209  -0.06725  -0.02451   0.00053   0.02809
           A2           0.03951   0.10255   0.09642   0.00567  -0.05143
           A3          -0.00063  -0.00266  -0.02757   0.00749   0.00994
           D1           0.00000   0.00000   0.00000   0.00000   0.00000
           D2           0.00000   0.00000   0.00000   0.00000   0.00000
                          A2        A3        D1        D2
           A2           0.24137
           A3          -0.00575  -0.12258
           D1           0.00000   0.00000  -0.02761
           D2           0.00000   0.00000   0.00621  -0.00293
     Eigenvalues ---   -0.12484  -0.02909  -0.00626  -0.00146   0.08009
     Eigenvalues ---    0.21624   0.33570   0.60995   0.69407
 Eigenvectors required to have negative eigenvalues:
                          A3        A1        R3        R2        R1
   1                    0.99517  -0.07128   0.05703  -0.03199  -0.01466
                          R4        A2        D1        D2
   1                   -0.00797   0.00126   0.00000   0.00000
 RFO step:  Lambda0=3.253052672D-04 Lambda=-2.90853642D-02.
 Linear search not attempted -- option 19 set.
 Maximum step size (   0.300) exceeded in Quadratic search.
    -- Step size scaled by   0.300
 Iteration  1 RMS(Cart)=  0.04602418 RMS(Int)=  0.01908419
 Iteration  2 RMS(Cart)=  0.01427081 RMS(Int)=  0.00134081
 Iteration  3 RMS(Cart)=  0.00079373 RMS(Int)=  0.00000786
 Iteration  4 RMS(Cart)=  0.00000523 RMS(Int)=  0.00000000
 Iteration  5 RMS(Cart)=  0.00000000 RMS(Int)=  0.00000000
 ClnCor:  largest displacement from symmetrization is 3.34D-02 for atom     2.
 Variable       Old X    -DE/DX   Delta X   Delta X   Delta X     New X
                                 (Linear)    (Quad)   (Total)
    R1        2.30386  -0.03332   0.00000  -0.01697  -0.01759   2.28627
    R2        2.66815   0.06057   0.00000   0.15659   0.15630   2.82445
    R3        1.83012   0.00867   0.00000  -0.02922  -0.02922   1.80090
    R4        1.76148   0.01072   0.00000   0.00178   0.00178   1.76326
    A1        2.90263  -0.02404   0.00000   0.08691   0.09162   2.99425
    A2        2.22776   0.04647   0.00000   0.02166   0.02177   2.24953
    A3        3.11212   0.00568   0.00000  -0.00271  -0.00271   3.10941
    D1        3.14159   0.00000   0.00000  -0.23635   0.00000   3.14159
    D2        0.00000   0.00000   0.00000  -0.02103   0.00000   0.00000
         Item               Value     Threshold  Converged?
 Maximum Force            0.060569     0.000450     NO 
 RMS     Force            0.029325     0.000300     NO 
 Maximum Displacement     0.099274     0.001800     NO 
 RMS     Displacement     0.058775     0.001200     NO 
 Predicted change in Energy=-7.690441D-03
 GradGradGradGradGradGradGradGradGradGradGradGradGradGradGradGradGradGrad

                          Input orientation:                          
 ---------------------------------------------------------------------
 Center     Atomic      Atomic             Coordinates (Angstroms)
 Number     Number       Type             X           Y           Z
 ---------------------------------------------------------------------
      1          8           0       -2.508482    1.283210    0.000000
      2          8           0       -1.359022    0.905779    0.000000
      3          1           0        0.114088    0.653031    0.000000
      4          8           0        0.578328   -0.179241    0.000000
      5          1           0        1.006411   -1.008325    0.000000
 ---------------------------------------------------------------------
                    Distance matrix (angstroms):
                    1          2          3          4          5
     1  O    0.000000
     2  O    1.209840   0.000000
     3  H    2.697221   1.494635   0.000000
     4  O    3.415723   2.220494   0.952993   0.000000
     5  H    4.195904   3.042872   1.885828   0.933079   0.000000
 Stoichiometry    H2O3
 Framework group  CS[SG(H2O3)]
 Deg. of freedom     7
 Full point group                 CS      NOp   2
 Largest Abelian subgroup         CS      NOp   2
 Largest concise Abelian subgroup C1      NOp   1
                         Standard orientation:                         
 ---------------------------------------------------------------------
 Center     Atomic      Atomic             Coordinates (Angstroms)
 Number     Number       Type             X           Y           Z
 ---------------------------------------------------------------------
      1          8           0       -0.403534    1.633293    0.000000
      2          8           0        0.000000    0.492734    0.000000
      3          1           0        0.699986   -0.827854    0.000000
      4          8           0        0.324784   -1.703879    0.000000
      5          1           0       -0.069986   -2.549332    0.000000
 ---------------------------------------------------------------------
 Rotational constants (GHZ):    596.8935934      4.8621681      4.8228820
 Standard basis: 6-31+G(d,p) (6D, 7F)
 There are    50 symmetry adapted basis functions of A'  symmetry.
 There are    17 symmetry adapted basis functions of A"  symmetry.
 Integral buffers will be    262144 words long.
 Raffenetti 2 integral format.
 Two-electron integral symmetry is turned on.
    67 basis functions,   110 primitive gaussians,    67 cartesian basis functions
    13 alpha electrons       13 beta electrons
       nuclear repulsion energy        69.2225743572 Hartrees.
 NAtoms=    5 NActive=    5 NUniq=    5 SFac= 7.50D-01 NAtFMM=   80 NAOKFM=F Big=F
 One-electron integrals computed using PRISM.
 NBasis=    67 RedAO= T  NBF=    50    17
 NBsUse=    67 1.00D-06 NBFU=    50    17
 Initial guess read from the read-write file.
 B after Tr=     0.000000    0.000000    0.000000
         Rot=    1.000000    0.000000    0.000000    0.000000 Ang=   0.00 deg.
 Initial guess orbital symmetries:
       Occupied  (A') (A') (A') (A') (A') (A') (A') (A') (A") (A')
                 (A') (A") (A')
       Virtual   (A") (A') (A') (A') (A") (A') (A') (A') (A") (A')
                 (A") (A') (A') (A') (A') (A') (A') (A') (A") (A')
                 (A') (A") (A') (A') (A") (A') (A') (A") (A') (A')
                 (A") (A') (A") (A') (A') (A') (A") (A") (A') (A')
                 (A") (A') (A') (A") (A') (A') (A') (A") (A') (A')
                 (A') (A') (A') (A')
 Harris functional with IExCor= 1009 diagonalized for initial guess.
 ExpMin= 8.45D-02 ExpMax= 5.48D+03 ExpMxC= 8.25D+02 IAcc=2 IRadAn=         0 AccDes= 0.00D+00
 HarFok:  IExCor= 1009 AccDes= 0.00D+00 IRadAn=         0 IDoV= 1
 ScaDFX=  1.000000  1.000000  1.000000  1.000000
 FoFCou: FMM=F IPFlag=           0 FMFlag=      100000 FMFlg1=           0
         NFxFlg=           0 DoJE=T BraDBF=F KetDBF=T FulRan=T
         Omega=  0.000000  0.000000  1.000000  0.000000  0.000000 ICntrl=     500 IOpCl=  0
         NMat0=    1 NMatS0=    1 NMatT0=    0 NMatD0=    1 NMtDS0=    0 NMtDT0=    0
         I1Cent=           4 NGrid=           0.
 Petite list used in FoFCou.
 Requested convergence on RMS density matrix=1.00D-08 within 128 cycles.
 Requested convergence on MAX density matrix=1.00D-06.
 Requested convergence on             energy=1.00D-06.
 No special actions if energy rises.
 Keep R1 ints in memory in canonical form, NReq=3551244.
 Integral accuracy reduced to 1.0D-05 until final iterations.
 Initial convergence to 1.0D-05 achieved.  Increase integral accuracy.
 SCF Done:  E(RM062X) =  -226.532877701     A.U. after   15 cycles
             Convg  =    0.2711D-08             -V/T =  2.0076
 Calling FoFJK, ICntrl=      2127 FMM=F ISym2X=1 I1Cent= 0 IOpClX= 0 NMat=1 NMatS=1 NMatT=0.
 ***** Axes restored to original set *****
 -------------------------------------------------------------------
 Center     Atomic                   Forces (Hartrees/Bohr)
 Number     Number              X              Y              Z
 -------------------------------------------------------------------
      1        8           0.022794223    0.001222623    0.000000000
      2        8          -0.069661992    0.013126146    0.000000000
      3        1           0.025398968   -0.013239866    0.000000000
      4        8           0.015882822    0.005104101    0.000000000
      5        1           0.005585979   -0.006213004    0.000000000
 -------------------------------------------------------------------
 Cartesian Forces:  Max     0.069661992 RMS     0.021157634

 GradGradGradGradGradGradGradGradGradGradGradGradGradGradGradGradGradGrad
 Berny optimization.
 Internal  Forces:  Max     0.048617175 RMS     0.022892436
 Search for a saddle point.
 Step number   5 out of a maximum of  100
 All quantities printed in internal units (Hartrees-Bohrs-Radians)
 Swaping is turned off.
 Update second derivatives using D2CorX and points    3    4    5
 The second derivative matrix:
                          R1        R2        R3        R4        A1
           R1           0.41311
           R2           0.00659   0.11754
           R3           0.13478   0.09022   0.43398
           R4          -0.00587   0.00585  -0.01223   0.69260
           A1          -0.02992  -0.06089  -0.04345  -0.00075   0.04247
           A2           0.04034   0.08723   0.09737   0.00524  -0.05784
           A3          -0.00107  -0.00093  -0.02853   0.00746   0.01122
           D1           0.00000   0.00000   0.00000   0.00000   0.00000
           D2           0.00000   0.00000   0.00000   0.00000   0.00000
                          A2        A3        D1        D2
           A2           0.23753
           A3          -0.00569  -0.12253
           D1           0.00000   0.00000  -0.02761
           D2           0.00000   0.00000   0.00621  -0.00293
     Eigenvalues ---   -0.12486  -0.02909  -0.00146   0.00711   0.07767
     Eigenvalues ---    0.21526   0.32885   0.61651   0.69417
 Eigenvectors required to have negative eigenvalues:
                          A3        A1        R3        R2        R1
   1                    0.99557  -0.06731   0.05434  -0.03271  -0.01507
                          R4        A2        D1        D2
   1                   -0.00821  -0.00003   0.00000   0.00000
 RFO step:  Lambda0=1.451911530D-04 Lambda=-2.90853642D-02.
 Linear search not attempted -- option 19 set.
 Maximum step size (   0.300) exceeded in Quadratic search.
    -- Step size scaled by   0.311
 Iteration  1 RMS(Cart)=  0.03837695 RMS(Int)=  0.01381174
 Iteration  2 RMS(Cart)=  0.00137137 RMS(Int)=  0.00004048
 Iteration  3 RMS(Cart)=  0.00002405 RMS(Int)=  0.00000001
 Iteration  4 RMS(Cart)=  0.00000001 RMS(Int)=  0.00000000
 ClnCor:  largest displacement from symmetrization is 2.46D-02 for atom     2.
 Variable       Old X    -DE/DX   Delta X   Delta X   Delta X     New X
                                 (Linear)    (Quad)   (Total)
    R1        2.28627  -0.02128   0.00000  -0.01384  -0.01418   2.27209
    R2        2.82445   0.04862   0.00000   0.10448   0.10434   2.92879
    R3        1.80090   0.01143   0.00000  -0.01167  -0.01167   1.78923
    R4        1.76326   0.00808   0.00000   0.00228   0.00225   1.76551
    A1        2.99425  -0.01892   0.00000   0.00839   0.01105   3.00530
    A2        2.24953   0.03650   0.00000   0.01634   0.01635   2.26588
    A3        3.10941   0.00372   0.00000  -0.00619  -0.00530   3.10411
    D1        3.14159   0.00000   0.00000  -0.19078   0.00000   3.14159
    D2        0.00000   0.00000   0.00000   0.20488   0.00000   0.00000
         Item               Value     Threshold  Converged?
 Maximum Force            0.048617     0.000450     NO 
 RMS     Force            0.022892     0.000300     NO 
 Maximum Displacement     0.060508     0.001800     NO 
 RMS     Displacement     0.036731     0.001200     NO 
 Predicted change in Energy=-4.928235D-03
 GradGradGradGradGradGradGradGradGradGradGradGradGradGradGradGradGradGrad

                          Input orientation:                          
 ---------------------------------------------------------------------
 Center     Atomic      Atomic             Coordinates (Angstroms)
 Number     Number       Type             X           Y           Z
 ---------------------------------------------------------------------
      1          8           0       -2.532784    1.297416    0.000000
      2          8           0       -1.391042    0.920536    0.000000
      3          1           0        0.133060    0.639204    0.000000
      4          8           0        0.597377   -0.185946    0.000000
      5          1           0        1.024711   -1.016755    0.000000
 ---------------------------------------------------------------------
                    Distance matrix (angstroms):
                    1          2          3          4          5
     1  O    0.000000
     2  O    1.202337   0.000000
     3  H    2.745900   1.549850   0.000000
     4  O    3.463852   2.275546   0.946817   0.000000
     5  H    4.243955   3.096604   1.880755   0.934268   0.000000
 Stoichiometry    H2O3
 Framework group  CS[SG(H2O3)]
 Deg. of freedom     7
 Full point group                 CS      NOp   2
 Largest Abelian subgroup         CS      NOp   2
 Largest concise Abelian subgroup C1      NOp   1
                         Standard orientation:                         
 ---------------------------------------------------------------------
 Center     Atomic      Atomic             Coordinates (Angstroms)
 Number     Number       Type             X           Y           Z
 ---------------------------------------------------------------------
      1          8           0       -0.384934    1.654586    0.000000
      2          8           0        0.000000    0.515534    0.000000
      3          1           0        0.691092   -0.871703    0.000000
      4          8           0        0.310622   -1.738712    0.000000
      5          1           0       -0.096598   -2.579563    0.000000
 ---------------------------------------------------------------------
 Rotational constants (GHZ):    606.7611718      4.7145240      4.6781747
 Standard basis: 6-31+G(d,p) (6D, 7F)
 There are    50 symmetry adapted basis functions of A'  symmetry.
 There are    17 symmetry adapted basis functions of A"  symmetry.
 Integral buffers will be    262144 words long.
 Raffenetti 2 integral format.
 Two-electron integral symmetry is turned on.
    67 basis functions,   110 primitive gaussians,    67 cartesian basis functions
    13 alpha electrons       13 beta electrons
       nuclear repulsion energy        68.7501566574 Hartrees.
 NAtoms=    5 NActive=    5 NUniq=    5 SFac= 7.50D-01 NAtFMM=   80 NAOKFM=F Big=F
 One-electron integrals computed using PRISM.
 NBasis=    67 RedAO= T  NBF=    50    17
 NBsUse=    67 1.00D-06 NBFU=    50    17
 Initial guess read from the read-write file.
 B after Tr=     0.000000    0.000000    0.000000
         Rot=    1.000000    0.000000    0.000000    0.000000 Ang=   0.00 deg.
 Initial guess orbital symmetries:
       Occupied  (A') (A') (A') (A') (A') (A') (A') (A') (A") (A')
                 (A') (A") (A')
       Virtual   (A") (A') (A') (A') (A") (A') (A') (A') (A") (A')
                 (A") (A') (A') (A') (A') (A') (A') (A') (A") (A')
                 (A') (A") (A') (A') (A") (A') (A') (A") (A') (A')
                 (A") (A') (A") (A') (A') (A') (A") (A') (A") (A')
                 (A") (A') (A') (A") (A') (A') (A') (A") (A') (A')
                 (A') (A') (A') (A')
 Harris functional with IExCor= 1009 diagonalized for initial guess.
 ExpMin= 8.45D-02 ExpMax= 5.48D+03 ExpMxC= 8.25D+02 IAcc=2 IRadAn=         0 AccDes= 0.00D+00
 HarFok:  IExCor= 1009 AccDes= 0.00D+00 IRadAn=         0 IDoV= 1
 ScaDFX=  1.000000  1.000000  1.000000  1.000000
 FoFCou: FMM=F IPFlag=           0 FMFlag=      100000 FMFlg1=           0
         NFxFlg=           0 DoJE=T BraDBF=F KetDBF=T FulRan=T
         Omega=  0.000000  0.000000  1.000000  0.000000  0.000000 ICntrl=     500 IOpCl=  0
         NMat0=    1 NMatS0=    1 NMatT0=    0 NMatD0=    1 NMtDS0=    0 NMtDT0=    0
         I1Cent=           4 NGrid=           0.
 Petite list used in FoFCou.
 Requested convergence on RMS density matrix=1.00D-08 within 128 cycles.
 Requested convergence on MAX density matrix=1.00D-06.
 Requested convergence on             energy=1.00D-06.
 No special actions if energy rises.
 Keep R1 ints in memory in canonical form, NReq=3551244.
 Integral accuracy reduced to 1.0D-05 until final iterations.
 Initial convergence to 1.0D-05 achieved.  Increase integral accuracy.
 SCF Done:  E(RM062X) =  -226.537926271     A.U. after   14 cycles
             Convg  =    0.8913D-08             -V/T =  2.0076
 Calling FoFJK, ICntrl=      2127 FMM=F ISym2X=1 I1Cent= 0 IOpClX= 0 NMat=1 NMatS=1 NMatT=0.
 ***** Axes restored to original set *****
 -------------------------------------------------------------------
 Center     Atomic                   Forces (Hartrees/Bohr)
 Number     Number              X              Y              Z
 -------------------------------------------------------------------
      1        8           0.011343049    0.003534154    0.000000000
      2        8          -0.049989367    0.008307000    0.000000000
      3        1           0.019149452   -0.008786147    0.000000000
      4        8           0.015793100    0.001778752    0.000000000
      5        1           0.003703766   -0.004833758    0.000000000
 -------------------------------------------------------------------
 Cartesian Forces:  Max     0.049989367 RMS     0.015149620

 GradGradGradGradGradGradGradGradGradGradGradGradGradGradGradGradGradGrad
 Berny optimization.
 Internal  Forces:  Max     0.040138152 RMS     0.018297982
 Search for a saddle point.
 Step number   6 out of a maximum of  100
 All quantities printed in internal units (Hartrees-Bohrs-Radians)
 Swaping is turned off.
 Update second derivatives using D2CorX and points    3    4    5    6
 The second derivative matrix:
                          R1        R2        R3        R4        A1
           R1           0.41904
           R2          -0.03904   0.07770
           R3           0.14432   0.05101   0.44021
           R4          -0.00645   0.00252  -0.01299   0.69246
           A1          -0.04081  -0.03736  -0.05342  -0.00070   0.05245
           A2           0.03428   0.05268   0.09309   0.00409  -0.05865
           A3           0.00076   0.00769  -0.02736   0.00776   0.01127
           D1           0.00000   0.00000   0.00000   0.00000   0.00000
           D2           0.00000   0.00000   0.00000   0.00000   0.00000
                          A2        A3        D1        D2
           A2           0.22647
           A3          -0.00277  -0.12327
           D1           0.00000   0.00000  -0.02761
           D2           0.00000   0.00000   0.00621  -0.00293
     Eigenvalues ---   -0.12614  -0.02909  -0.00146   0.01808   0.06207
     Eigenvalues ---    0.20123   0.32599   0.60931   0.69453
 Eigenvectors required to have negative eigenvalues:
                          A3        A1        R2        R3        R1
   1                    0.99354  -0.06798  -0.06704   0.05481  -0.02555
                          R4        A2        D1        D2
   1                   -0.00857  -0.00537   0.00000   0.00000
 RFO step:  Lambda0=6.962211151D-06 Lambda=-2.90853642D-02.
 Linear search not attempted -- option 19 set.
 Maximum step size (   0.300) exceeded in Quadratic search.
    -- Step size scaled by   0.307
 Iteration  1 RMS(Cart)=  0.04705156 RMS(Int)=  0.02340047
 Iteration  2 RMS(Cart)=  0.00394286 RMS(Int)=  0.00016358
 Iteration  3 RMS(Cart)=  0.00018965 RMS(Int)=  0.00000011
 Iteration  4 RMS(Cart)=  0.00000005 RMS(Int)=  0.00000000
 ClnCor:  largest displacement from symmetrization is 3.34D-02 for atom     2.
 Variable       Old X    -DE/DX   Delta X   Delta X   Delta X     New X
                                 (Linear)    (Quad)   (Total)
    R1        2.27209  -0.00967   0.00000   0.00476   0.00413   2.27622
    R2        2.92879   0.04014   0.00000   0.11341   0.11311   3.04190
    R3        1.78923   0.01224   0.00000  -0.00834  -0.00835   1.78088
    R4        1.76551   0.00600   0.00000   0.00191   0.00191   1.76742
    A1        3.00530  -0.01579   0.00000  -0.00111   0.00411   3.00941
    A2        2.26588   0.02950   0.00000   0.01429   0.01445   2.28033
    A3        3.10411   0.00186   0.00000   0.00595   0.00604   3.11016
    D1        3.14159   0.00000   0.00000   0.25985   0.00000   3.14159
    D2        0.00000   0.00000   0.00000   0.09632   0.00000   0.00000
         Item               Value     Threshold  Converged?
 Maximum Force            0.040138     0.000450     NO 
 RMS     Force            0.018298     0.000300     NO 
 Maximum Displacement     0.065730     0.001800     NO 
 RMS     Displacement     0.045202     0.001200     NO 
 Predicted change in Energy=-4.249406D-03
 GradGradGradGradGradGradGradGradGradGradGradGradGradGradGradGradGradGrad

                          Input orientation:                          
 ---------------------------------------------------------------------
 Center     Atomic      Atomic             Coordinates (Angstroms)
 Number     Number       Type             X           Y           Z
 ---------------------------------------------------------------------
      1          8           0       -2.566639    1.320486    0.000000
      2          8           0       -1.425824    0.933933    0.000000
      3          1           0        0.153524    0.622794    0.000000
      4          8           0        0.617701   -0.197362    0.000000
      5          1           0        1.052560   -1.025397    0.000000
 ---------------------------------------------------------------------
                    Distance matrix (angstroms):
                    1          2          3          4          5
     1  O    0.000000
     2  O    1.204525   0.000000
     3  H    2.808213   1.609705   0.000000
     4  O    3.527589   2.335771   0.942399   0.000000
     5  H    4.312976   3.159330   1.877445   0.935278   0.000000
 Stoichiometry    H2O3
 Framework group  CS[SG(H2O3)]
 Deg. of freedom     7
 Full point group                 CS      NOp   2
 Largest Abelian subgroup         CS      NOp   2
 Largest concise Abelian subgroup C1      NOp   1
                         Standard orientation:                         
 ---------------------------------------------------------------------
 Center     Atomic      Atomic             Coordinates (Angstroms)
 Number     Number       Type             X           Y           Z
 ---------------------------------------------------------------------
      1          8           0       -0.360053    1.686445    0.000000
      2          8           0        0.000000    0.536993    0.000000
      3          1           0        0.679429   -0.922297    0.000000
      4          8           0        0.290407   -1.780655    0.000000
      5          1           0       -0.122259   -2.619971    0.000000
 ---------------------------------------------------------------------
 Rotational constants (GHZ):    632.7505531      4.5347630      4.5024947
 Standard basis: 6-31+G(d,p) (6D, 7F)
 There are    50 symmetry adapted basis functions of A'  symmetry.
 There are    17 symmetry adapted basis functions of A"  symmetry.
 Integral buffers will be    262144 words long.
 Raffenetti 2 integral format.
 Two-electron integral symmetry is turned on.
    67 basis functions,   110 primitive gaussians,    67 cartesian basis functions
    13 alpha electrons       13 beta electrons
       nuclear repulsion energy        67.9762840234 Hartrees.
 NAtoms=    5 NActive=    5 NUniq=    5 SFac= 7.50D-01 NAtFMM=   80 NAOKFM=F Big=F
 One-electron integrals computed using PRISM.
 NBasis=    67 RedAO= T  NBF=    50    17
 NBsUse=    67 1.00D-06 NBFU=    50    17
 Initial guess read from the read-write file.
 B after Tr=     0.000000    0.000000    0.000000
         Rot=    1.000000    0.000000    0.000000    0.000000 Ang=   0.00 deg.
 Initial guess orbital symmetries:
       Occupied  (A') (A') (A') (A') (A') (A') (A') (A') (A") (A')
                 (A') (A") (A')
       Virtual   (A") (A') (A') (A') (A") (A') (A') (A") (A') (A')
                 (A") (A') (A') (A') (A') (A') (A') (A') (A") (A')
                 (A') (A") (A') (A') (A") (A') (A') (A") (A') (A')
                 (A") (A') (A") (A') (A') (A') (A") (A') (A") (A')
                 (A") (A') (A') (A") (A') (A') (A') (A") (A') (A')
                 (A') (A') (A') (A')
 Harris functional with IExCor= 1009 diagonalized for initial guess.
 ExpMin= 8.45D-02 ExpMax= 5.48D+03 ExpMxC= 8.25D+02 IAcc=2 IRadAn=         0 AccDes= 0.00D+00
 HarFok:  IExCor= 1009 AccDes= 0.00D+00 IRadAn=         0 IDoV= 1
 ScaDFX=  1.000000  1.000000  1.000000  1.000000
 FoFCou: FMM=F IPFlag=           0 FMFlag=      100000 FMFlg1=           0
         NFxFlg=           0 DoJE=T BraDBF=F KetDBF=T FulRan=T
         Omega=  0.000000  0.000000  1.000000  0.000000  0.000000 ICntrl=     500 IOpCl=  0
         NMat0=    1 NMatS0=    1 NMatT0=    0 NMatD0=    1 NMtDS0=    0 NMtDT0=    0
         I1Cent=           4 NGrid=           0.
 Petite list used in FoFCou.
 Requested convergence on RMS density matrix=1.00D-08 within 128 cycles.
 Requested convergence on MAX density matrix=1.00D-06.
 Requested convergence on             energy=1.00D-06.
 No special actions if energy rises.
 Keep R1 ints in memory in canonical form, NReq=3551244.
 Integral accuracy reduced to 1.0D-05 until final iterations.
 Initial convergence to 1.0D-05 achieved.  Increase integral accuracy.
 SCF Done:  E(RM062X) =  -226.542174652     A.U. after   14 cycles
             Convg  =    0.4632D-08             -V/T =  2.0077
 Calling FoFJK, ICntrl=      2127 FMM=F ISym2X=1 I1Cent= 0 IOpClX= 0 NMat=1 NMatS=1 NMatT=0.
 ***** Axes restored to original set *****
 -------------------------------------------------------------------
 Center     Atomic                   Forces (Hartrees/Bohr)
 Number     Number              X              Y              Z
 -------------------------------------------------------------------
      1        8           0.014969901    0.000973476    0.000000000
      2        8          -0.045784098    0.008377222    0.000000000
      3        1           0.014205879   -0.004712167    0.000000000
      4        8           0.013813128   -0.001192023    0.000000000
      5        1           0.002795190   -0.003446508    0.000000000
 -------------------------------------------------------------------
 Cartesian Forces:  Max     0.045784098 RMS     0.013729126

 GradGradGradGradGradGradGradGradGradGradGradGradGradGradGradGradGradGrad
 Berny optimization.
 Internal  Forces:  Max     0.032024960 RMS     0.015252010
 Search for a saddle point.
 Step number   7 out of a maximum of  100
 All quantities printed in internal units (Hartrees-Bohrs-Radians)
 Swaping is turned off.
 Update second derivatives using D2CorX and points    3    4    5    6    7
 The second derivative matrix:
                          R1        R2        R3        R4        A1
           R1           0.40536
           R2           0.02724   0.06803
           R3           0.12864   0.01971   0.42984
           R4          -0.00573   0.00114  -0.01426   0.69238
           A1          -0.02445  -0.02157  -0.04566   0.00011   0.04612
           A2           0.04172   0.03532   0.08335   0.00332  -0.05226
           A3           0.00454   0.00763  -0.02570   0.00786   0.00962
           D1           0.00000   0.00000   0.00000   0.00000   0.00000
           D2           0.00000   0.00000   0.00000   0.00000   0.00000
                          A2        A3        D1        D2
           A2           0.21960
           A3          -0.00221  -0.12366
           D1           0.00000   0.00000  -0.02761
           D2           0.00000   0.00000   0.00621  -0.00293
     Eigenvalues ---   -0.12593  -0.02909  -0.00146   0.02718   0.06189
     Eigenvalues ---    0.20383   0.29682   0.57975   0.69415
 Eigenvectors required to have negative eigenvalues:
                          A3        A1        R3        R2        R1
   1                    0.99607  -0.05331   0.04866  -0.04604  -0.01999
                          R4        A2        D1        D2
   1                   -0.00876  -0.00624   0.00000   0.00000
 RFO step:  Lambda0=1.549735915D-05 Lambda=-2.90853642D-02.
 Linear search not attempted -- option 19 set.
 Maximum step size (   0.300) exceeded in Quadratic search.
    -- Step size scaled by   0.312
 Iteration  1 RMS(Cart)=  0.04214697 RMS(Int)=  0.03221654
 Iteration  2 RMS(Cart)=  0.00596497 RMS(Int)=  0.00028589
 Iteration  3 RMS(Cart)=  0.00038042 RMS(Int)=  0.00000028
 Iteration  4 RMS(Cart)=  0.00000017 RMS(Int)=  0.00000000
 ClnCor:  largest displacement from symmetrization is 3.82D-02 for atom     2.
 Variable       Old X    -DE/DX   Delta X   Delta X   Delta X     New X
                                 (Linear)    (Quad)   (Total)
    R1        2.27622  -0.01387   0.00000  -0.02007  -0.02091   2.25531
    R2        3.04190   0.03202   0.00000   0.09856   0.09818   3.14008
    R3        1.78088   0.01224   0.00000   0.00545   0.00544   1.78631
    R4        1.76742   0.00436   0.00000   0.00164   0.00163   1.76905
    A1        3.00941  -0.01312   0.00000  -0.02087  -0.01481   2.99460
    A2        2.28033   0.02308   0.00000   0.01212   0.01230   2.29263
    A3        3.11016   0.00149   0.00000  -0.00062  -0.00053   3.10963
    D1        3.14159   0.00000   0.00000  -0.26399   0.00000   3.14159
    D2        0.00000   0.00000   0.00000  -0.09786   0.00000   0.00000
         Item               Value     Threshold  Converged?
 Maximum Force            0.032025     0.000450     NO 
 RMS     Force            0.015252     0.000300     NO 
 Maximum Displacement     0.071516     0.001800     NO 
 RMS     Displacement     0.039469     0.001200     NO 
 Predicted change in Energy=-3.525347D-03
 GradGradGradGradGradGradGradGradGradGradGradGradGradGradGradGradGradGrad

                          Input orientation:                          
 ---------------------------------------------------------------------
 Center     Atomic      Atomic             Coordinates (Angstroms)
 Number     Number       Type             X           Y           Z
 ---------------------------------------------------------------------
      1          8           0       -2.586470    1.344151    0.000000
      2          8           0       -1.463669    0.939595    0.000000
      3          1           0        0.165251    0.611362    0.000000
      4          8           0        0.637394   -0.207558    0.000000
      5          1           0        1.078815   -1.033095    0.000000
 ---------------------------------------------------------------------
                    Distance matrix (angstroms):
                    1          2          3          4          5
     1  O    0.000000
     2  O    1.193460   0.000000
     3  H    2.847621   1.661661   0.000000
     4  O    3.577862   2.393831   0.945277   0.000000
     5  H    4.368708   3.218032   1.881179   0.936143   0.000000
 Stoichiometry    H2O3
 Framework group  CS[SG(H2O3)]
 Deg. of freedom     7
 Full point group                 CS      NOp   2
 Largest Abelian subgroup         CS      NOp   2
 Largest concise Abelian subgroup C1      NOp   1
                         Standard orientation:                         
 ---------------------------------------------------------------------
 Center     Atomic      Atomic             Coordinates (Angstroms)
 Number     Number       Type             X           Y           Z
 ---------------------------------------------------------------------
      1          8           0       -0.302297    1.714371    0.000000
      2          8           0        0.000000    0.559831    0.000000
      3          1           0        0.651782   -0.968664    0.000000
      4          8           0        0.244122   -1.821519    0.000000
      5          1           0       -0.186387   -2.652799    0.000000
 ---------------------------------------------------------------------
 Rotational constants (GHZ):    692.6780038      4.3939287      4.3662320
 Standard basis: 6-31+G(d,p) (6D, 7F)
 There are    50 symmetry adapted basis functions of A'  symmetry.
 There are    17 symmetry adapted basis functions of A"  symmetry.
 Integral buffers will be    262144 words long.
 Raffenetti 2 integral format.
 Two-electron integral symmetry is turned on.
    67 basis functions,   110 primitive gaussians,    67 cartesian basis functions
    13 alpha electrons       13 beta electrons
       nuclear repulsion energy        67.5919099439 Hartrees.
 NAtoms=    5 NActive=    5 NUniq=    5 SFac= 7.50D-01 NAtFMM=   80 NAOKFM=F Big=F
 One-electron integrals computed using PRISM.
 NBasis=    67 RedAO= T  NBF=    50    17
 NBsUse=    67 1.00D-06 NBFU=    50    17
 Initial guess read from the read-write file.
 B after Tr=     0.000000    0.000000    0.000000
         Rot=    1.000000    0.000000    0.000000    0.000000 Ang=   0.00 deg.
 Initial guess orbital symmetries:
       Occupied  (A') (A') (A') (A') (A') (A') (A') (A') (A') (A")
                 (A') (A") (A')
       Virtual   (A") (A') (A') (A') (A") (A') (A') (A") (A') (A')
                 (A") (A') (A') (A') (A') (A') (A') (A') (A") (A')
                 (A') (A") (A') (A') (A") (A') (A') (A") (A') (A')
[...]
     15 vectors produced by pass  1 Test12= 3.90D-15 5.56D-09 XBig12= 4.40D+00 7.66D-01.
     15 vectors produced by pass  2 Test12= 3.90D-15 5.56D-09 XBig12= 3.48D-02 5.45D-02.
     15 vectors produced by pass  3 Test12= 3.90D-15 5.56D-09 XBig12= 5.22D-04 8.04D-03.
     15 vectors produced by pass  4 Test12= 3.90D-15 5.56D-09 XBig12= 4.34D-06 7.20D-04.
     15 vectors produced by pass  5 Test12= 3.90D-15 5.56D-09 XBig12= 3.04D-08 3.91D-05.
      8 vectors produced by pass  6 Test12= 3.90D-15 5.56D-09 XBig12= 6.62D-11 1.87D-06.
      3 vectors produced by pass  7 Test12= 3.90D-15 5.56D-09 XBig12= 1.59D-13 6.90D-08.
 Inverted reduced A of dimension   101 with in-core refinement.
 Isotropic polarizability for W=    0.000000       15.35 Bohr**3.
 End of Minotr Frequency-dependent properties file   721 does not exist.
 End of Minotr Frequency-dependent properties file   722 does not exist.

 **********************************************************************

            Population analysis using the SCF density.

 **********************************************************************

 Orbital symmetries:
       Occupied  (A) (A) (A) (A) (A) (A) (A) (A) (A) (A) (A) (A)
                 (A)
       Virtual   (A) (A) (A) (A) (A) (A) (A) (A) (A) (A) (A) (A)
                 (A) (A) (A) (A) (A) (A) (A) (A) (A) (A) (A) (A)
                 (A) (A) (A) (A) (A) (A) (A) (A) (A) (A) (A) (A)
                 (A) (A) (A) (A) (A) (A) (A) (A) (A) (A) (A) (A)
                 (A) (A) (A) (A) (A) (A)
 The electronic state is 1-A.
 Alpha  occ. eigenvalues --  -19.83950 -19.83620 -19.60997  -1.46026  -1.09895
 Alpha  occ. eigenvalues --   -0.93996  -0.68751  -0.64784  -0.64072  -0.62562
 Alpha  occ. eigenvalues --   -0.37644  -0.37641  -0.36571
 Alpha virt. eigenvalues --   -0.14002   0.07268   0.09713   0.10187   0.13191
 Alpha virt. eigenvalues --    0.16188   0.18841   0.20363   0.20605   0.21610
 Alpha virt. eigenvalues --    0.22214   0.26235   0.31331   0.33651   0.35200
 Alpha virt. eigenvalues --    0.42777   0.93791   1.03521   1.10306   1.11167
 Alpha virt. eigenvalues --    1.13596   1.17299   1.17481   1.20857   1.21797
 Alpha virt. eigenvalues --    1.23015   1.36217   1.38888   1.50384   1.51085
 Alpha virt. eigenvalues --    1.53324   1.54407   1.56277   1.60715   1.63923
 Alpha virt. eigenvalues --    1.81967   1.87201   1.87662   1.96355   2.01160
 Alpha virt. eigenvalues --    2.31025   2.33037   2.54456   2.60675   2.60895
 Alpha virt. eigenvalues --    2.69041   2.94997   3.06975   3.09995   3.41235
 Alpha virt. eigenvalues --    3.73632   3.79009   4.12676   5.61022
          Condensed to atoms (all electrons):
              1          2          3          4          5
     1  O    7.618209   0.346444  -0.012109   0.008473  -0.000065
     2  O    0.346444   7.653405   0.028262  -0.007324   0.001038
     3  H   -0.012109   0.028262   0.254523   0.299483  -0.017202
     4  O    0.008473  -0.007324   0.299483   8.276745   0.321033
     5  H   -0.000065   0.001038  -0.017202   0.321033   0.261054
 Mulliken atomic charges:
              1
     1  O    0.039049
     2  O   -0.021825
     3  H    0.447043
     4  O   -0.898409
     5  H    0.434142
 Sum of Mulliken atomic charges =   0.00000
 Mulliken charges with hydrogens summed into heavy atoms:
              1
     1  O    0.039049
     2  O   -0.021825
     4  O   -0.017224
 Sum of Mulliken charges with hydrogens summed into heavy atoms =   0.00000
 APT atomic charges:
              1
     1  O    0.039677
     2  O   -0.052824
     3  H    0.612371
     4  O   -1.127344
     5  H    0.528120
 Sum of APT charges=   0.00000
 APT Atomic charges with hydrogens summed into heavy atoms:
              1
     1  O    0.039677
     2  O   -0.052824
     3  H    0.000000
     4  O    0.013147
     5  H    0.000000
 Sum of APT charges=   0.00000
 Electronic spatial extent (au):  <R**2>=            263.5272
 Charge=              0.0000 electrons
 Dipole moment (field-independent basis, Debye):
    X=             -0.3957    Y=             -0.1210    Z=             -0.0016  Tot=              0.4138
 Quadrupole moment (field-independent basis, Debye-Ang):
   XX=            -14.1184   YY=            -17.6708   ZZ=            -17.1045
   XY=             -1.7338   XZ=             -0.0434   YZ=              0.0187
 Traceless Quadrupole moment (field-independent basis, Debye-Ang):
   XX=              2.1795   YY=             -1.3729   ZZ=             -0.8066
   XY=             -1.7338   XZ=             -0.0434   YZ=              0.0187
 Octapole moment (field-independent basis, Debye-Ang**2):
  XXX=             19.0180  YYY=             -0.1173  ZZZ=             -0.0034  XYY=             -0.7129
  XXY=             -8.0722  XXZ=             -0.0873  XZZ=             -4.1135  YZZ=              0.0368
  YYZ=             -0.0018  XYZ=              0.0178
 Hexadecapole moment (field-independent basis, Debye-Ang**3):
 XXXX=           -171.4240 YYYY=            -34.5246 ZZZZ=            -14.2019 XXXY=            -23.6360
 XXXZ=             -0.4165 YYYX=             -0.0661 YYYZ=              0.0215 ZZZX=             -0.0266
 ZZZY=              0.0097 XXYY=            -46.4200 XXZZ=            -45.2190 YYZZ=             -7.7993
 XXYZ=              0.0640 YYXZ=             -0.0202 ZZXY=             -0.0445
 N-N= 6.575026146321D+01 E-N=-6.658811058589D+02  KE= 2.247348364171D+02
  Exact polarizability:  17.289   2.031  17.388   0.003  -0.005  11.383
 Approx polarizability:  16.755   3.532  22.467  -0.014  -0.002  11.984
 Calling FoFJK, ICntrl=    100127 FMM=F ISym2X=0 I1Cent= 0 IOpClX= 0 NMat=1 NMatS=1 NMatT=0.
 Full mass-weighted force constant matrix:
 Low frequencies ----1543.2307-1535.8117    0.0014    0.0020    0.0025   15.5608
 Low frequencies ---   38.8117   55.9419  102.2244
 ******    2 imaginary frequencies (negative Signs) ****** 
 Diagonal vibrational polarizability:
        4.8473817       5.2819683       6.1966558
 Harmonic frequencies (cm**-1), IR intensities (KM/Mole), Raman scattering
 activities (A**4/AMU), depolarization ratios for plane and unpolarized
 incident light, reduced masses (AMU), force constants (mDyne/A),
 and normal coordinates:
                     1                      2                      3
                     A                      A                      A
 Frequencies -- -1543.2271             -1535.8111               101.8621
 Red. masses --     1.1263                 1.1302                 6.7398
 Frc consts  --     1.5804                 1.5706                 0.0412
 IR Inten    --   540.7124               526.6047                 0.1403
  Atom  AN      X      Y      Z        X      Y      Z        X      Y      Z
     1   8     0.00   0.00   0.00     0.00   0.00   0.00     0.46  -0.06   0.00
     2   8     0.00   0.00   0.00     0.00   0.00   0.00    -0.03   0.13   0.00
     3   1    -0.05  -0.12   0.69     0.26   0.62   0.13    -0.23   0.29  -0.01
     4   8     0.01   0.02  -0.09    -0.04  -0.08  -0.02    -0.38  -0.07   0.00
     5   1    -0.05  -0.12   0.70     0.28   0.66   0.13    -0.54  -0.44   0.01
                     4                      5                      6
                     A                      A                      A
 Frequencies --   195.5425               323.3640               409.3759
 Red. masses --     7.9131                 1.0472                 1.1024
 Frc consts  --     0.1783                 0.0645                 0.1088
 IR Inten    --     2.6673                 0.2946                 1.0538
  Atom  AN      X      Y      Z        X      Y      Z        X      Y      Z
     1   8    -0.15   0.07   0.00     0.00   0.00  -0.01     0.05   0.01   0.00
     2   8     0.52  -0.20   0.00     0.00   0.00   0.04    -0.03   0.04   0.00
     3   1    -0.48  -0.23   0.02     0.01   0.03  -0.74    -0.29  -0.70  -0.03
     4   8    -0.33   0.12   0.00     0.00   0.00  -0.03    -0.01  -0.04   0.00
     5   1    -0.18   0.47  -0.01    -0.01  -0.02   0.67     0.26   0.59   0.03
                     7                      8                      9
                     A                      A                      A
 Frequencies --  1777.3787              3995.3596              4428.7242
 Red. masses --    15.9851                 1.0114                 1.1224
 Frc consts  --    29.7527                 9.5118                12.9700
 IR Inten    --     0.3334               187.2051              1022.7095
  Atom  AN      X      Y      Z        X      Y      Z        X      Y      Z
     1   8     0.26   0.66   0.00     0.00   0.00   0.00     0.00   0.00   0.00
     2   8    -0.26  -0.66   0.00     0.00   0.00   0.00     0.00   0.00   0.00
     3   1    -0.02  -0.02   0.00     0.75  -0.32   0.00    -0.51   0.22   0.00
     4   8     0.00   0.00   0.00    -0.01   0.01   0.00     0.08  -0.03   0.00
     5   1     0.01   0.01   0.00    -0.53   0.23   0.00    -0.76   0.32   0.01

 -------------------
 - Thermochemistry -
 -------------------
 Temperature   298.150 Kelvin.  Pressure   1.00000 Atm.
 Atom     1 has atomic number  8 and mass  15.99491
 Atom     2 has atomic number  8 and mass  15.99491
 Atom     3 has atomic number  1 and mass   1.00783
 Atom     4 has atomic number  8 and mass  15.99491
 Atom     5 has atomic number  1 and mass   1.00783
 Molecular mass:    50.00039 amu.
 Principal axes and moments of inertia in atomic units:
                           1         2         3
     Eigenvalues --    36.31897 386.26226 422.58073
           X            0.99997  -0.00817  -0.00008
           Y            0.00817   0.99997   0.00040
           Z            0.00008  -0.00040   1.00000
 This molecule is an asymmetric top.
 Rotational symmetry number  1.
 Rotational temperatures (Kelvin)      2.38481     0.22424     0.20496
 Rotational constants (GHZ):          49.69142     4.67232     4.27076
    2 imaginary frequencies ignored.
 Zero-point vibrational energy      67179.9 (Joules/Mol)
                                   16.05639 (Kcal/Mol)
 Warning -- explicit consideration of   4 degrees of freedom as
           vibrations may cause significant error
 Vibrational temperatures:    146.56   281.34   465.25   589.00  2557.25
          (Kelvin)           5748.42  6371.94
 
 Zero-point correction=                           0.025587 (Hartree/Particle)
 Thermal correction to Energy=                    0.030412
 Thermal correction to Enthalpy=                  0.031357
 Thermal correction to Gibbs Free Energy=        -0.001318
 Sum of electronic and zero-point Energies=           -226.533444
 Sum of electronic and thermal Energies=              -226.528619
 Sum of electronic and thermal Enthalpies=            -226.527675
 Sum of electronic and thermal Free Energies=         -226.560349
 
                     E (Thermal)             CV                S
                      KCal/Mol        Cal/Mol-Kelvin    Cal/Mol-Kelvin
 Total                   19.084             12.862             68.769
 Electronic               0.000              0.000              0.000
 Translational            0.889              2.981             37.652
 Rotational               0.889              2.981             23.298
 Vibrational             17.307              6.900              7.818
 Vibration     1          0.604              1.948              3.418
 Vibration     2          0.636              1.846              2.175
 Vibration     3          0.708              1.629              1.293
 Vibration     4          0.774              1.450              0.929
                       Q            Log10(Q)             Ln(Q)
 Total Bot       0.403700D+01          0.606059          1.395502
 Total V=0       0.237388D+13         12.375459         28.495548
 Vib (Bot)       0.105398D-10        -10.977166        -25.275858
 Vib (Bot)    1  0.201403D+01          0.304066          0.700137
 Vib (Bot)    2  0.102142D+01          0.009206          0.021197
 Vib (Bot)    3  0.580161D+00         -0.236452         -0.544450
 Vib (Bot)    4  0.432377D+00         -0.364137         -0.838457
 Vib (V=0)       0.619776D+01          0.792235          1.824187
 Vib (V=0)    1  0.257517D+01          0.410805          0.945914
 Vib (V=0)    2  0.163724D+01          0.214111          0.493010
 Vib (V=0)    3  0.126589D+01          0.102396          0.235775
 Vib (V=0)    4  0.116102D+01          0.064840          0.149301
 Electronic      0.100000D+01          0.000000          0.000000
 Translational   0.138968D+08          7.142915         16.447170
 Rotational      0.275619D+05          4.440309         10.224190
 ***** Axes restored to original set *****
 -------------------------------------------------------------------
 Center     Atomic                   Forces (Hartrees/Bohr)
 Number     Number              X              Y              Z
 -------------------------------------------------------------------
      1        8           0.000011956    0.000081439   -0.000209363
      2        8           0.000019120   -0.000076250    0.000122673
      3        1          -0.000189898    0.000166851    0.000003911
      4        8           0.000163875   -0.000149429    0.000020903
      5        1          -0.000005052   -0.000022610    0.000061876
 -------------------------------------------------------------------
 Cartesian Forces:  Max     0.000209363 RMS     0.000112469

 GradGradGradGradGradGradGradGradGradGradGradGradGradGradGradGradGradGrad
 Berny optimization.
 Internal  Forces:  Max     0.000198811 RMS     0.000094376
 Search for a saddle point.
 Step number   1 out of a maximum of    2
 All quantities printed in internal units (Hartrees-Bohrs-Radians)
 Swaping is turned off.
 Second derivative matrix not updated -- analytic derivatives used.
 The second derivative matrix:
                          R1        R2        R3        R4        A1
           R1           0.95740
           R2          -0.00135   0.00959
           R3           0.00234   0.01276   0.62923
           R4           0.00054  -0.00018  -0.02349   0.65987
           A1           0.00377   0.00029  -0.00350  -0.00063   0.03499
           A2          -0.00607   0.00147   0.00070  -0.00049  -0.00038
           A3          -0.00207   0.00093   0.00049  -0.00104  -0.00053
           D1          -0.00005   0.00000   0.00000   0.00001   0.00002
           D2           0.00000   0.00000   0.00000   0.00000   0.00000
                          A2        A3        D1        D2
           A2           0.01302
           A3           0.00664  -0.12522
           D1          -0.00008  -0.00018   0.00078
           D2           0.00000   0.00001   0.00001   0.00000
     Eigenvalues ---   -0.12555   0.00000   0.00078   0.00883   0.01379
     Eigenvalues ---    0.03496   0.61671   0.67266   0.95748
 Eigenvectors required to have negative eigenvalues:
                          A3        A2        R2        A1        R1
   1                    0.99883  -0.04770  -0.00627   0.00317   0.00162
                          D1        R4        R3        D2
   1                    0.00141   0.00128  -0.00045  -0.00006
 Eigenvalue     2 is  -1.73D-06 should be greater than     0.000000 Eigenvector:
                          D2        D1        A2        A3        A1
   1                    0.99998  -0.00692  -0.00019   0.00006   0.00001
                          R2        R1        R3        R4
   1                    0.00000   0.00000   0.00000   0.00000
 Angle between quadratic step and forces=  84.89 degrees.
 Linear search not attempted -- option 19 set.
 Iteration  1 RMS(Cart)=  0.00492674 RMS(Int)=  0.00060824
 Iteration  2 RMS(Cart)=  0.00065510 RMS(Int)=  0.00000408
 Iteration  3 RMS(Cart)=  0.00000070 RMS(Int)=  0.00000000
 Variable       Old X    -DE/DX   Delta X   Delta X   Delta X     New X
                                 (Linear)    (Quad)   (Total)
    R1        2.25920   0.00016   0.00000   0.00022   0.00022   2.25942
    R2        3.67246  -0.00002   0.00000  -0.00410  -0.00410   3.66836
    R3        1.78640   0.00020   0.00000   0.00039   0.00039   1.78679
    R4        1.77331   0.00000   0.00000   0.00001   0.00001   1.77333
    A1        1.81759  -0.00002   0.00000  -0.00046  -0.00046   1.81713
    A2        2.87851   0.00012   0.00000   0.00900   0.00900   2.88751
    A3        3.13784  -0.00001   0.00000   0.00057   0.00057   3.13841
    D1        0.03571  -0.00001   0.00000  -0.01409  -0.01409   0.02161
    D2        0.08414   0.00000   0.00000   0.05297   0.05297   0.13710
         Item               Value     Threshold  Converged?
 Maximum Force            0.000199     0.000450     YES
 RMS     Force            0.000094     0.000300     YES
 Maximum Displacement     0.008938     0.001800     NO 
 RMS     Displacement     0.005580     0.001200     NO 
 Predicted change in Energy=-7.068446D-07
 GradGradGradGradGradGradGradGradGradGradGradGradGradGradGradGradGradGrad

 1|1|UNPC-DESKTOP-319GPER|Freq|RM062X|6-31+G(d,p)|H2O3|SAGAD|09-Feb-202
 1|0||#N Geom=AllCheck Guess=TCheck SCRF=Check GenChk RM062X/6-31+G(d,p
 ) Freq||ts OOH vs OH||0,1|O,-2.1000441863,1.4941869188,-0.5142229585|O
 ,-1.9207396774,0.949066171,0.5345662462|H,-0.2063952803,0.0592357103,0
 .3201636296|O,0.6195152819,-0.264375983,-0.0066119735|H,1.4389862021,-
 0.5836589071,-0.3338949438||Version=IA32W-G09RevA.02|State=1-A|HF=-226
 .5590317|RMSD=3.474e-010|RMSF=1.125e-004|ZeroPoint=0.0255875|Thermal=0
 .0304125|Dipole=-0.1257532,0.0920662,-0.0470836|DipoleDeriv=0.0233821,
 0.0010038,0.006706,0.0148961,0.0297483,-0.0191787,-0.0263351,-0.000054
 3,0.0658998,-0.1034872,0.0708753,-0.0221166,0.047134,-0.0324155,0.0245
 473,0.0358959,-0.0088737,-0.022568,0.820766,-0.1975053,0.0116835,-0.15
 38061,0.5656421,0.005773,-0.0916525,0.0645335,0.4507045,-1.2953117,0.1
 443965,0.0156286,0.1086593,-1.081614,-0.018383,0.0979662,-0.0650245,-1
 .0051068,0.5546509,-0.0187704,-0.0119015,-0.0168832,0.5186392,0.007241
 4,-0.0158745,0.0094191,0.5110706|Polar=15.3673553,-2.5541032,13.955095
 6,0.6823835,-2.6508489,16.7377431|PG=C01 [X(H2O3)]|NImag=2||0.02748815
 ,-0.06807445,0.20082497,0.12476096,-0.38240680,0.73761388,-0.02791473,
 0.06854732,-0.12608915,0.03610553,0.06659586,-0.20046312,0.38219854,-0
 .07029759,0.20332878,-0.12152391,0.37955271,-0.73583398,0.12171197,-0.
 37962337,0.73747086,-0.00039358,-0.00066578,0.00320028,0.00248658,-0.0
 0096719,-0.00448153,0.45896020,0.00223259,-0.00048034,-0.00000736,-0.0
 0326005,-0.00127198,0.00142710,-0.19430267,0.03905974,-0.00359809,0.00
 390643,-0.00353857,0.00109801,-0.00176917,0.00017034,-0.19708085,0.075
 61990,0.04367462,0.00069423,0.00023606,-0.00157350,-0.01076683,0.00447
 826,0.00359352,-0.46885258,0.21467994,0.21987022,0.98075906,-0.0003719
 7,0.00003497,0.00031354,0.00408848,-0.00211811,-0.00116987,0.21568857,
 -0.00271765,-0.08591688,-0.44585387,0.01236070,-0.00013832,-0.00049460
 ,0.00128793,0.00419303,-0.00155208,-0.00225151,0.21779713,-0.08470790,
 -0.00563112,-0.45522419,0.17782494,0.01860979,0.00012594,-0.00004315,-
 0.00029859,0.00008945,0.00019066,0.00069995,0.00779937,-0.01934981,-0.
 02028929,-0.50183388,0.22644880,0.23337234,0.49381913,-0.00038202,0.00
 008354,-0.00009792,0.00092184,0.00052443,-0.00018658,-0.01975293,-0.03
 458976,0.00815973,0.22645961,-0.00755991,-0.09107037,-0.20724650,0.041
 54171,0.00049935,-0.00055774,0.00047074,-0.00091385,0.00074608,0.00044
 429,-0.01943503,0.00766827,-0.03467527,0.23333395,-0.09105174,-0.01201
 509,-0.21348442,0.08319514,0.04577534||-0.00001196,-0.00008144,0.00020
 936,-0.00001912,0.00007625,-0.00012267,0.00018990,-0.00016685,-0.00000
 391,-0.00016387,0.00014943,-0.00002090,0.00000505,0.00002261,-0.000061
 88|||@


 The mind is not a vessel to be filled but a fire to be kindled.
                                  -- Plutarch
 Job cpu time:  0 days  0 hours  0 minutes 11.0 seconds.
 File lengths (MBytes):  RWF=      6 Int=      0 D2E=      0 Chk=      1 Scr=      1
 Normal termination of Gaussian 09 at Tue Feb 09 16:59:42 2021.
