 Entering Link 1 = C:\G09W\l1.exe PID=     10392.
  
 Copyright (c) 1988,1990,1992,1993,1995,1998,2003,2009, Gaussian, Inc.
                  All Rights Reserved.
  
 This is part of the Gaussian(R) 09 program.  It is based on
 the Gaussian(R) 03 system (copyright 2003, Gaussian, Inc.),
 the Gaussian(R) 98 system (copyright 1998, Gaussian, Inc.),
 the Gaussian(R) 94 system (copyright 1995, Gaussian, Inc.),
 the Gaussian 92(TM) system (copyright 1992, Gaussian, Inc.),
 the Gaussian 90(TM) system (copyright 1990, Gaussian, Inc.),
 the Gaussian 88(TM) system (copyright 1988, Gaussian, Inc.),
 the Gaussian 86(TM) system (copyright 1986, Carnegie Mellon
 University), and the Gaussian 82(TM) system (copyright 1983,
 Carnegie Mellon University). Gaussian is a federally registered
 trademark of Gaussian, Inc.
  
 This software contains proprietary and confidential information,
 including trade secrets, belonging to Gaussian, Inc.
  
 This software is provided under written license and may be
 used, copied, transmitted, or stored only in accord with that
 written license.
  
 The following legend is applicable only to US Government
 contracts under FAR:
  
                    RESTRICTED RIGHTS LEGEND
  
 Use, reproduction and disclosure by the US Government is
 subject to restrictions as set forth in subparagraphs (a)
 and (c) of the Commercial Computer Software - Restricted
 Rights clause in FAR 52.227-19.
  
 Gaussian, Inc.
 340 Quinnipiac St., Bldg. 40, Wallingford CT 06492
  
  
 ---------------------------------------------------------------
 Warning -- This program may not be used in any manner that
 competes with the business of Gaussian, Inc. or will provide
 assistance to any competitor of Gaussian, Inc.  The licensee
 of this program is prohibited from giving any competitor of
 Gaussian, Inc. access to this program.  By using this program,
 the user acknowledges that Gaussian, Inc. is engaged in the
 business of creating and licensing software in the field of
 computational chemistry and represents and warrants to the
 licensee that it is not a competitor of Gaussian, Inc. and that
 it will not use this program in any manner prohibited above.
 ---------------------------------------------------------------
  

 Cite this work as:
 Gaussian 09, Revision A.02,
 M. J. Frisch, G. W. Trucks, H. B. Schlegel, G. E. Scuseria, 
 M. A. Robb, J. R. Cheeseman, G. Scalmani, V. Barone, B. Mennucci, 
 G. A. Petersson, H. Nakatsuji, M. Caricato, X. Li, H. P. Hratchian, 
 A. F. Izmaylov, J. Bloino, G. Zheng, J. L. Sonnenberg, M. Hada, 
 M. Ehara, K. Toyota, R. Fukuda, J. Hasegawa, M. Ishida, T. Nakajima, 
 Y. Honda, O. Kitao, H. Nakai, T. Vreven, J. A. Montgomery, Jr., 
 J. E. Peralta, F. Ogliaro, M. Bearpark, J. J. Heyd, E. Brothers, 
 K. N. Kudin, V. N. Staroverov, R. Kobayashi, J. Normand, 
 K. Raghavachari, A. Rendell, J. C. Burant, S. S. Iyengar, J. Tomasi, 
 M. Cossi, N. Rega, J. M. Millam, M. Klene, J. E. Knox, J. B. Cross, 
 V. Bakken, C. Adamo, J. Jaramillo, R. Gomperts, R. E. Stratmann, 
 O. Yazyev, A. J. Austin, R. Cammi, C. Pomelli, J. W. Ochterski, 
 R. L. Martin, K. Morokuma, V. G. Zakrzewski, G. A. Voth, 
 P. Salvador, J. J. Dannenberg, S. Dapprich, A. D. Daniels, 
 O. Farkas, J. B. Foresman, J. V. Ortiz, J. Cioslowski, 
 and D. J. Fox, Gaussian, Inc., Wallingford CT, 2009.
 
 ******************************************
 Gaussian 09:  IA32W-G09RevA.02 11-Jun-2009
                09-Feb-2021 
 ******************************************
 %chk=D:\Documents\rayGit\FQ\quimicaComputacional\proyecto\decompositionHydrogenP
 eroxide\descompositionByRadicals\gasPhase\step4\ts\Q2ST\ts\martes\top\backup\r\r
 3\theGoodONE\tsiop.chk
 %mem=1500MB
 %nprocshared=4
 Will use up to    4 processors via shared memory.
 ----------------------------------------------------------------------
 # opt=(readfc,ts,noeigen,maxcycles=200) geom=check guess=check freq=no
 raman 6-31+g(d,p) iop(1/8=3) m062x
 ----------------------------------------------------------------------
 1/5=1,6=200,8=3,10=3,11=1,14=-1,18=20,26=3,29=2,38=1/1,3;
 2/9=110,12=2,40=1/2;
 3/5=1,6=6,7=111,11=2,14=-4,16=1,25=1,30=1,71=1,74=-55,116=-2/1,2,3;
 4/5=1/1;
 5/5=2,38=6/2;
 6/7=2,8=2,9=2,10=2,28=1/1;
 7//1,2,3,16;
 1/5=1,6=200,8=3,11=1,14=-1,18=20/3(2);
 2/9=110/2;
 99//99;
 2/9=110/2;
 3/5=1,6=6,7=111,11=2,14=-2,16=1,25=1,30=1,71=1,74=-55/1,2,3;
 4/5=5,16=3/1;
 5/5=2,38=5/2;
 7//1,2,3,16;
 1/5=1,6=200,8=3,11=1,14=-1,18=20/3(-5);
 2/9=110/2;
 6/7=2,8=2,9=2,10=2,19=2,28=1/1;
 99/9=1/99;
 ------------
 ts OOH vs OH
 ------------
 Redundant internal coordinates taken from checkpoint file:
 D:\Documents\rayGit\FQ\quimicaComputacional\proyecto\decompositionHydrogenPeroxide\descompositionByRadicals\gasPhase\step4\ts\Q2ST\ts\martes\top\backup\r\r3\theGoodONE\tsiop.chk
 Charge =  0 Multiplicity = 1
 O,0,-2.1909072947,1.8485268439,0.
 O,0,-2.0333770433,0.6633251989,0.
 H,0,-0.1861963683,0.0751489274,0.
 O,0,0.6877346618,-0.2859614867,0.
 H,0,1.5540683846,-0.6465855736,0.
 Recover connectivity data from disk.

 GradGradGradGradGradGradGradGradGradGradGradGradGradGradGradGradGradGrad
 Berny optimization.
 Initialization pass.
 Force constant matrix read from checkpoint file:
 D:\Documents\rayGit\FQ\quimicaComputacional\proyecto\decompositionHydrogenPeroxi
 de\descompositionByRadicals\gasPhase\step4\ts\Q2ST\ts\martes\top\backup\r\r3\the
 GoodONE\tsiop.chk
                           ----------------------------
                           !    Initial Parameters    !
                           ! (Angstroms and Degrees)  !
 --------------------------                            --------------------------
 ! Name  Definition              Value          Derivative Info.                !
 --------------------------------------------------------------------------------
 ! R1    R(1,2)                  1.1956         D2E/DX2 =    0.5391             !
 ! R2    R(2,3)                  1.9386         D2E/DX2 =    0.0607             !
 ! R3    R(3,4)                  0.9456         D2E/DX2 =    0.3605             !
 ! R4    R(4,5)                  0.9384         D2E/DX2 =    0.6921             !
 ! A1    A(1,2,3)              115.2335         D2E/DX2 =    0.0633             !
 ! A2    A(2,3,4)              175.2119         D2E/DX2 =    0.014              !
 ! A3    A(3,4,5)              179.8503         D2E/DX2 =   -0.1084             !
 ! D1    D(1,2,3,4)            180.0            D2E/DX2 =   -0.0276             !
 ! D2    D(2,3,4,5)              0.0            D2E/DX2 =   -0.0029             !
 --------------------------------------------------------------------------------
 Trust Radius=3.00D-02 FncErr=1.00D-07 GrdErr=1.00D-06
 Number of steps in this run= 100 maximum allowed number of steps= 100.
 Search for a saddle point of order  1.
 GradGradGradGradGradGradGradGradGradGradGradGradGradGradGradGradGradGrad

                          Input orientation:                          
 ---------------------------------------------------------------------
 Center     Atomic      Atomic             Coordinates (Angstroms)
 Number     Number       Type             X           Y           Z
 ---------------------------------------------------------------------
      1          8           0       -2.190907    1.848527    0.000000
      2          8           0       -2.033377    0.663325    0.000000
      3          1           0       -0.186196    0.075149    0.000000
      4          8           0        0.687735   -0.285961    0.000000
      5          1           0        1.554068   -0.646586    0.000000
 ---------------------------------------------------------------------
                    Distance matrix (angstroms):
                    1          2          3          4          5
     1  O    0.000000
     2  O    1.195625   0.000000
     3  H    2.676515   1.938563   0.000000
     4  O    3.583660   2.881943   0.945598   0.000000
     5  H    4.500048   3.819114   1.883991   0.938394   0.000000
 Stoichiometry    H2O3
 Framework group  CS[SG(H2O3)]
 Deg. of freedom     7
 Full point group                 CS      NOp   2
 Largest Abelian subgroup         CS      NOp   2
 Largest concise Abelian subgroup C1      NOp   1
                         Standard orientation:                         
 ---------------------------------------------------------------------
 Center     Atomic      Atomic             Coordinates (Angstroms)
 Number     Number       Type             X           Y           Z
 ---------------------------------------------------------------------
      1          8           0        1.185136    1.155841    0.000000
      2          8           0        0.000000    0.997818    0.000000
      3          1           0       -0.587410   -0.849606    0.000000
      4          8           0       -0.948157   -1.723687    0.000000
      5          1           0       -1.308422   -2.590170    0.000000
 ---------------------------------------------------------------------
 Rotational constants (GHZ):     70.3199381      4.0844216      3.8602076
 Standard basis: 6-31+G(d,p) (6D, 7F)
 There are    50 symmetry adapted basis functions of A'  symmetry.
 There are    17 symmetry adapted basis functions of A"  symmetry.
 Integral buffers will be    262144 words long.
 Raffenetti 2 integral format.
 Two-electron integral symmetry is turned on.
    67 basis functions,   110 primitive gaussians,    67 cartesian basis functions
    13 alpha electrons       13 beta electrons
       nuclear repulsion energy        64.6120241009 Hartrees.
 NAtoms=    5 NActive=    5 NUniq=    5 SFac= 7.50D-01 NAtFMM=   80 NAOKFM=F Big=F
 One-electron integrals computed using PRISM.
 NBasis=    67 RedAO= T  NBF=    50    17
 NBsUse=    67 1.00D-06 NBFU=    50    17
 Initial guess read from the checkpoint file:  D:\Documents\rayGit\FQ\quimicaComp
 utacional\proyecto\decompositionHydrogenPeroxide\descompositionByRadicals\gasPha
 se\step4\ts\Q2ST\ts\martes\top\backup\r\r3\theGoodONE\tsiop.chk
 B after Tr=     0.000000    0.000000    0.000000
         Rot=    1.000000    0.000000    0.000000    0.000000 Ang=   0.00 deg.
 Initial guess orbital symmetries:
       Occupied  (A') (A') (A') (A') (A') (A') (A') (A') (A') (A")
                 (A') (A") (A')
       Virtual   (A") (A') (A') (A') (A") (A') (A') (A") (A') (A')
                 (A") (A') (A') (A') (A') (A') (A') (A') (A") (A')
                 (A') (A') (A") (A') (A") (A') (A') (A') (A") (A')
                 (A") (A') (A") (A') (A') (A') (A") (A') (A") (A')
                 (A") (A') (A') (A") (A') (A') (A') (A") (A') (A')
                 (A') (A') (A') (A')
 Requested convergence on RMS density matrix=1.00D-08 within 128 cycles.
 Requested convergence on MAX density matrix=1.00D-06.
 Requested convergence on             energy=1.00D-06.
 No special actions if energy rises.
 Keep R1 ints in memory in canonical form, NReq=3551244.
 SCF Done:  E(RM062X) =  -226.558928051     A.U. after    1 cycles
             Convg  =    0.3586D-09             -V/T =  2.0081

 **********************************************************************

            Population analysis using the SCF density.

 **********************************************************************

 Orbital symmetries:
       Occupied  (A') (A') (A') (A') (A') (A') (A') (A') (A') (A")
                 (A') (A") (A')
       Virtual   (A") (A') (A') (A') (A") (A') (A') (A") (A') (A')
                 (A") (A') (A') (A') (A') (A') (A') (A') (A") (A')
                 (A') (A') (A") (A') (A") (A') (A') (A') (A") (A')
                 (A") (A') (A") (A') (A') (A') (A") (A') (A") (A')
                 (A") (A') (A') (A") (A') (A') (A') (A") (A') (A')
                 (A') (A') (A') (A')
 The electronic state is 1-A'.
 Alpha  occ. eigenvalues --  -19.84117 -19.83801 -19.60988  -1.46167  -1.09888
 Alpha  occ. eigenvalues --   -0.94204  -0.68686  -0.64909  -0.64335  -0.62725
 Alpha  occ. eigenvalues --   -0.37640  -0.37631  -0.36738
 Alpha virt. eigenvalues --   -0.14187   0.07284   0.09433   0.10928   0.13010
 Alpha virt. eigenvalues --    0.14687   0.18206   0.20049   0.21479   0.21876
 Alpha virt. eigenvalues --    0.23178   0.25242   0.32049   0.34130   0.35519
 Alpha virt. eigenvalues --    0.43146   0.94376   1.03358   1.10093   1.11263
 Alpha virt. eigenvalues --    1.13230   1.16471   1.17350   1.21834   1.21871
 Alpha virt. eigenvalues --    1.22770   1.35890   1.40166   1.50532   1.51502
 Alpha virt. eigenvalues --    1.53119   1.55504   1.55961   1.57357   1.63014
 Alpha virt. eigenvalues --    1.85379   1.87183   1.87405   1.96200   2.04261
 Alpha virt. eigenvalues --    2.31094   2.31313   2.54428   2.60474   2.62357
 Alpha virt. eigenvalues --    2.67310   2.94060   3.06963   3.10144   3.40658
 Alpha virt. eigenvalues --    3.71443   3.81877   4.12107   5.61668
          Condensed to atoms (all electrons):
              1          2          3          4          5
     1  O    7.627595   0.342430  -0.007983   0.006323  -0.000028
     2  O    0.342430   7.650114   0.025994  -0.003756   0.001085
     3  H   -0.007983   0.025994   0.250275   0.297238  -0.017144
     4  O    0.006323  -0.003756   0.297238   8.282173   0.320277
     5  H   -0.000028   0.001085  -0.017144   0.320277   0.260973
 Mulliken atomic charges:
              1
     1  O    0.031663
     2  O   -0.015867
     3  H    0.451620
     4  O   -0.902255
     5  H    0.434838
 Sum of Mulliken atomic charges =   0.00000
 Mulliken charges with hydrogens summed into heavy atoms:
              1
     1  O    0.031663
     2  O   -0.015867
     4  O   -0.015796
 Sum of Mulliken charges with hydrogens summed into heavy atoms =   0.00000
 Electronic spatial extent (au):  <R**2>=            287.4840
 Charge=              0.0000 electrons
 Dipole moment (field-independent basis, Debye):
    X=              0.2588    Y=              0.3399    Z=              0.0000  Tot=              0.4272
 Quadrupole moment (field-independent basis, Debye-Ang):
   XX=            -17.5545   YY=            -14.1711   ZZ=            -17.1030
   XY=              2.0916   XZ=              0.0000   YZ=              0.0000
 Traceless Quadrupole moment (field-independent basis, Debye-Ang):
   XX=             -1.2783   YY=              2.1051   ZZ=             -0.8268
   XY=              2.0916   XZ=              0.0000   YZ=              0.0000
 Octapole moment (field-independent basis, Debye-Ang**2):
  XXX=              1.8094  YYY=            -18.1596  ZZZ=              0.0000  XYY=             -9.6399
  XXY=             -2.4397  XXZ=              0.0000  XZZ=              2.1264  YZZ=              3.7939
  YYZ=              0.0000  XYZ=              0.0000
 Hexadecapole moment (field-independent basis, Debye-Ang**3):
 XXXX=            -96.3238 YYYY=           -146.5006 ZZZZ=            -14.1971 XXXY=            -50.1151
 XXXZ=              0.0000 YYYX=            -19.1875 YYYZ=              0.0000 ZZZX=              0.0000
 ZZZY=              0.0000 XXYY=            -36.0240 XXZZ=            -18.4339 YYZZ=            -39.2976
 XXYZ=              0.0000 YYXZ=              0.0000 ZZXY=            -19.1626
 N-N= 6.461202410089D+01 E-N=-6.635775935928D+02  KE= 2.247338724216D+02
 Symmetry A'   KE= 2.159534901955D+02
 Symmetry A"   KE= 8.780382226124D+00
 Calling FoFJK, ICntrl=      2127 FMM=F ISym2X=1 I1Cent= 0 IOpClX= 0 NMat=1 NMatS=1 NMatT=0.
 ***** Axes restored to original set *****
 -------------------------------------------------------------------
 Center     Atomic                   Forces (Hartrees/Bohr)
 Number     Number              X              Y              Z
 -------------------------------------------------------------------
      1        8           0.000105072    0.000072809    0.000000000
      2        8          -0.000069018    0.000031248    0.000000000
      3        1          -0.000171544   -0.000432080    0.000000000
      4        8           0.000125410    0.000324256    0.000000000
      5        1           0.000010081    0.000003767    0.000000000
 -------------------------------------------------------------------
 Cartesian Forces:  Max     0.000432080 RMS     0.000154744

 GradGradGradGradGradGradGradGradGradGradGradGradGradGradGradGradGradGrad
 Berny optimization.
 Internal  Forces:  Max     0.000651990 RMS     0.000234238
 Search for a saddle point.
 Step number   1 out of a maximum of  100
 All quantities printed in internal units (Hartrees-Bohrs-Radians)
 Swaping is turned off.
 Second derivative matrix not updated -- first step.
 The second derivative matrix:
                          R1        R2        R3        R4        A1
           R1           0.53910
           R2          -0.02098   0.06072
           R3           0.04129  -0.01066   0.36051
           R4          -0.00654  -0.00002  -0.01640   0.69210
           A1           0.02517  -0.03241   0.05178   0.00213   0.06330
           A2          -0.00283  -0.01010   0.02264  -0.00015   0.02076
           A3           0.00443   0.00953  -0.05126   0.00641  -0.00765
           D1           0.00000   0.00000   0.00000   0.00000   0.00000
           D2           0.00000   0.00000   0.00000   0.00000   0.00000
                          A2        A3        D1        D2
           A2           0.01405
           A3           0.00228  -0.10838
           D1           0.00000   0.00000  -0.02761
           D2           0.00000   0.00000   0.00621  -0.00293
     Eigenvalues ---   -0.11472  -0.02909  -0.00146   0.00635   0.02911
     Eigenvalues ---    0.09017   0.36538   0.55160   0.69352
 Eigenvectors required to have negative eigenvalues:
                          A3        R3        R2        A2        R1
   1                    0.99180   0.10803  -0.04990  -0.04237  -0.01575
                          A1        R4        D1        D2
   1                    0.00938  -0.00585   0.00000   0.00000
 RFO step:  Lambda0=2.254662547D-09 Lambda=-2.90853642D-02.
 Linear search not attempted -- option 19 set.
 Maximum step size (   0.030) exceeded in Quadratic search.
    -- Step size scaled by   0.278
 Iteration  1 RMS(Cart)=  0.00361073 RMS(Int)=  0.00051497
 Iteration  2 RMS(Cart)=  0.00037822 RMS(Int)=  0.00000114
 Iteration  3 RMS(Cart)=  0.00000225 RMS(Int)=  0.00000000
 Iteration  4 RMS(Cart)=  0.00000000 RMS(Int)=  0.00000000
 ClnCor:  largest displacement from symmetrization is 2.42D-03 for atom     3.
 Variable       Old X    -DE/DX   Delta X   Delta X   Delta X     New X
                                 (Linear)    (Quad)   (Total)
    R1        2.25940   0.00006   0.00000   0.00013   0.00013   2.25954
    R2        3.66335   0.00000   0.00000  -0.00014  -0.00015   3.66321
    R3        1.78692   0.00000   0.00000  -0.00002  -0.00002   1.78690
    R4        1.77331   0.00001   0.00000   0.00001   0.00001   1.77332
    A1        2.01120  -0.00026   0.00000  -0.00197  -0.00197   2.00923
    A2        3.05802   0.00065   0.00000   0.00512   0.00515   3.06317
    A3        3.13898   0.00001   0.00000   0.00027   0.00028   3.13926
    D1        3.14159   0.00000   0.00000   0.02511   0.00000   3.14159
    D2        0.00000   0.00000   0.00000   0.01547   0.00000   0.00000
         Item               Value     Threshold  Converged?
 Maximum Force            0.000652     0.000450     NO 
 RMS     Force            0.000234     0.000300     YES
 Maximum Displacement     0.006138     0.001800     NO 
 RMS     Displacement     0.003844     0.001200     NO 
 Predicted change in Energy=-3.775030D-06
 GradGradGradGradGradGradGradGradGradGradGradGradGradGradGradGradGradGrad

                          Input orientation:                          
 ---------------------------------------------------------------------
 Center     Atomic      Atomic             Coordinates (Angstroms)
 Number     Number       Type             X           Y           Z
 ---------------------------------------------------------------------
      1          8           0       -2.187659    1.848926    0.000000
      2          8           0       -2.034386    0.663094    0.000000
      3          1           0       -0.188237    0.071940    0.000000
      4          8           0        0.686952   -0.286087    0.000000
      5          1           0        1.554652   -0.643419    0.000000
 ---------------------------------------------------------------------
                    Distance matrix (angstroms):
                    1          2          3          4          5
     1  O    0.000000
     2  O    1.195696   0.000000
     3  H    2.674952   1.938486   0.000000
     4  O    3.580735   2.882121   0.945589   0.000000
     5  H    4.496296   3.819447   1.883986   0.938398   0.000000
 Stoichiometry    H2O3
 Framework group  CS[SG(H2O3)]
 Deg. of freedom     7
 Full point group                 CS      NOp   2
 Largest Abelian subgroup         CS      NOp   2
 Largest concise Abelian subgroup C1      NOp   1
                         Standard orientation:                         
 ---------------------------------------------------------------------
 Center     Atomic      Atomic             Coordinates (Angstroms)
 Number     Number       Type             X           Y           Z
 ---------------------------------------------------------------------
      1          8           0        1.185805    1.152696    0.000000
      2          8           0        0.000000    0.999219    0.000000
      3          1           0       -0.590837   -0.847031    0.000000
      4          8           0       -0.948713   -1.722281    0.000000
      5          1           0       -1.305897   -2.590043    0.000000
 ---------------------------------------------------------------------
 Rotational constants (GHZ):     69.9382802      4.0894839      3.8635703
 Standard basis: 6-31+G(d,p) (6D, 7F)
 There are    50 symmetry adapted basis functions of A'  symmetry.
 There are    17 symmetry adapted basis functions of A"  symmetry.
 Integral buffers will be    262144 words long.
 Raffenetti 2 integral format.
 Two-electron integral symmetry is turned on.
    67 basis functions,   110 primitive gaussians,    67 cartesian basis functions
    13 alpha electrons       13 beta electrons
       nuclear repulsion energy        64.6190539586 Hartrees.
 NAtoms=    5 NActive=    5 NUniq=    5 SFac= 7.50D-01 NAtFMM=   80 NAOKFM=F Big=F
 One-electron integrals computed using PRISM.
 NBasis=    67 RedAO= T  NBF=    50    17
 NBsUse=    67 1.00D-06 NBFU=    50    17
 Initial guess read from the read-write file.
 B after Tr=     0.000000    0.000000    0.000000
         Rot=    1.000000    0.000000    0.000000    0.000000 Ang=   0.00 deg.
 Initial guess orbital symmetries:
       Occupied  (A') (A') (A') (A') (A') (A') (A') (A') (A') (A")
                 (A') (A") (A')
       Virtual   (A") (A') (A') (A') (A") (A') (A') (A") (A') (A')
                 (A") (A') (A') (A') (A') (A') (A') (A') (A") (A')
                 (A') (A') (A") (A') (A") (A') (A') (A') (A") (A')
                 (A") (A') (A") (A') (A') (A') (A") (A') (A") (A')
                 (A") (A') (A') (A") (A') (A') (A') (A") (A') (A')
                 (A') (A') (A') (A')
 Requested convergence on RMS density matrix=1.00D-08 within 128 cycles.
 Requested convergence on MAX density matrix=1.00D-06.
 Requested convergence on             energy=1.00D-06.
 No special actions if energy rises.
 Keep R1 ints in memory in canonical form, NReq=3551244.
 SCF Done:  E(RM062X) =  -226.558931832     A.U. after    9 cycles
             Convg  =    0.2222D-08             -V/T =  2.0081
 Calling FoFJK, ICntrl=      2127 FMM=F ISym2X=1 I1Cent= 0 IOpClX= 0 NMat=1 NMatS=1 NMatT=0.
 ***** Axes restored to original set *****
 -------------------------------------------------------------------
 Center     Atomic                   Forces (Hartrees/Bohr)
 Number     Number              X              Y              Z
 -------------------------------------------------------------------
      1        8           0.000118648   -0.000029367    0.000000000
      2        8          -0.000080467    0.000126367    0.000000000
      3        1          -0.000177812   -0.000393303    0.000000000
      4        8           0.000129681    0.000286712    0.000000000
      5        1           0.000009950    0.000009591    0.000000000
 -------------------------------------------------------------------
 Cartesian Forces:  Max     0.000393303 RMS     0.000146720

 GradGradGradGradGradGradGradGradGradGradGradGradGradGradGradGradGradGrad
 Berny optimization.
 Internal  Forces:  Max     0.000618429 RMS     0.000223521
 Search for a saddle point.
 Step number   2 out of a maximum of  100
 All quantities printed in internal units (Hartrees-Bohrs-Radians)
 Swaping is turned off.
 Update second derivatives using D2CorX and points    1    2
 The second derivative matrix:
                          R1        R2        R3        R4        A1
           R1           0.53991
           R2          -0.02142   0.06072
           R3           0.04116  -0.01057   0.36053
           R4          -0.00652  -0.00003  -0.01641   0.69210
           A1           0.01928  -0.03249   0.05294   0.00206   0.06194
           A2           0.01266  -0.01004   0.01959   0.00003   0.02244
           A3           0.00522   0.00958  -0.05142   0.00642  -0.00697
           D1           0.00000   0.00000   0.00000   0.00000   0.00000
           D2           0.00000   0.00000   0.00000   0.00000   0.00000
                          A2        A3        D1        D2
           A2           0.01453
           A3           0.00075  -0.10854
           D1           0.00000   0.00000  -0.02761
           D2           0.00000   0.00000   0.00621  -0.00293
     Eigenvalues ---   -0.11479  -0.02909  -0.00146   0.00536   0.02928
     Eigenvalues ---    0.09016   0.36552   0.55214   0.69352
 Eigenvectors required to have negative eigenvalues:
                          A3        R3        R2        A2        R1
   1                    0.99238   0.10817  -0.05057  -0.02495  -0.01601
                          R4        A1        D1        D2
   1                   -0.00583   0.00241   0.00000   0.00000
 RFO step:  Lambda0=1.592369868D-09 Lambda=-2.90853642D-02.
 Linear search not attempted -- option 19 set.
 Maximum step size (   0.030) exceeded in Quadratic search.
    -- Step size scaled by   0.278
 Iteration  1 RMS(Cart)=  0.00371624 RMS(Int)=  0.00038201
 Iteration  2 RMS(Cart)=  0.00017658 RMS(Int)=  0.00000026
 Iteration  3 RMS(Cart)=  0.00000050 RMS(Int)=  0.00000000
 ClnCor:  largest displacement from symmetrization is 2.26D-03 for atom     3.
 Variable       Old X    -DE/DX   Delta X   Delta X   Delta X     New X
                                 (Linear)    (Quad)   (Total)
    R1        2.25954  -0.00005   0.00000  -0.00008  -0.00008   2.25946
    R2        3.66321  -0.00001   0.00000  -0.00024  -0.00024   3.66297
    R3        1.78690   0.00002   0.00000   0.00006   0.00006   1.78696
    R4        1.77332   0.00001   0.00000   0.00001   0.00001   1.77332
    A1        2.00923  -0.00025   0.00000  -0.00210  -0.00209   2.00714
    A2        3.06317   0.00062   0.00000   0.00496   0.00499   3.06816
    A3        3.13926   0.00003   0.00000   0.00008   0.00008   3.13933
    D1        3.14159   0.00000   0.00000  -0.02512   0.00000   3.14159
    D2        0.00000   0.00000   0.00000  -0.01549   0.00000   0.00000
         Item               Value     Threshold  Converged?
 Maximum Force            0.000618     0.000450     NO 
 RMS     Force            0.000224     0.000300     YES
 Maximum Displacement     0.006252     0.001800     NO 
 RMS     Displacement     0.003753     0.001200     NO 
 Predicted change in Energy=-3.542378D-06
 GradGradGradGradGradGradGradGradGradGradGradGradGradGradGradGradGradGrad

                          Input orientation:                          
 ---------------------------------------------------------------------
 Center     Atomic      Atomic             Coordinates (Angstroms)
 Number     Number       Type             X           Y           Z
 ---------------------------------------------------------------------
      1          8           0       -2.184351    1.849188    0.000000
      2          8           0       -2.035385    0.662848    0.000000
      3          1           0       -0.190267    0.068904    0.000000
      4          8           0        0.686182   -0.286110    0.000000
      5          1           0        1.555143   -0.640376    0.000000
 ---------------------------------------------------------------------
                    Distance matrix (angstroms):
                    1          2          3          4          5
     1  O    0.000000
     2  O    1.195656   0.000000
     3  H    2.673160   1.938358   0.000000
     4  O    3.577633   2.882265   0.945620   0.000000
     5  H    4.492409   3.819723   1.884020   0.938402   0.000000
 Stoichiometry    H2O3
 Framework group  CS[SG(H2O3)]
 Deg. of freedom     7
 Full point group                 CS      NOp   2
 Largest Abelian subgroup         CS      NOp   2
 Largest concise Abelian subgroup C1      NOp   1
                         Standard orientation:                         
 ---------------------------------------------------------------------
 Center     Atomic      Atomic             Coordinates (Angstroms)
 Number     Number       Type             X           Y           Z
 ---------------------------------------------------------------------
      1          8           0        1.186351    1.149513    0.000000
      2          8           0        0.000000    1.000633    0.000000
      3          1           0       -0.594079   -0.844442    0.000000
      4          8           0       -0.949155   -1.720865    0.000000
      5          1           0       -1.303485   -2.589800    0.000000
 ---------------------------------------------------------------------
 Rotational constants (GHZ):     69.5668326      4.0948615      3.8672277
 Standard basis: 6-31+G(d,p) (6D, 7F)
 There are    50 symmetry adapted basis functions of A'  symmetry.
 There are    17 symmetry adapted basis functions of A"  symmetry.
 Integral buffers will be    262144 words long.
 Raffenetti 2 integral format.
 Two-electron integral symmetry is turned on.
    67 basis functions,   110 primitive gaussians,    67 cartesian basis functions
    13 alpha electrons       13 beta electrons
       nuclear repulsion energy        64.6293946817 Hartrees.
 NAtoms=    5 NActive=    5 NUniq=    5 SFac= 7.50D-01 NAtFMM=   80 NAOKFM=F Big=F
 One-electron integrals computed using PRISM.
 NBasis=    67 RedAO= T  NBF=    50    17
 NBsUse=    67 1.00D-06 NBFU=    50    17
 Initial guess read from the read-write file.
 B after Tr=     0.000000    0.000000    0.000000
         Rot=    1.000000    0.000000    0.000000    0.000000 Ang=   0.00 deg.
 Initial guess orbital symmetries:
       Occupied  (A') (A') (A') (A') (A') (A') (A') (A') (A') (A")
                 (A') (A") (A')
       Virtual   (A") (A') (A') (A') (A") (A') (A') (A") (A') (A')
                 (A") (A') (A') (A') (A') (A') (A') (A') (A") (A')
                 (A') (A') (A") (A') (A") (A') (A') (A') (A") (A')
                 (A") (A') (A") (A') (A') (A') (A") (A') (A") (A')
                 (A") (A') (A') (A") (A') (A') (A') (A") (A') (A')
                 (A') (A') (A') (A')
 Requested convergence on RMS density matrix=1.00D-08 within 128 cycles.
 Requested convergence on MAX density matrix=1.00D-06.
 Requested convergence on             energy=1.00D-06.
 No special actions if energy rises.
 Keep R1 ints in memory in canonical form, NReq=3551244.
 SCF Done:  E(RM062X) =  -226.558935388     A.U. after    9 cycles
             Convg  =    0.2167D-08             -V/T =  2.0081
 Calling FoFJK, ICntrl=      2127 FMM=F ISym2X=1 I1Cent= 0 IOpClX= 0 NMat=1 NMatS=1 NMatT=0.
 ***** Axes restored to original set *****
 -------------------------------------------------------------------
 Center     Atomic                   Forces (Hartrees/Bohr)
 Number     Number              X              Y              Z
 -------------------------------------------------------------------
      1        8           0.000107132    0.000069456    0.000000000
      2        8          -0.000066199    0.000022444    0.000000000
      3        1          -0.000147897   -0.000388075    0.000000000
      4        8           0.000100829    0.000293525    0.000000000
      5        1           0.000006135    0.000002650    0.000000000
 -------------------------------------------------------------------
 Cartesian Forces:  Max     0.000388075 RMS     0.000139052

 GradGradGradGradGradGradGradGradGradGradGradGradGradGradGradGradGradGrad
 Berny optimization.
 Internal  Forces:  Max     0.000590932 RMS     0.000214981
 Search for a saddle point.
 Step number   3 out of a maximum of  100
 All quantities printed in internal units (Hartrees-Bohrs-Radians)
 Swaping is turned off.
 Update second derivatives using D2CorX and points    1    2    3
 The second derivative matrix:
                          R1        R2        R3        R4        A1
           R1           0.53976
           R2          -0.02077   0.06074
           R3           0.04111  -0.01076   0.36057
           R4          -0.00654  -0.00003  -0.01640   0.69210
           A1           0.02548  -0.03243   0.05114   0.00206   0.06088
           A2          -0.00239  -0.01033   0.02397   0.00005   0.02371
           A3           0.00486   0.00952  -0.05131   0.00642  -0.00739
           D1           0.00000   0.00000   0.00000   0.00000   0.00000
           D2           0.00000   0.00000   0.00000   0.00000   0.00000
                          A2        A3        D1        D2
           A2           0.01462
           A3           0.00187  -0.10849
           D1           0.00000   0.00000  -0.02761
           D2           0.00000   0.00000   0.00621  -0.00293
     Eigenvalues ---   -0.11482  -0.02909  -0.00146   0.00430   0.02931
     Eigenvalues ---    0.09017   0.36559   0.55212   0.69352
 Eigenvectors required to have negative eigenvalues:
                          A3        R3        R2        A2        R1
   1                    0.99187   0.10819  -0.04981  -0.04026  -0.01629
                          A1        R4        D1        D2
   1                    0.00892  -0.00585   0.00000   0.00000
 RFO step:  Lambda0=1.165706240D-09 Lambda=-2.90853642D-02.
 Linear search not attempted -- option 19 set.
 Maximum step size (   0.030) exceeded in Quadratic search.
    -- Step size scaled by   0.278
 Iteration  1 RMS(Cart)=  0.00353030 RMS(Int)=  0.00046540
 Iteration  2 RMS(Cart)=  0.00037487 RMS(Int)=  0.00000118
 Iteration  3 RMS(Cart)=  0.00000235 RMS(Int)=  0.00000000
 Iteration  4 RMS(Cart)=  0.00000000 RMS(Int)=  0.00000000
 ClnCor:  largest displacement from symmetrization is 2.10D-03 for atom     3.
 Variable       Old X    -DE/DX   Delta X   Delta X   Delta X     New X
                                 (Linear)    (Quad)   (Total)
    R1        2.25946   0.00005   0.00000   0.00013   0.00013   2.25960
    R2        3.66297  -0.00001   0.00000  -0.00025  -0.00025   3.66272
    R3        1.78696  -0.00001   0.00000  -0.00001  -0.00001   1.78695
    R4        1.77332   0.00000   0.00000   0.00001   0.00001   1.77333
    A1        2.00714  -0.00025   0.00000  -0.00216  -0.00216   2.00497
    A2        3.06816   0.00059   0.00000   0.00488   0.00491   3.07306
    A3        3.13933   0.00002   0.00000   0.00024   0.00024   3.13957
    D1        3.14159   0.00000   0.00000   0.02513   0.00000   3.14159
    D2        0.00000   0.00000   0.00000   0.01549   0.00000   0.00000
         Item               Value     Threshold  Converged?
 Maximum Force            0.000591     0.000450     NO 
 RMS     Force            0.000215     0.000300     YES
 Maximum Displacement     0.006336     0.001800     NO 
 RMS     Displacement     0.003793     0.001200     NO 
 Predicted change in Energy=-3.394676D-06
 GradGradGradGradGradGradGradGradGradGradGradGradGradGradGradGradGradGrad

                          Input orientation:                          
 ---------------------------------------------------------------------
 Center     Atomic      Atomic             Coordinates (Angstroms)
 Number     Number       Type             X           Y           Z
 ---------------------------------------------------------------------
      1          8           0       -2.180998    1.849489    0.000000
      2          8           0       -2.036378    0.662541    0.000000
      3          1           0       -0.192279    0.065860    0.000000
      4          8           0        0.685365   -0.286167    0.000000
      5          1           0        1.555612   -0.637270    0.000000
 ---------------------------------------------------------------------
                    Distance matrix (angstroms):
                    1          2          3          4          5
     1  O    0.000000
     2  O    1.195726   0.000000
     3  H    2.671392   1.938228   0.000000
     4  O    3.574502   2.882348   0.945612   0.000000
     5  H    4.488454   3.819934   1.884016   0.938405   0.000000
 Stoichiometry    H2O3
 Framework group  CS[SG(H2O3)]
 Deg. of freedom     7
 Full point group                 CS      NOp   2
 Largest Abelian subgroup         CS      NOp   2
 Largest concise Abelian subgroup C1      NOp   1
                         Standard orientation:                         
 ---------------------------------------------------------------------
 Center     Atomic      Atomic             Coordinates (Angstroms)
 Number     Number       Type             X           Y           Z
 ---------------------------------------------------------------------
      1          8           0        1.187001    1.146231    0.000000
      2          8           0        0.000000    1.002041    0.000000
      3          1           0       -0.597348   -0.841841    0.000000
      4          8           0       -0.949693   -1.719358    0.000000
      5          1           0       -1.301111   -2.589478    0.000000
 ---------------------------------------------------------------------
 Rotational constants (GHZ):     69.1841928      4.1003625      3.8709421
 Standard basis: 6-31+G(d,p) (6D, 7F)
 There are    50 symmetry adapted basis functions of A'  symmetry.
 There are    17 symmetry adapted basis functions of A"  symmetry.
 Integral buffers will be    262144 words long.
 Raffenetti 2 integral format.
 Two-electron integral symmetry is turned on.
    67 basis functions,   110 primitive gaussians,    67 cartesian basis functions
    13 alpha electrons       13 beta electrons
       nuclear repulsion energy        64.6376645676 Hartrees.
 NAtoms=    5 NActive=    5 NUniq=    5 SFac= 7.50D-01 NAtFMM=   80 NAOKFM=F Big=F
 One-electron integrals computed using PRISM.
 NBasis=    67 RedAO= T  NBF=    50    17
 NBsUse=    67 1.00D-06 NBFU=    50    17
 Initial guess read from the read-write file.
 B after Tr=     0.000000    0.000000    0.000000
         Rot=    1.000000    0.000000    0.000000    0.000000 Ang=   0.00 deg.
 Initial guess orbital symmetries:
       Occupied  (A') (A') (A') (A') (A') (A') (A') (A') (A') (A")
                 (A') (A") (A')
       Virtual   (A") (A') (A') (A') (A") (A') (A') (A") (A') (A')
                 (A") (A') (A') (A') (A') (A') (A') (A') (A") (A')
                 (A') (A') (A") (A") (A') (A') (A') (A') (A") (A')
                 (A") (A') (A") (A') (A') (A') (A") (A') (A") (A')
                 (A") (A') (A') (A") (A') (A') (A') (A") (A') (A')
                 (A') (A') (A') (A')
 Requested convergence on RMS density matrix=1.00D-08 within 128 cycles.
 Requested convergence on MAX density matrix=1.00D-06.
 Requested convergence on             energy=1.00D-06.
 No special actions if energy rises.
 Keep R1 ints in memory in canonical form, NReq=3551244.
 SCF Done:  E(RM062X) =  -226.558938808     A.U. after    9 cycles
             Convg  =    0.2242D-08             -V/T =  2.0081
 Calling FoFJK, ICntrl=      2127 FMM=F ISym2X=1 I1Cent= 0 IOpClX= 0 NMat=1 NMatS=1 NMatT=0.
 ***** Axes restored to original set *****
 -------------------------------------------------------------------
 Center     Atomic                   Forces (Hartrees/Bohr)
 Number     Number              X              Y              Z
 -------------------------------------------------------------------
      1        8           0.000124930   -0.000027323    0.000000000
      2        8          -0.000082550    0.000114303    0.000000000
      3        1          -0.000153584   -0.000355288    0.000000000
      4        8           0.000105606    0.000261341    0.000000000
      5        1           0.000005598    0.000006967    0.000000000
 -------------------------------------------------------------------
 Cartesian Forces:  Max     0.000355288 RMS     0.000133062

 GradGradGradGradGradGradGradGradGradGradGradGradGradGradGradGradGradGrad
 Berny optimization.
 Internal  Forces:  Max     0.000566774 RMS     0.000208729
 Search for a saddle point.
 Step number   4 out of a maximum of  100
 All quantities printed in internal units (Hartrees-Bohrs-Radians)
 Swaping is turned off.
 Update second derivatives using D2CorX and points    1    2    3    4
 The second derivative matrix:
                          R1        R2        R3        R4        A1
           R1           0.54064
           R2          -0.02146   0.06078
           R3           0.04098  -0.01067   0.36059
           R4          -0.00651  -0.00004  -0.01640   0.69210
           A1           0.01906  -0.03237   0.05210   0.00196   0.05877
           A2           0.01285  -0.01076   0.02169   0.00028   0.02594
           A3           0.00549   0.00958  -0.05141   0.00643  -0.00658
           D1           0.00000   0.00000   0.00000   0.00000   0.00000
           D2           0.00000   0.00000   0.00000   0.00000   0.00000
                          A2        A3        D1        D2
           A2           0.01553
           A3           0.00022  -0.10863
           D1           0.00000   0.00000  -0.02761
           D2           0.00000   0.00000   0.00621  -0.00293
     Eigenvalues ---   -0.11487  -0.02909  -0.00146   0.00291   0.02959
     Eigenvalues ---    0.09020   0.36569   0.55275   0.69352
 Eigenvectors required to have negative eigenvalues:
                          A3        R3        R2        A2        R1
   1                    0.99242   0.10830  -0.05077  -0.02239  -0.01639
                          R4        A1        D1        D2
   1                   -0.00584   0.00086   0.00000   0.00000
 RFO step:  Lambda0=2.358264022D-09 Lambda=-2.90853642D-02.
 Linear search not attempted -- option 19 set.
 Maximum step size (   0.030) exceeded in Quadratic search.
    -- Step size scaled by   0.278
 Iteration  1 RMS(Cart)=  0.00375468 RMS(Int)=  0.00058105
 Iteration  2 RMS(Cart)=  0.00016810 RMS(Int)=  0.00000031
 Iteration  3 RMS(Cart)=  0.00000048 RMS(Int)=  0.00000000
 ClnCor:  largest displacement from symmetrization is 1.94D-03 for atom     3.
 Variable       Old X    -DE/DX   Delta X   Delta X   Delta X     New X
                                 (Linear)    (Quad)   (Total)
    R1        2.25960  -0.00005   0.00000  -0.00007  -0.00007   2.25953
    R2        3.66272  -0.00001   0.00000  -0.00033  -0.00033   3.66239
    R3        1.78695   0.00000   0.00000   0.00006   0.00006   1.78701
    R4        1.77333   0.00000   0.00000   0.00001   0.00001   1.77333
    A1        2.00497  -0.00026   0.00000  -0.00239  -0.00239   2.00258
    A2        3.07306   0.00057   0.00000   0.00484   0.00486   3.07792
    A3        3.13957   0.00003   0.00000   0.00005   0.00005   3.13962
    D1        3.14159   0.00000   0.00000  -0.02512   0.00000   3.14159
    D2        0.00000   0.00000   0.00000  -0.01548   0.00000   0.00000
         Item               Value     Threshold  Converged?
 Maximum Force            0.000567     0.000450     NO 
 RMS     Force            0.000209     0.000300     YES
 Maximum Displacement     0.006659     0.001800     NO 
 RMS     Displacement     0.003817     0.001200     NO 
 Predicted change in Energy=-3.338694D-06
 GradGradGradGradGradGradGradGradGradGradGradGradGradGradGradGradGradGrad

                          Input orientation:                          
 ---------------------------------------------------------------------
 Center     Atomic      Atomic             Coordinates (Angstroms)
 Number     Number       Type             X           Y           Z
 ---------------------------------------------------------------------
      1          8           0       -2.177474    1.849658    0.000000
      2          8           0       -2.037404    0.662201    0.000000
      3          1           0       -0.194334    0.062919    0.000000
      4          8           0        0.684536   -0.286119    0.000000
      5          1           0        1.555998   -0.634205    0.000000
 ---------------------------------------------------------------------
                    Distance matrix (angstroms):
                    1          2          3          4          5
     1  O    0.000000
     2  O    1.195690   0.000000
     3  H    2.669322   1.938053   0.000000
     4  O    3.571084   2.882407   0.945642   0.000000
     5  H    4.484237   3.820105   1.884049   0.938407   0.000000
 Stoichiometry    H2O3
 Framework group  CS[SG(H2O3)]
 Deg. of freedom     7
 Full point group                 CS      NOp   2
 Largest Abelian subgroup         CS      NOp   2
 Largest concise Abelian subgroup C1      NOp   1
                         Standard orientation:                         
 ---------------------------------------------------------------------
 Center     Atomic      Atomic             Coordinates (Angstroms)
 Number     Number       Type             X           Y           Z
 ---------------------------------------------------------------------
      1          8           0        1.187550    1.142794    0.000000
      2          8           0        0.000000    1.003517    0.000000
      3          1           0       -0.600512   -0.839153    0.000000
      4          8           0       -0.950136   -1.717790    0.000000
      5          1           0       -1.298803   -2.589019    0.000000
 ---------------------------------------------------------------------
 Rotational constants (GHZ):     68.7980181      4.1063662      3.8750737
 Standard basis: 6-31+G(d,p) (6D, 7F)
 There are    50 symmetry adapted basis functions of A'  symmetry.
 There are    17 symmetry adapted basis functions of A"  symmetry.
 Integral buffers will be    262144 words long.
 Raffenetti 2 integral format.
 Two-electron integral symmetry is turned on.
    67 basis functions,   110 primitive gaussians,    67 cartesian basis functions
    13 alpha electrons       13 beta electrons
       nuclear repulsion energy        64.6494620111 Hartrees.
 NAtoms=    5 NActive=    5 NUniq=    5 SFac= 7.50D-01 NAtFMM=   80 NAOKFM=F Big=F
 One-electron integrals computed using PRISM.
 NBasis=    67 RedAO= T  NBF=    50    17
 NBsUse=    67 1.00D-06 NBFU=    50    17
 Initial guess read from the read-write file.
 B after Tr=     0.000000    0.000000    0.000000
         Rot=    1.000000    0.000000    0.000000    0.000000 Ang=   0.00 deg.
 Initial guess orbital symmetries:
       Occupied  (A') (A') (A') (A') (A') (A') (A') (A') (A') (A")
                 (A') (A") (A')
       Virtual   (A") (A') (A') (A') (A") (A') (A') (A") (A') (A')
                 (A") (A') (A') (A') (A') (A') (A') (A') (A") (A')
                 (A') (A') (A") (A") (A') (A') (A') (A') (A") (A')
                 (A") (A') (A") (A') (A') (A') (A") (A') (A") (A')
                 (A") (A') (A') (A") (A') (A') (A') (A") (A') (A')
                 (A') (A') (A') (A')
 Requested convergence on RMS density matrix=1.00D-08 within 128 cycles.
 Requested convergence on MAX density matrix=1.00D-06.
 Requested convergence on             energy=1.00D-06.
 No special actions if energy rises.
 Keep R1 ints in memory in canonical form, NReq=3551244.
 SCF Done:  E(RM062X) =  -226.558942187     A.U. after    9 cycles
             Convg  =    0.2270D-08             -V/T =  2.0081
 Calling FoFJK, ICntrl=      2127 FMM=F ISym2X=1 I1Cent= 0 IOpClX= 0 NMat=1 NMatS=1 NMatT=0.
 ***** Axes restored to original set *****
 -------------------------------------------------------------------
 Center     Atomic                   Forces (Hartrees/Bohr)
 Number     Number              X              Y              Z
 -------------------------------------------------------------------
      1        8           0.000120458    0.000069176    0.000000000
      2        8          -0.000075686    0.000015011    0.000000000
      3        1          -0.000125893   -0.000354521    0.000000000
      4        8           0.000079615    0.000271570    0.000000000
      5        1           0.000001506   -0.000001236    0.000000000
 -------------------------------------------------------------------
 Cartesian Forces:  Max     0.000354521 RMS     0.000128290

 GradGradGradGradGradGradGradGradGradGradGradGradGradGradGradGradGradGrad
 Berny optimization.
 Internal  Forces:  Max     0.000549249 RMS     0.000204936
 Search for a saddle point.
 Step number   5 out of a maximum of  100
 All quantities printed in internal units (Hartrees-Bohrs-Radians)
 Swaping is turned off.
 Update second derivatives using D2CorX and points    1    2    3    4    5
 The second derivative matrix:
                          R1        R2        R3        R4        A1
           R1           0.54138
           R2          -0.02067   0.06088
           R3           0.04075  -0.01095   0.36069
           R4          -0.00652  -0.00004  -0.01640   0.69210
           A1           0.02554  -0.03214   0.04995   0.00194   0.05690
           A2          -0.00110  -0.01152   0.02630   0.00033   0.02772
           A3           0.00514   0.00952  -0.05130   0.00643  -0.00696
           D1           0.00000   0.00000   0.00000   0.00000   0.00000
           D2           0.00000   0.00000   0.00000   0.00000   0.00000
                          A2        A3        D1        D2
           A2           0.01612
           A3           0.00111  -0.10859
           D1           0.00000   0.00000  -0.02761
           D2           0.00000   0.00000   0.00621  -0.00293
     Eigenvalues ---   -0.11488  -0.02909  -0.00146   0.00154   0.02961
     Eigenvalues ---    0.09025   0.36597   0.55347   0.69352
 Eigenvectors required to have negative eigenvalues:
                          A3        R3        R2        A2        R1
   1                    0.99202   0.10827  -0.04990  -0.03627  -0.01647
                          A1        R4        D1        D2
   1                    0.00772  -0.00585   0.00000   0.00000
 RFO step:  Lambda0=4.667078737D-10 Lambda=-2.90853642D-02.
 Linear search not attempted -- option 19 set.
 Maximum step size (   0.030) exceeded in Quadratic search.
    -- Step size scaled by   0.278
 Iteration  1 RMS(Cart)=  0.00367386 RMS(Int)=  0.00034708
 Iteration  2 RMS(Cart)=  0.00039037 RMS(Int)=  0.00000126
 Iteration  3 RMS(Cart)=  0.00000234 RMS(Int)=  0.00000000
 Iteration  4 RMS(Cart)=  0.00000000 RMS(Int)=  0.00000000
 ClnCor:  largest displacement from symmetrization is 1.79D-03 for atom     3.
 Variable       Old X    -DE/DX   Delta X   Delta X   Delta X     New X
                                 (Linear)    (Quad)   (Total)
    R1        2.25953   0.00005   0.00000   0.00014   0.00014   2.25966
    R2        3.66239  -0.00001   0.00000  -0.00033  -0.00033   3.66206
    R3        1.78701  -0.00002   0.00000  -0.00001  -0.00001   1.78699
    R4        1.77333   0.00000   0.00000   0.00000   0.00000   1.77334
    A1        2.00258  -0.00027   0.00000  -0.00259  -0.00259   1.99999
    A2        3.07792   0.00055   0.00000   0.00489   0.00490   3.08283
    A3        3.13962   0.00002   0.00000   0.00020   0.00020   3.13983
    D1        3.14159   0.00000   0.00000   0.02510   0.00000   3.14159
    D2        0.00000   0.00000   0.00000   0.01547   0.00000   0.00000
         Item               Value     Threshold  Converged?
 Maximum Force            0.000549     0.000450     NO 
 RMS     Force            0.000205     0.000300     YES
 Maximum Displacement     0.007010     0.001800     NO 
 RMS     Displacement     0.003986     0.001200     NO 
 Predicted change in Energy=-3.383318D-06
 GradGradGradGradGradGradGradGradGradGradGradGradGradGradGradGradGradGrad

                          Input orientation:                          
 ---------------------------------------------------------------------
 Center     Atomic      Atomic             Coordinates (Angstroms)
 Number     Number       Type             X           Y           Z
 ---------------------------------------------------------------------
      1          8           0       -2.173764    1.849859    0.000000
      2          8           0       -2.038474    0.661776    0.000000
      3          1           0       -0.196437    0.059895    0.000000
      4          8           0        0.683632   -0.286095    0.000000
      5          1           0        1.556366   -0.630982    0.000000
 ---------------------------------------------------------------------
                    Distance matrix (angstroms):
                    1          2          3          4          5
     1  O    0.000000
     2  O    1.195761   0.000000
     3  H    2.667170   1.937876   0.000000
     4  O    3.567494   2.882416   0.945637   0.000000
     5  H    4.479782   3.820223   1.884046   0.938410   0.000000
 Stoichiometry    H2O3
 Framework group  CS[SG(H2O3)]
 Deg. of freedom     7
 Full point group                 CS      NOp   2
 Largest Abelian subgroup         CS      NOp   2
 Largest concise Abelian subgroup C1      NOp   1
                         Standard orientation:                         
 ---------------------------------------------------------------------
 Center     Atomic      Atomic             Coordinates (Angstroms)
 Number     Number       Type             X           Y           Z
 ---------------------------------------------------------------------
      1          8           0        1.188223    1.139114    0.000000
      2          8           0        0.000000    1.005055    0.000000
      3          1           0       -0.603789   -0.836359    0.000000
      4          8           0       -0.950689   -1.716068    0.000000
      5          1           0       -1.296480   -2.588445    0.000000
 ---------------------------------------------------------------------
 Rotational constants (GHZ):     68.3851554      4.1127451      3.8794325
 Standard basis: 6-31+G(d,p) (6D, 7F)
 There are    50 symmetry adapted basis functions of A'  symmetry.
 There are    17 symmetry adapted basis functions of A"  symmetry.
 Integral buffers will be    262144 words long.
 Raffenetti 2 integral format.
 Two-electron integral symmetry is turned on.
    67 basis functions,   110 primitive gaussians,    67 cartesian basis functions
    13 alpha electrons       13 beta electrons
       nuclear repulsion energy        64.6596772702 Hartrees.
 NAtoms=    5 NActive=    5 NUniq=    5 SFac= 7.50D-01 NAtFMM=   80 NAOKFM=F Big=F
 One-electron integrals computed using PRISM.
 NBasis=    67 RedAO= T  NBF=    50    17
 NBsUse=    67 1.00D-06 NBFU=    50    17
 Initial guess read from the read-write file.
 B after Tr=     0.000000    0.000000    0.000000
         Rot=    1.000000    0.000000    0.000000    0.000000 Ang=   0.00 deg.
 Initial guess orbital symmetries:
       Occupied  (A') (A') (A') (A') (A') (A') (A') (A') (A') (A")
                 (A') (A") (A')
       Virtual   (A") (A') (A') (A') (A") (A') (A') (A") (A') (A')
                 (A") (A') (A') (A') (A') (A') (A') (A') (A") (A')
                 (A') (A') (A") (A") (A') (A') (A') (A') (A") (A')
                 (A") (A') (A") (A') (A') (A') (A") (A') (A") (A')
                 (A") (A') (A') (A") (A') (A') (A') (A") (A') (A')
                 (A') (A') (A') (A')
 Requested convergence on RMS density matrix=1.00D-08 within 128 cycles.
 Requested convergence on MAX density matrix=1.00D-06.
 Requested convergence on             energy=1.00D-06.
 No special actions if energy rises.
 Keep R1 ints in memory in canonical form, NReq=3551244.
 SCF Done:  E(RM062X) =  -226.558945638     A.U. after    9 cycles
             Convg  =    0.2432D-08             -V/T =  2.0081
 Calling FoFJK, ICntrl=      2127 FMM=F ISym2X=1 I1Cent= 0 IOpClX= 0 NMat=1 NMatS=1 NMatT=0.
 ***** Axes restored to original set *****
 -------------------------------------------------------------------
 Center     Atomic                   Forces (Hartrees/Bohr)
 Number     Number              X              Y              Z
 -------------------------------------------------------------------
      1        8           0.000143769   -0.000025429    0.000000000
      2        8          -0.000097513    0.000107296    0.000000000
      3        1          -0.000131732   -0.000328281    0.000000000
      4        8           0.000085074    0.000244953    0.000000000
      5        1           0.000000403    0.000001462    0.000000000
 -------------------------------------------------------------------
 Cartesian Forces:  Max     0.000328281 RMS     0.000125087

 GradGradGradGradGradGradGradGradGradGradGradGradGradGradGradGradGradGrad
 Berny optimization.
 Internal  Forces:  Max     0.000536039 RMS     0.000204261
 Search for a saddle point.
 Step number   6 out of a maximum of  100
 All quantities printed in internal units (Hartrees-Bohrs-Radians)
 Swaping is turned off.
 Update second derivatives using D2CorX and points    1    2    3    4    5
                                                      6
 The second derivative matrix:
                          R1        R2        R3        R4        A1
           R1           0.54275
           R2          -0.02152   0.06099
           R3           0.04051  -0.01088   0.36071
           R4          -0.00650  -0.00006  -0.01640   0.69210
           A1           0.01851  -0.03188   0.05053   0.00181   0.05378
           A2           0.01343  -0.01240   0.02484   0.00057   0.03020
           A3           0.00561   0.00960  -0.05135   0.00644  -0.00600
           D1           0.00000   0.00000   0.00000   0.00000   0.00000
           D2           0.00000   0.00000   0.00000   0.00000   0.00000
                          A2        A3        D1        D2
           A2           0.01751
           A3          -0.00057  -0.10871
           D1           0.00000   0.00000  -0.02761
           D2           0.00000   0.00000   0.00621  -0.00293
     Eigenvalues ---   -0.11492  -0.02909  -0.00146  -0.00022   0.02988
     Eigenvalues ---    0.09027   0.36608   0.55452   0.69353
 Eigenvectors required to have negative eigenvalues:
                          A3        R3        R2        A2        R1
   1                    0.99247   0.10832  -0.05106  -0.01874  -0.01644
                          R4        A1        D1        D2
   1                   -0.00584  -0.00159   0.00000   0.00000
 RFO step:  Lambda0=3.369503135D-09 Lambda=-2.90853642D-02.
 Linear search not attempted -- option 19 set.
 Maximum step size (   0.030) exceeded in Quadratic search.
    -- Step size scaled by   0.110
 Iteration  1 RMS(Cart)=  0.01799263 RMS(Int)=  0.00213773
 Iteration  2 RMS(Cart)=  0.00193679 RMS(Int)=  0.00004889
 Iteration  3 RMS(Cart)=  0.00010226 RMS(Int)=  0.00000005
 Iteration  4 RMS(Cart)=  0.00000004 RMS(Int)=  0.00000000
 ClnCor:  largest displacement from symmetrization is 4.31D-04 for atom     3.
 Variable       Old X    -DE/DX   Delta X   Delta X   Delta X     New X
                                 (Linear)    (Quad)   (Total)
    R1        2.25966  -0.00005   0.00000  -0.00023  -0.00023   2.25943
    R2        3.66206  -0.00001   0.00000  -0.00313  -0.00313   3.65893
    R3        1.78699  -0.00001   0.00000   0.00047   0.00047   1.78747
    R4        1.77334   0.00000   0.00000   0.00003   0.00003   1.77336
    A1        1.99999  -0.00029   0.00000  -0.01500  -0.01500   1.98500
    A2        3.08283   0.00054   0.00000   0.02297   0.02297   3.10580
    A3        3.13983   0.00003   0.00000   0.00017   0.00018   3.14000
    D1        3.14159   0.00000   0.00000  -0.00997   0.00000   3.14159
    D2        0.00000   0.00000   0.00000  -0.00615   0.00000   0.00000
         Item               Value     Threshold  Converged?
 Maximum Force            0.000536     0.000450     NO 
 RMS     Force            0.000204     0.000300     YES
 Maximum Displacement     0.037784     0.001800     NO 
 RMS     Displacement     0.020015     0.001200     NO 
 Predicted change in Energy=-1.681195D-05
 GradGradGradGradGradGradGradGradGradGradGradGradGradGradGradGradGradGrad

                          Input orientation:                          
 ---------------------------------------------------------------------
 Center     Atomic      Atomic             Coordinates (Angstroms)
 Number     Number       Type             X           Y           Z
 ---------------------------------------------------------------------
      1          8           0       -2.153770    1.849662    0.000000
      2          8           0       -2.043802    0.659089    0.000000
      3          1           0       -0.207152    0.046169    0.000000
      4          8           0        0.678802   -0.285171    0.000000
      5          1           0        1.557243   -0.615295    0.000000
 ---------------------------------------------------------------------
                    Distance matrix (angstroms):
                    1          2          3          4          5
     1  O    0.000000
     2  O    1.195641   0.000000
     3  H    2.653660   1.936222   0.000000
     4  O    3.546967   2.881701   0.945886   0.000000
     5  H    4.455068   3.819893   1.884310   0.938424   0.000000
 Stoichiometry    H2O3
 Framework group  CS[SG(H2O3)]
 Deg. of freedom     7
 Full point group                 CS      NOp   2
 Largest Abelian subgroup         CS      NOp   2
 Largest concise Abelian subgroup C1      NOp   1
                         Standard orientation:                         
 ---------------------------------------------------------------------
 Center     Atomic      Atomic             Coordinates (Angstroms)
 Number     Number       Type             X           Y           Z
 ---------------------------------------------------------------------
      1          8           0        1.190915    1.119241    0.000000
      2          8           0        0.000000    1.013035    0.000000
      3          1           0       -0.618719   -0.821670    0.000000
      4          8           0       -0.952856   -1.706572    0.000000
      5          1           0       -1.285753   -2.583966    0.000000
 ---------------------------------------------------------------------
 Rotational constants (GHZ):     66.3217416      4.1497830      3.9054191
 Standard basis: 6-31+G(d,p) (6D, 7F)
 There are    50 symmetry adapted basis functions of A'  symmetry.
 There are    17 symmetry adapted basis functions of A"  symmetry.
 Integral buffers will be    262144 words long.
 Raffenetti 2 integral format.
 Two-electron integral symmetry is turned on.
    67 basis functions,   110 primitive gaussians,    67 cartesian basis functions
    13 alpha electrons       13 beta electrons
       nuclear repulsion energy        64.7343696051 Hartrees.
 NAtoms=    5 NActive=    5 NUniq=    5 SFac= 7.50D-01 NAtFMM=   80 NAOKFM=F Big=F
 One-electron integrals computed using PRISM.
 NBasis=    67 RedAO= T  NBF=    50    17
 NBsUse=    67 1.00D-06 NBFU=    50    17
 Initial guess read from the read-write file.
 B after Tr=     0.000000    0.000000    0.000000
         Rot=    1.000000    0.000000    0.000000    0.000000 Ang=   0.00 deg.
 Initial guess orbital symmetries:
       Occupied  (A') (A') (A') (A') (A') (A') (A') (A') (A') (A")
                 (A') (A") (A')
       Virtual   (A") (A') (A') (A') (A") (A') (A') (A") (A') (A')
                 (A") (A') (A') (A') (A') (A') (A') (A') (A") (A')
                 (A') (A') (A") (A") (A') (A') (A') (A') (A") (A')
                 (A") (A') (A") (A') (A') (A') (A") (A') (A") (A')
                 (A") (A') (A') (A") (A') (A') (A') (A") (A') (A')
                 (A') (A') (A') (A')
 Harris functional with IExCor= 1009 diagonalized for initial guess.
 ExpMin= 8.45D-02 ExpMax= 5.48D+03 ExpMxC= 8.25D+02 IAcc=2 IRadAn=         0 AccDes= 0.00D+00
 HarFok:  IExCor= 1009 AccDes= 0.00D+00 IRadAn=         0 IDoV= 1
 ScaDFX=  1.000000  1.000000  1.000000  1.000000
 FoFCou: FMM=F IPFlag=           0 FMFlag=      100000 FMFlg1=           0
         NFxFlg=           0 DoJE=T BraDBF=F KetDBF=T FulRan=T
         Omega=  0.000000  0.000000  1.000000  0.000000  0.000000 ICntrl=     500 IOpCl=  0
         NMat0=    1 NMatS0=    1 NMatT0=    0 NMatD0=    1 NMtDS0=    0 NMtDT0=    0
         I1Cent=           4 NGrid=           0.
 Petite list used in FoFCou.
 Requested convergence on RMS density matrix=1.00D-08 within 128 cycles.
 Requested convergence on MAX density matrix=1.00D-06.
 Requested convergence on             energy=1.00D-06.
 No special actions if energy rises.
 Keep R1 ints in memory in canonical form, NReq=3551244.
 Integral accuracy reduced to 1.0D-05 until final iterations.
 Initial convergence to 1.0D-05 achieved.  Increase integral accuracy.
 SCF Done:  E(RM062X) =  -226.558964180     A.U. after   13 cycles
             Convg  =    0.3752D-08             -V/T =  2.0081
 Calling FoFJK, ICntrl=      2127 FMM=F ISym2X=1 I1Cent= 0 IOpClX= 0 NMat=1 NMatS=1 NMatT=0.
 ***** Axes restored to original set *****
 -------------------------------------------------------------------
 Center     Atomic                   Forces (Hartrees/Bohr)
 Number     Number              X              Y              Z
 -------------------------------------------------------------------
      1        8           0.000205787    0.000315648    0.000000000
      2        8          -0.000152950   -0.000223086    0.000000000
      3        1           0.000103868   -0.000400265    0.000000000
      4        8          -0.000135115    0.000339777    0.000000000
      5        1          -0.000021589   -0.000032074    0.000000000
 -------------------------------------------------------------------
 Cartesian Forces:  Max     0.000400265 RMS     0.000186430

 GradGradGradGradGradGradGradGradGradGradGradGradGradGradGradGradGradGrad
 Berny optimization.
 Internal  Forces:  Max     0.000555336 RMS     0.000267294
 Search for a saddle point.
 Step number   7 out of a maximum of  100
 All quantities printed in internal units (Hartrees-Bohrs-Radians)
 Swaping is turned off.
 Update second derivatives using D2CorX and points    1    2    3    4    5
                                                      6    7
 The second derivative matrix:
                          R1        R2        R3        R4        A1
           R1           0.54155
           R2          -0.02055   0.06106
           R3           0.04076  -0.01150   0.36007
           R4          -0.00652  -0.00007  -0.01644   0.69210
           A1           0.02405  -0.03188   0.04555   0.00165   0.04825
           A2           0.00366  -0.01285   0.03197   0.00073   0.03353
           A3           0.00553   0.00953  -0.05115   0.00645  -0.00609
           D1           0.00000   0.00000   0.00000   0.00000   0.00000
           D2           0.00000   0.00000   0.00000   0.00000   0.00000
                          A2        A3        D1        D2
           A2           0.01868
           A3          -0.00005  -0.10871
           D1           0.00000   0.00000  -0.02761
           D2           0.00000   0.00000   0.00621  -0.00293
     Eigenvalues ---   -0.11495  -0.02909  -0.00415  -0.00146   0.02997
     Eigenvalues ---    0.09000   0.36515   0.55345   0.69352
 Eigenvectors required to have negative eigenvalues:
                          A3        R3        R2        A2        R1
   1                    0.99219   0.10841  -0.04977  -0.03139  -0.01676
                          A1        R4        D1        D2
   1                    0.00604  -0.00584   0.00000   0.00000
 RFO step:  Lambda0=1.288478153D-08 Lambda=-2.90853642D-02.
 Linear search not attempted -- option 19 set.
 Maximum step size (   0.030) exceeded in Quadratic search.
    -- Step size scaled by   0.148
 Iteration  1 RMS(Cart)=  0.01245393 RMS(Int)=  0.00290437
 Iteration  2 RMS(Cart)=  0.00646537 RMS(Int)=  0.00008957
 Iteration  3 RMS(Cart)=  0.00003149 RMS(Int)=  0.00000003
 Iteration  4 RMS(Cart)=  0.00000003 RMS(Int)=  0.00000000
 ClnCor:  largest displacement from symmetrization is 1.47D-04 for atom     3.
 Variable       Old X    -DE/DX   Delta X   Delta X   Delta X     New X
                                 (Linear)    (Quad)   (Total)
    R1        2.25943   0.00026   0.00000   0.00047   0.00047   2.25991
    R2        3.65893  -0.00001   0.00000  -0.00322  -0.00322   3.65571
    R3        1.78747  -0.00025   0.00000  -0.00005  -0.00005   1.78742
    R4        1.77336  -0.00001   0.00000   0.00001   0.00001   1.77338
    A1        1.98500  -0.00045   0.00000  -0.01514  -0.01514   1.96986
    A2        3.10580   0.00056   0.00000   0.02030   0.02030   3.12610
    A3        3.14000   0.00001   0.00000   0.00064   0.00064   3.14064
    D1        3.14159   0.00000   0.00000   0.00826   0.00000   3.14159
    D2        0.00000   0.00000   0.00000  -0.01340   0.00000   0.00000
         Item               Value     Threshold  Converged?
 Maximum Force            0.000555     0.000450     NO 
 RMS     Force            0.000267     0.000300     YES
 Maximum Displacement     0.036901     0.001800     NO 
 RMS     Displacement     0.018938     0.001200     NO 
 Predicted change in Energy=-1.962494D-05
 GradGradGradGradGradGradGradGradGradGradGradGradGradGradGradGradGradGrad

                          Input orientation:                          
 ---------------------------------------------------------------------
 Center     Atomic      Atomic             Coordinates (Angstroms)
 Number     Number       Type             X           Y           Z
 ---------------------------------------------------------------------
      1          8           0       -2.134242    1.848966    0.000000
      2          8           0       -2.048672    0.656141    0.000000
      3          1           0       -0.216938    0.033950    0.000000
      4          8           0        0.673846   -0.284103    0.000000
      5          1           0        1.557329   -0.600500    0.000000
 ---------------------------------------------------------------------
                    Distance matrix (angstroms):
                    1          2          3          4          5
     1  O    0.000000
     2  O    1.195891   0.000000
     3  H    2.640140   1.934520   0.000000
     4  O    3.526378   2.880305   0.945861   0.000000
     5  H    4.430303   3.818689   1.884291   0.938430   0.000000
 Stoichiometry    H2O3
 Framework group  CS[SG(H2O3)]
 Deg. of freedom     7
 Full point group                 CS      NOp   2
 Largest Abelian subgroup         CS      NOp   2
 Largest concise Abelian subgroup C1      NOp   1
                         Standard orientation:                         
 ---------------------------------------------------------------------
 Center     Atomic      Atomic             Coordinates (Angstroms)
 Number     Number       Type             X           Y           Z
 ---------------------------------------------------------------------
      1          8           0        1.193266    1.099720    0.000000
      2          8           0        0.000000    1.020526    0.000000
      3          1           0       -0.631973   -0.807855    0.000000
      4          8           0       -0.954782   -1.696926    0.000000
      5          1           0       -1.275897   -2.578706    0.000000
 ---------------------------------------------------------------------
 Rotational constants (GHZ):     64.4239998      4.1878443      3.9322319
 Standard basis: 6-31+G(d,p) (6D, 7F)
 There are    50 symmetry adapted basis functions of A'  symmetry.
 There are    17 symmetry adapted basis functions of A"  symmetry.
 Integral buffers will be    262144 words long.
 Raffenetti 2 integral format.
 Two-electron integral symmetry is turned on.
    67 basis functions,   110 primitive gaussians,    67 cartesian basis functions
    13 alpha electrons       13 beta electrons
       nuclear repulsion energy        64.8057406159 Hartrees.
 NAtoms=    5 NActive=    5 NUniq=    5 SFac= 7.50D-01 NAtFMM=   80 NAOKFM=F Big=F
 One-electron integrals computed using PRISM.
 NBasis=    67 RedAO= T  NBF=    50    17
 NBsUse=    67 1.00D-06 NBFU=    50    17
 Initial guess read from the read-write file.
 B after Tr=     0.000000    0.000000    0.000000
         Rot=    1.000000    0.000000    0.000000    0.000000 Ang=   0.00 deg.
 Initial guess orbital symmetries:
       Occupied  (A') (A') (A') (A') (A') (A') (A') (A') (A') (A")
                 (A') (A") (A')
       Virtual   (A") (A') (A') (A') (A") (A') (A') (A") (A') (A')
                 (A") (A') (A') (A') (A') (A') (A') (A') (A") (A')
                 (A') (A') (A") (A") (A') (A') (A') (A') (A") (A')
                 (A") (A') (A") (A') (A') (A') (A") (A') (A") (A')
                 (A") (A') (A') (A") (A') (A') (A') (A") (A') (A')
                 (A') (A') (A') (A')
 Harris functional with IExCor= 1009 diagonalized for initial guess.
 ExpMin= 8.45D-02 ExpMax= 5.48D+03 ExpMxC= 8.25D+02 IAcc=2 IRadAn=         0 AccDes= 0.00D+00
 HarFok:  IExCor= 1009 AccDes= 0.00D+00 IRadAn=         0 IDoV= 1
 ScaDFX=  1.000000  1.000000  1.000000  1.000000
 FoFCou: FMM=F IPFlag=           0 FMFlag=      100000 FMFlg1=           0
         NFxFlg=           0 DoJE=T BraDBF=F KetDBF=T FulRan=T
         Omega=  0.000000  0.000000  1.000000  0.000000  0.000000 ICntrl=     500 IOpCl=  0
         NMat0=    1 NMatS0=    1 NMatT0=    0 NMatD0=    1 NMtDS0=    0 NMtDT0=    0
         I1Cent=           4 NGrid=           0.
 Petite list used in FoFCou.
 Requested convergence on RMS density matrix=1.00D-08 within 128 cycles.
 Requested convergence on MAX density matrix=1.00D-06.
 Requested convergence on             energy=1.00D-06.
 No special actions if energy rises.
 Keep R1 ints in memory in canonical form, NReq=3551244.
 Integral accuracy reduced to 1.0D-05 until final iterations.
 Initial convergence to 1.0D-05 achieved.  Increase integral accuracy.
 SCF Done:  E(RM062X) =  -226.558985847     A.U. after   12 cycles
             Convg  =    0.3758D-08             -V/T =  2.0081
 Calling FoFJK, ICntrl=      2127 FMM=F ISym2X=1 I1Cent= 0 IOpClX= 0 NMat=1 NMatS=1 NMatT=0.
 ***** Axes restored to original set *****
 -------------------------------------------------------------------
 Center     Atomic                   Forces (Hartrees/Bohr)
 Number     Number              X              Y              Z
 -------------------------------------------------------------------
      1        8           0.000339830   -0.000163892    0.000000000
      2        8          -0.000290546    0.000277430    0.000000000
      3        1           0.000061247   -0.000347463    0.000000000
      4        8          -0.000075126    0.000254348    0.000000000
      5        1          -0.000035406   -0.000020423    0.000000000
 -------------------------------------------------------------------
 Cartesian Forces:  Max     0.000347463 RMS     0.000182614

 GradGradGradGradGradGradGradGradGradGradGradGradGradGradGradGradGradGrad
 Berny optimization.
 Internal  Forces:  Max     0.000615452 RMS     0.000305850
 Search for a saddle point.
 Step number   8 out of a maximum of  100
 All quantities printed in internal units (Hartrees-Bohrs-Radians)
 Swaping is turned off.
 Update second derivatives using D2CorX and points    1    2    3    4    5
                                                      6    7    8
 The second derivative matrix:
                          R1        R2        R3        R4        A1
           R1           0.54222
           R2          -0.02249   0.06139
           R3           0.04011  -0.01119   0.35981
           R4          -0.00653  -0.00012  -0.01649   0.69209
           A1           0.01328  -0.03120   0.04602   0.00127   0.04327
           A2           0.01848  -0.01430   0.03022   0.00119   0.03534
           A3           0.00598   0.00971  -0.05108   0.00647  -0.00459
           D1           0.00000   0.00000   0.00000   0.00000   0.00000
           D2           0.00000   0.00000   0.00000   0.00000   0.00000
                          A2        A3        D1        D2
           A2           0.02116
           A3          -0.00181  -0.10884
           D1           0.00000   0.00000  -0.02761
           D2           0.00000   0.00000   0.00621  -0.00293
     Eigenvalues ---   -0.11501  -0.02909  -0.00595  -0.00146   0.03001
     Eigenvalues ---    0.08977   0.36502   0.55374   0.69352
 Eigenvectors required to have negative eigenvalues:
                          A3        R3        R2        R1        A2
   1                    0.99245   0.10838  -0.05247  -0.01699  -0.01169
                          A1        R4        D1        D2
   1                   -0.00898  -0.00586   0.00000   0.00000
 RFO step:  Lambda0=2.932024022D-08 Lambda=-2.90853642D-02.
 Linear search not attempted -- option 19 set.
 Maximum step size (   0.030) exceeded in Quadratic search.
    -- Step size scaled by   0.168
 Iteration  1 RMS(Cart)=  0.00178044 RMS(Int)=  0.00896795
 Iteration  2 RMS(Cart)=  0.00005682 RMS(Int)=  0.00893613
 Iteration  3 RMS(Cart)=  0.00005641 RMS(Int)=  0.00890455
 Iteration  4 RMS(Cart)=  0.00005601 RMS(Int)=  0.00887319
 Iteration  5 RMS(Cart)=  0.00005561 RMS(Int)=  0.00884206
 Iteration  6 RMS(Cart)=  0.00005521 RMS(Int)=  0.00881115
 Iteration  7 RMS(Cart)=  0.00005482 RMS(Int)=  0.00878046
 Iteration  8 RMS(Cart)=  0.00005443 RMS(Int)=  0.00874999
 Iteration  9 RMS(Cart)=  0.00005405 RMS(Int)=  0.00871974
 Iteration 10 RMS(Cart)=  0.00005367 RMS(Int)=  0.00868969
 Iteration 11 RMS(Cart)=  0.00005329 RMS(Int)=  0.00865986
 Iteration 12 RMS(Cart)=  0.00005292 RMS(Int)=  0.00863023
 Iteration 13 RMS(Cart)=  0.00005256 RMS(Int)=  0.00860081
 Iteration 14 RMS(Cart)=  0.00005219 RMS(Int)=  0.00857160
 Iteration 15 RMS(Cart)=  0.00005183 RMS(Int)=  0.00854259
 Iteration 16 RMS(Cart)=  0.00005148 RMS(Int)=  0.00851377
 Iteration 17 RMS(Cart)=  0.00005113 RMS(Int)=  0.00848516
 Iteration 18 RMS(Cart)=  0.00005078 RMS(Int)=  0.00845673
 Iteration 19 RMS(Cart)=  0.00005043 RMS(Int)=  0.00842851
 Iteration 20 RMS(Cart)=  0.00005009 RMS(Int)=  0.00840047
 Iteration 21 RMS(Cart)=  0.00004976 RMS(Int)=  0.00837262
 Iteration 22 RMS(Cart)=  0.00004942 RMS(Int)=  0.00834496
 Iteration 23 RMS(Cart)=  0.00004909 RMS(Int)=  0.00831749
 Iteration 24 RMS(Cart)=  0.00004876 RMS(Int)=  0.00829020
 Iteration 25 RMS(Cart)=  0.00004844 RMS(Int)=  0.00826309
 Iteration 26 RMS(Cart)=  0.00004812 RMS(Int)=  0.00823616
 Iteration 27 RMS(Cart)=  0.00004780 RMS(Int)=  0.00820941
 Iteration 28 RMS(Cart)=  0.00004749 RMS(Int)=  0.00818284
 Iteration 29 RMS(Cart)=  0.00004718 RMS(Int)=  0.00815644
 Iteration 30 RMS(Cart)=  0.00004687 RMS(Int)=  0.00813022
 Iteration 31 RMS(Cart)=  0.00004656 RMS(Int)=  0.00810416
 Iteration 32 RMS(Cart)=  0.00004626 RMS(Int)=  0.00807827
 Iteration 33 RMS(Cart)=  0.00004596 RMS(Int)=  0.00805256
 Iteration 34 RMS(Cart)=  0.00004567 RMS(Int)=  0.00802700
 Iteration 35 RMS(Cart)=  0.00004537 RMS(Int)=  0.00800162
 Iteration 36 RMS(Cart)=  0.00004508 RMS(Int)=  0.00797639
 Iteration 37 RMS(Cart)=  0.00004480 RMS(Int)=  0.00795133
 Iteration 38 RMS(Cart)=  0.00004451 RMS(Int)=  0.00792643
[...]
          Differentiating once with respect to electric field.
                with respect to dipole field.
          Differentiating once with respect to nuclear coordinates.
          Keep R1 ints in memory in canonical form, NReq=3416970.
          There are    18 degrees of freedom in the 1st order CPHF.  IDoFFX=5.
     15 vectors produced by pass  0 Test12= 3.90D-15 5.56D-09 XBig12= 7.28D+00 1.75D+00.
 AX will form    15 AO Fock derivatives at one time.
     15 vectors produced by pass  1 Test12= 3.90D-15 5.56D-09 XBig12= 4.13D+00 7.74D-01.
     15 vectors produced by pass  2 Test12= 3.90D-15 5.56D-09 XBig12= 1.70D-01 1.26D-01.
     15 vectors produced by pass  3 Test12= 3.90D-15 5.56D-09 XBig12= 3.70D-03 1.78D-02.
     15 vectors produced by pass  4 Test12= 3.90D-15 5.56D-09 XBig12= 2.19D-05 1.18D-03.
     15 vectors produced by pass  5 Test12= 3.90D-15 5.56D-09 XBig12= 1.04D-07 6.78D-05.
      8 vectors produced by pass  6 Test12= 3.90D-15 5.56D-09 XBig12= 3.50D-10 4.38D-06.
      3 vectors produced by pass  7 Test12= 3.90D-15 5.56D-09 XBig12= 8.09D-13 1.79D-07.
      1 vectors produced by pass  8 Test12= 3.90D-15 5.56D-09 XBig12= 1.99D-15 1.06D-08.
 Inverted reduced A of dimension   102 with in-core refinement.
 Isotropic polarizability for W=    0.000000       15.48 Bohr**3.
 End of Minotr Frequency-dependent properties file   721 does not exist.
 End of Minotr Frequency-dependent properties file   722 does not exist.

 **********************************************************************

            Population analysis using the SCF density.

 **********************************************************************

 Orbital symmetries:
       Occupied  (A') (A') (A') (A') (A') (A') (A') (A') (A') (A")
                 (A") (A') (A')
       Virtual   (A") (A') (A') (A') (A") (A') (A') (A") (A') (A')
                 (A") (A') (A') (A') (A') (A') (A') (A') (A") (A')
                 (A') (A') (A") (A") (A') (A') (A') (A') (A") (A')
                 (A") (A') (A") (A') (A') (A') (A") (A') (A") (A')
                 (A") (A') (A') (A") (A') (A') (A') (A") (A') (A')
                 (A') (A') (A') (A')
 The electronic state is 1-A'.
 Alpha  occ. eigenvalues --  -19.84116 -19.83792 -19.60962  -1.46166  -1.09858
 Alpha  occ. eigenvalues --   -0.94191  -0.68736  -0.64920  -0.64232  -0.62712
 Alpha  occ. eigenvalues --   -0.37609  -0.37609  -0.36746
 Alpha virt. eigenvalues --   -0.14175   0.07260   0.09629   0.10443   0.13072
 Alpha virt. eigenvalues --    0.15641   0.18244   0.20317   0.20993   0.21782
 Alpha virt. eigenvalues --    0.22665   0.25615   0.31912   0.33814   0.34917
 Alpha virt. eigenvalues --    0.43160   0.94031   1.03341   1.10138   1.11218
 Alpha virt. eigenvalues --    1.13319   1.16543   1.17242   1.21851   1.22026
 Alpha virt. eigenvalues --    1.22717   1.36702   1.39426   1.50464   1.51316
 Alpha virt. eigenvalues --    1.53130   1.54821   1.56061   1.58910   1.63178
 Alpha virt. eigenvalues --    1.85330   1.87213   1.87505   1.96185   2.03279
 Alpha virt. eigenvalues --    2.31090   2.31648   2.54305   2.60492   2.61914
 Alpha virt. eigenvalues --    2.68363   2.94332   3.06970   3.09886   3.40841
 Alpha virt. eigenvalues --    3.73511   3.80603   4.12484   5.61500
          Condensed to atoms (all electrons):
              1          2          3          4          5
     1  O    7.623944   0.344870  -0.010092   0.008094  -0.000032
     2  O    0.344870   7.648812   0.027557  -0.006084   0.001093
     3  H   -0.010092   0.027557   0.251605   0.297064  -0.017146
     4  O    0.008094  -0.006084   0.297064   8.282892   0.320467
     5  H   -0.000032   0.001093  -0.017146   0.320467   0.261166
 Mulliken atomic charges:
              1
     1  O    0.033215
     2  O   -0.016248
     3  H    0.451012
     4  O   -0.902433
     5  H    0.434453
 Sum of Mulliken atomic charges =   0.00000
 Mulliken charges with hydrogens summed into heavy atoms:
              1
     1  O    0.033215
     2  O   -0.016248
     4  O   -0.016968
 Sum of Mulliken charges with hydrogens summed into heavy atoms =   0.00000
 APT atomic charges:
              1
     1  O    0.032903
     2  O   -0.044944
     3  H    0.625334
     4  O   -1.142868
     5  H    0.529576
 Sum of APT charges=   0.00000
 APT Atomic charges with hydrogens summed into heavy atoms:
              1
     1  O    0.032903
     2  O   -0.044944
     3  H    0.000000
     4  O    0.012041
     5  H    0.000000
 Sum of APT charges=   0.00000
 Electronic spatial extent (au):  <R**2>=            275.3022
 Charge=              0.0000 electrons
 Dipole moment (field-independent basis, Debye):
    X=             -0.0010    Y=             -0.4339    Z=              0.0000  Tot=              0.4339
 Quadrupole moment (field-independent basis, Debye-Ang):
   XX=            -17.5375   YY=            -14.2186   ZZ=            -17.1042
   XY=             -1.9449   XZ=              0.0000   YZ=              0.0000
 Traceless Quadrupole moment (field-independent basis, Debye-Ang):
   XX=             -1.2507   YY=              2.0682   ZZ=             -0.8175
   XY=             -1.9449   XZ=              0.0000   YZ=              0.0000
 Octapole moment (field-independent basis, Debye-Ang**2):
  XXX=              0.0241  YYY=             16.7362  ZZZ=              0.0000  XYY=            -10.1523
  XXY=              1.8118  XXZ=              0.0000  XZZ=              0.9029  YZZ=             -4.1417
  YYZ=              0.0000  XYZ=              0.0000
 Hexadecapole moment (field-independent basis, Debye-Ang**3):
 XXXX=            -41.0176 YYYY=           -184.5320 ZZZZ=            -14.2016 XXXY=             19.8704
 XXXZ=              0.0000 YYYX=            -10.4204 YYYZ=              0.0000 ZZZX=              0.0000
 ZZZY=              0.0000 XXYY=            -40.1200 XXZZ=             -8.9644 YYZZ=            -46.3727
 XXYZ=              0.0000 YYXZ=              0.0000 ZZXY=              7.6876
 N-N= 6.517615893954D+01 E-N=-6.647101181604D+02  KE= 2.247345259202D+02
 Symmetry A'   KE= 2.159542218158D+02
 Symmetry A"   KE= 8.780304104364D+00
  Exact polarizability:  15.702   2.076  19.398   0.000   0.000  11.339
 Approx polarizability:  18.914   4.875  20.439   0.000   0.000  11.907
 Calling FoFJK, ICntrl=    100127 FMM=F ISym2X=1 I1Cent= 0 IOpClX= 0 NMat=1 NMatS=1 NMatT=0.
 Full mass-weighted force constant matrix:
 Low frequencies ----1538.4079-1536.7944    0.0013    0.0014    0.0016   30.7182
 Low frequencies ---   31.3155   76.7308   92.5087
 ******    2 imaginary frequencies (negative Signs) ****** 
 Diagonal vibrational polarizability:
        5.1149830       4.7177048       6.2453106
 Harmonic frequencies (cm**-1), IR intensities (KM/Mole), Raman scattering
 activities (A**4/AMU), depolarization ratios for plane and unpolarized
 incident light, reduced masses (AMU), force constants (mDyne/A),
 and normal coordinates:
                     1                      2                      3
                    A"                     A'                     A'
 Frequencies -- -1538.4027             -1536.7943                91.5687
 Red. masses --     1.1264                 1.1295                 6.6858
 Frc consts  --     1.5707                 1.5717                 0.0330
 IR Inten    --   544.4731               510.9327                 0.1168
  Atom  AN      X      Y      Z        X      Y      Z        X      Y      Z
     1   8     0.00   0.00   0.00     0.00   0.00   0.00    -0.19   0.42   0.00
     2   8     0.00   0.00   0.00     0.00   0.00   0.00     0.20  -0.02   0.00
     3   1     0.00   0.00   0.70     0.61   0.31   0.00     0.37  -0.17   0.00
     4   8     0.00   0.00  -0.09    -0.08  -0.04   0.00     0.00  -0.36   0.00
     5   1     0.00   0.00   0.71     0.64   0.33   0.00    -0.39  -0.55   0.00
                     4                      5                      6
                    A'                     A"                     A'
 Frequencies --   188.7809               326.3361               400.3444
 Red. masses --     6.9101                 1.0355                 1.1275
 Frc consts  --     0.1451                 0.0650                 0.1065
 IR Inten    --     2.2176                 0.2144                 0.5866
  Atom  AN      X      Y      Z        X      Y      Z        X      Y      Z
     1   8    -0.11   0.05   0.00     0.00   0.00   0.00    -0.01   0.04   0.00
     2   8     0.30  -0.41   0.00     0.00   0.00   0.03     0.06  -0.03   0.00
     3   1     0.20   0.51   0.00     0.00   0.00  -0.74    -0.68  -0.34   0.00
     4   8    -0.16   0.32   0.00     0.00   0.00  -0.03    -0.04  -0.01   0.00
     5   1    -0.54   0.13   0.00     0.00   0.00   0.67     0.57   0.30   0.00
                     7                      8                      9
                    A'                     A'                     A'
 Frequencies --  1776.5012              3989.0336              4425.5472
 Red. masses --    15.9831                 1.0118                 1.1218
 Frc consts  --    29.7196                 9.4863                12.9446
 IR Inten    --     0.2553               228.5405              1072.9654
  Atom  AN      X      Y      Z        X      Y      Z        X      Y      Z
     1   8     0.53   0.47   0.00     0.00   0.00   0.00     0.00   0.00   0.00
     2   8    -0.53  -0.47   0.00     0.00   0.00   0.00     0.00   0.00   0.00
     3   1    -0.02  -0.02   0.00    -0.37   0.73   0.00    -0.25   0.49   0.00
     4   8     0.00   0.00   0.00     0.01  -0.01   0.00     0.04  -0.08   0.00
     5   1     0.01   0.01   0.00     0.26  -0.51   0.00    -0.38   0.74   0.00

 -------------------
 - Thermochemistry -
 -------------------
 Temperature   298.150 Kelvin.  Pressure   1.00000 Atm.
 Atom     1 has atomic number  8 and mass  15.99491
 Atom     2 has atomic number  8 and mass  15.99491
 Atom     3 has atomic number  1 and mass   1.00783
 Atom     4 has atomic number  8 and mass  15.99491
 Atom     5 has atomic number  1 and mass   1.00783
 Molecular mass:    50.00039 amu.
 Principal axes and moments of inertia in atomic units:
                           1         2         3
     Eigenvalues --    31.20268 413.47252 444.67520
           X           -0.18367   0.98299   0.00000
           Y            0.98299   0.18367   0.00000
           Z            0.00000   0.00000   1.00000
 This molecule is an asymmetric top.
 Rotational symmetry number  1.
 Rotational temperatures (Kelvin)      2.77585     0.20948     0.19478
 Rotational constants (GHZ):          57.83930     4.36484     4.05856
    2 imaginary frequencies ignored.
 Zero-point vibrational energy      66979.6 (Joules/Mol)
                                   16.00850 (Kcal/Mol)
 Warning -- explicit consideration of   4 degrees of freedom as
           vibrations may cause significant error
 Vibrational temperatures:    131.75   271.61   469.52   576.01  2555.99
          (Kelvin)           5739.32  6367.37
 
 Zero-point correction=                           0.025511 (Hartree/Particle)
 Thermal correction to Energy=                    0.030372
 Thermal correction to Enthalpy=                  0.031316
 Thermal correction to Gibbs Free Energy=        -0.001481
 Sum of electronic and zero-point Energies=           -226.533558
 Sum of electronic and thermal Energies=              -226.528697
 Sum of electronic and thermal Enthalpies=            -226.527753
 Sum of electronic and thermal Free Energies=         -226.560550
 
                     E (Thermal)             CV                S
                      KCal/Mol        Cal/Mol-Kelvin    Cal/Mol-Kelvin
 Total                   19.059             12.892             69.027
 Electronic               0.000              0.000              0.000
 Translational            0.889              2.981             37.652
 Rotational               0.889              2.981             23.266
 Vibrational             17.281              6.930              8.109
 Vibration     1          0.602              1.955              3.626
 Vibration     2          0.633              1.855              2.240
 Vibration     3          0.710              1.623              1.278
 Vibration     4          0.766              1.469              0.961
                       Q            Log10(Q)             Ln(Q)
 Total Bot       0.479860D+01          0.681114          1.568323
 Total V=0       0.260265D+13         12.415415         28.587551
 Vib (Bot)       0.127354D-10        -10.894988        -25.086638
 Vib (Bot)    1  0.224475D+01          0.351167          0.808593
 Vib (Bot)    2  0.106064D+01          0.025569          0.058874
 Vib (Bot)    3  0.573843D+00         -0.241207         -0.555400
 Vib (Bot)    4  0.445095D+00         -0.351547         -0.809467
 Vib (V=0)       0.690737D+01          0.839313          1.932590
 Vib (V=0)    1  0.279976D+01          0.447121          1.029533
 Vib (V=0)    2  0.167259D+01          0.223389          0.514372
 Vib (V=0)    3  0.126111D+01          0.100755          0.231996
 Vib (V=0)    4  0.116941D+01          0.067967          0.156499
 Electronic      0.100000D+01          0.000000          0.000000
 Translational   0.138968D+08          7.142915         16.447170
 Rotational      0.271136D+05          4.433187         10.207791
 ***** Axes restored to original set *****
 -------------------------------------------------------------------
 Center     Atomic                   Forces (Hartrees/Bohr)
 Number     Number              X              Y              Z
 -------------------------------------------------------------------
      1        8          -0.000016430   -0.000065779    0.000000000
      2        8          -0.000035880    0.000053940    0.000000000
      3        1           0.000049837   -0.000030836    0.000000000
      4        8          -0.000016947    0.000032420    0.000000000
      5        1           0.000019419    0.000010256    0.000000000
 -------------------------------------------------------------------
 Cartesian Forces:  Max     0.000065779 RMS     0.000030604

 GradGradGradGradGradGradGradGradGradGradGradGradGradGradGradGradGradGrad
 Berny optimization.
 Internal  Forces:  Max     0.000051007 RMS     0.000023018
 Search for a saddle point.
 Step number   1 out of a maximum of    2
 All quantities printed in internal units (Hartrees-Bohrs-Radians)
 Swaping is turned off.
 Second derivative matrix not updated -- analytic derivatives used.
 The second derivative matrix:
                          R1        R2        R3        R4        A1
           R1           0.95627
           R2          -0.00109   0.00978
           R3           0.00322   0.01320   0.62680
           R4           0.00034  -0.00014  -0.02330   0.66017
           A1           0.00417  -0.00104  -0.00140  -0.00015   0.02766
           A2          -0.00524   0.00053   0.00113   0.00065  -0.00234
           A3          -0.00160   0.00044  -0.00005   0.00091  -0.00053
           D1           0.00000   0.00000   0.00000   0.00000   0.00000
           D2           0.00000   0.00000   0.00000   0.00000   0.00000
                          A2        A3        D1        D2
           A2           0.01085
           A3           0.00649  -0.12475
           D1           0.00000   0.00000   0.00011
           D2           0.00000   0.00000   0.00000   0.00000
     Eigenvalues ---   -0.12506   0.00000   0.00011   0.00934   0.01090
     Eigenvalues ---    0.02802   0.61503   0.67220   0.95635
 Eigenvectors required to have negative eigenvalues:
                          A3        A2        R2        A1        R1
   1                    0.99886  -0.04758  -0.00308   0.00266   0.00123
                          R4        R3        D1        D2
   1                   -0.00112   0.00015   0.00000   0.00000
 Eigenvalue     2 is  -3.79D-07 should be greater than     0.000000 Eigenvector:
                          D2        D1        R3        R2        R4
   1                    0.99997  -0.00773   0.00000   0.00000   0.00000
                          A1        A2        R1        A3
   1                    0.00000   0.00000   0.00000   0.00000
 Angle between quadratic step and forces=  52.38 degrees.
 Linear search not attempted -- option 19 set.
 Iteration  1 RMS(Cart)=  0.00152769 RMS(Int)=  0.00000040
 Iteration  2 RMS(Cart)=  0.00000047 RMS(Int)=  0.00000000
 ClnCor:  largest displacement from symmetrization is 5.14D-10 for atom     3.
 Variable       Old X    -DE/DX   Delta X   Delta X   Delta X     New X
                                 (Linear)    (Quad)   (Total)
    R1        2.25953  -0.00005   0.00000  -0.00006  -0.00006   2.25947
    R2        3.64180   0.00004   0.00000   0.00428   0.00428   3.64608
    R3        1.78736  -0.00001   0.00000  -0.00011  -0.00011   1.78725
    R4        1.77327   0.00001   0.00000   0.00002   0.00002   1.77329
    A1        1.91575   0.00000   0.00000   0.00021   0.00021   1.91596
    A2        3.05185  -0.00001   0.00000  -0.00117  -0.00117   3.05068
    A3        3.13988   0.00001   0.00000  -0.00011  -0.00011   3.13977
    D1        0.00000   0.00000   0.00000   0.00000   0.00000   0.00000
    D2        0.00000   0.00000   0.00000   0.00000   0.00000   0.00000
         Item               Value     Threshold  Converged?
 Maximum Force            0.000051     0.000450     YES
 RMS     Force            0.000023     0.000300     YES
 Maximum Displacement     0.002269     0.001800     NO 
 RMS     Displacement     0.001528     0.001200     NO 
 Predicted change in Energy=-9.364126D-08
 GradGradGradGradGradGradGradGradGradGradGradGradGradGradGradGradGradGrad


 Test job not archived.
 1|1|UNPC-DESKTOP-319GPER|Freq|RM062X|6-31+G(d,p)|H2O3|SAGAD|09-Feb-202
 1|0||#N Geom=AllCheck Guess=TCheck SCRF=Check Test GenChk RM062X/6-31+
 G(d,p) Freq||ts OOH vs OH||0,1|O,-2.0483801703,1.8440659044,0.|O,-2.06
 53294191,0.6484953873,0.|H,-0.2611176061,-0.0288210552,0.|O,0.65059765
 24,-0.2805455079,0.|H,1.555551883,-0.5287408185,0.||Version=IA32W-G09R
 evA.02|State=1-A'|HF=-226.5590692|RMSD=1.579e-009|RMSF=3.060e-005|Zero
 Point=0.0255112|Thermal=0.030372|Dipole=-0.1258879,0.1153005,0.|Dipole
 Deriv=0.0196078,-0.0061124,0.,0.0505856,0.0505842,0.,0.,0.,0.0285171,-
 0.1044137,0.0940925,0.,0.0040992,-0.0379086,0.,0.,0.,0.0074889,0.86439
 81,-0.2525651,0.,-0.1337922,0.529108,0.,0.,0.,0.4824957,-1.340381,0.18
 72752,0.,0.0924503,-1.0566124,0.,0.,0.,-1.031612,0.5607888,-0.0226901,
 0.,-0.0133428,0.5148288,0.,0.,0.,0.5131103|Polar=15.6535987,-2.0319992
 ,19.4463738,0.,0.,11.3388915|PG=CS [SG(H2O3)]|NImag=2||0.00615842,0.01
 216829,0.95661739,0.,0.,0.00157667,-0.00746728,-0.00991521,0.,0.018092
 69,-0.01482433,-0.95410286,0.,0.01072665,0.95511704,0.,0.,-0.00199746,
 0.,0.,0.00400835,0.00099472,-0.00574437,0.,0.00166992,0.00330940,0.,0.
 56447923,0.00384662,-0.00314290,0.,-0.00565093,-0.00023767,0.,-0.16558
 314,0.01114511,0.,0.,0.00067811,0.,0.,-0.00271813,0.,0.,-0.03707119,0.
 00039669,0.00300938,0.,-0.01263522,0.00114357,0.,-0.58566946,0.1841064
 3,0.,1.22758814,-0.00061872,0.00020792,0.,0.00378901,-0.00127125,0.,0.
 18504327,0.03009855,0.,-0.38379156,-0.05628847,0.,0.,-0.00014062,0.,0.
 ,-0.00022030,0.,0.,0.08106513,0.,0.,-0.16092161,-0.00008254,0.00048191
 ,0.,0.00033990,-0.00035528,0.,0.01852559,-0.01671899,0.,-0.62968015,0.
 19557799,0.,0.61089720,-0.00057186,0.00042045,0.,0.00105048,0.00049475
 ,0.,-0.01702517,-0.03786308,0.,0.19553218,0.02725325,0.,-0.17898563,0.
 00969462,0.,0.,-0.00011670,0.,0.,0.00092753,0.,0.,-0.04195392,0.,0.,0.
 08021740,0.,0.,-0.03907431||0.00001643,0.00006578,0.,0.00003588,-0.000
 05394,0.,-0.00004984,0.00003084,0.,0.00001695,-0.00003242,0.,-0.000019
 42,-0.00001026,0.|||@


 FAULTILY FAULTLESS, ICILY REGULAR, SPLENDIDLY NULL...
           MAUDE BY TENNYSON
 Job cpu time:  0 days  0 hours  0 minutes  8.0 seconds.
 File lengths (MBytes):  RWF=      6 Int=      0 D2E=      0 Chk=      1 Scr=      1
 Normal termination of Gaussian 09 at Tue Feb 09 19:09:22 2021.
