 Entering Link 1 = C:\G09W\l1.exe PID=      1124.
  
 Copyright (c) 1988,1990,1992,1993,1995,1998,2003,2009, Gaussian, Inc.
                  All Rights Reserved.
  
 This is part of the Gaussian(R) 09 program.  It is based on
 the Gaussian(R) 03 system (copyright 2003, Gaussian, Inc.),
 the Gaussian(R) 98 system (copyright 1998, Gaussian, Inc.),
 the Gaussian(R) 94 system (copyright 1995, Gaussian, Inc.),
 the Gaussian 92(TM) system (copyright 1992, Gaussian, Inc.),
 the Gaussian 90(TM) system (copyright 1990, Gaussian, Inc.),
 the Gaussian 88(TM) system (copyright 1988, Gaussian, Inc.),
 the Gaussian 86(TM) system (copyright 1986, Carnegie Mellon
 University), and the Gaussian 82(TM) system (copyright 1983,
 Carnegie Mellon University). Gaussian is a federally registered
 trademark of Gaussian, Inc.
  
 This software contains proprietary and confidential information,
 including trade secrets, belonging to Gaussian, Inc.
  
 This software is provided under written license and may be
 used, copied, transmitted, or stored only in accord with that
 written license.
  
 The following legend is applicable only to US Government
 contracts under FAR:
  
                    RESTRICTED RIGHTS LEGEND
  
 Use, reproduction and disclosure by the US Government is
 subject to restrictions as set forth in subparagraphs (a)
 and (c) of the Commercial Computer Software - Restricted
 Rights clause in FAR 52.227-19.
  
 Gaussian, Inc.
 340 Quinnipiac St., Bldg. 40, Wallingford CT 06492
  
  
 ---------------------------------------------------------------
 Warning -- This program may not be used in any manner that
 competes with the business of Gaussian, Inc. or will provide
 assistance to any competitor of Gaussian, Inc.  The licensee
 of this program is prohibited from giving any competitor of
 Gaussian, Inc. access to this program.  By using this program,
 the user acknowledges that Gaussian, Inc. is engaged in the
 business of creating and licensing software in the field of
 computational chemistry and represents and warrants to the
 licensee that it is not a competitor of Gaussian, Inc. and that
 it will not use this program in any manner prohibited above.
 ---------------------------------------------------------------
  

 Cite this work as:
 Gaussian 09, Revision A.02,
 M. J. Frisch, G. W. Trucks, H. B. Schlegel, G. E. Scuseria, 
 M. A. Robb, J. R. Cheeseman, G. Scalmani, V. Barone, B. Mennucci, 
 G. A. Petersson, H. Nakatsuji, M. Caricato, X. Li, H. P. Hratchian, 
 A. F. Izmaylov, J. Bloino, G. Zheng, J. L. Sonnenberg, M. Hada, 
 M. Ehara, K. Toyota, R. Fukuda, J. Hasegawa, M. Ishida, T. Nakajima, 
 Y. Honda, O. Kitao, H. Nakai, T. Vreven, J. A. Montgomery, Jr., 
 J. E. Peralta, F. Ogliaro, M. Bearpark, J. J. Heyd, E. Brothers, 
 K. N. Kudin, V. N. Staroverov, R. Kobayashi, J. Normand, 
 K. Raghavachari, A. Rendell, J. C. Burant, S. S. Iyengar, J. Tomasi, 
 M. Cossi, N. Rega, J. M. Millam, M. Klene, J. E. Knox, J. B. Cross, 
 V. Bakken, C. Adamo, J. Jaramillo, R. Gomperts, R. E. Stratmann, 
 O. Yazyev, A. J. Austin, R. Cammi, C. Pomelli, J. W. Ochterski, 
 R. L. Martin, K. Morokuma, V. G. Zakrzewski, G. A. Voth, 
 P. Salvador, J. J. Dannenberg, S. Dapprich, A. D. Daniels, 
 O. Farkas, J. B. Foresman, J. V. Ortiz, J. Cioslowski, 
 and D. J. Fox, Gaussian, Inc., Wallingford CT, 2009.
 
 ******************************************
 Gaussian 09:  IA32W-G09RevA.02 11-Jun-2009
                08-Feb-2021 
 ******************************************
 %chk=D:\Documents\rayGit\FQ\quimicaComputacional\proyecto\decompositionHydrogenP
 eroxide\descompositionByRadicals\gasPhase\step4\ts\tsM062X.chk
 %mem=1500MB
 %nprocshared=4
 Will use up to    4 processors via shared memory.
 ----------------------------------------------------------------------
 # opt=(calcfc,ts,noeigen,maxcycles=100) freq=noraman 6-31+g(d,p) m062x
 ----------------------------------------------------------------------
 1/5=1,6=100,10=4,11=1,14=-1,18=20,26=3,38=1/1,3;
 2/9=110,12=2,17=6,18=5,40=1/2;
 3/5=1,6=6,7=111,11=2,16=1,25=1,30=1,71=2,74=-55/1,2,3;
 4//1;
 5/5=2,38=5/2;
 8/6=4,10=90,11=11/1;
 11/6=1,8=1,9=11,15=111,16=1/1,2,10;
 10/6=1,7=6,13=1/2;
 6/7=2,8=2,9=2,10=2,28=1/1;
 7/10=1,18=20,25=1/1,2,3,16;
 1/5=1,6=100,10=4,11=1,14=-1,18=20/3(2);
 2/9=110/2;
 99//99;
 2/9=110/2;
 3/5=1,6=6,7=111,11=2,16=1,25=1,30=1,71=1,74=-55/1,2,3;
 4/5=5,16=3/1;
 5/5=2,38=5/2;
 7//1,2,3,16;
 1/5=1,6=100,11=1,14=-1,18=20/3(-5);
 2/9=110/2;
 6/7=2,8=2,9=2,10=2,19=2,28=1/1;
 99/9=1/99;
 ---
 ts2
 ---
 Symbolic Z-matrix:
 Charge =  0 Multiplicity = 1
 O                    -0.45749  -0.42312   0. 
 O                     0.66823  -0.0075    0. 
 H                     1.6271    1.146     0. 
 O                     1.59755   2.46868   0. 
 H                     2.55755   2.46868   0. 
 

 GradGradGradGradGradGradGradGradGradGradGradGradGradGradGradGradGradGrad
 Berny optimization.
 Initialization pass.
                           ----------------------------
                           !    Initial Parameters    !
                           ! (Angstroms and Degrees)  !
 --------------------------                            --------------------------
 ! Name  Definition              Value          Derivative Info.                !
 --------------------------------------------------------------------------------
 ! R1    R(1,2)                  1.2            calculate D2E/DX2 analytically  !
 ! R2    R(2,3)                  1.5            calculate D2E/DX2 analytically  !
 ! R3    R(3,4)                  1.323          calculate D2E/DX2 analytically  !
 ! R4    R(4,5)                  0.96           calculate D2E/DX2 analytically  !
 ! A1    A(1,2,3)              150.0            calculate D2E/DX2 analytically  !
 ! A2    A(2,3,4)              138.9843         calculate D2E/DX2 analytically  !
 ! A3    A(3,4,5)               88.7199         calculate D2E/DX2 analytically  !
 ! D1    D(1,2,3,4)              0.0            calculate D2E/DX2 analytically  !
 ! D2    D(2,3,4,5)            180.0            calculate D2E/DX2 analytically  !
 --------------------------------------------------------------------------------
 Trust Radius=3.00D-01 FncErr=1.00D-07 GrdErr=1.00D-06
 Number of steps in this run= 100 maximum allowed number of steps= 100.
 Search for a saddle point of order  1.
 GradGradGradGradGradGradGradGradGradGradGradGradGradGradGradGradGradGrad

                          Input orientation:                          
 ---------------------------------------------------------------------
 Center     Atomic      Atomic             Coordinates (Angstroms)
 Number     Number       Type             X           Y           Z
 ---------------------------------------------------------------------
      1          8           0       -0.457493   -0.423123    0.000000
      2          8           0        0.668232   -0.007500    0.000000
      3          1           0        1.627101    1.146004    0.000000
      4          8           0        1.597546    2.468681    0.000000
      5          1           0        2.557546    2.468681    0.000000
 ---------------------------------------------------------------------
                    Distance matrix (angstroms):
                    1          2          3          4          5
     1  O    0.000000
     2  O    1.200000   0.000000
     3  H    2.609155   1.500000   0.000000
     4  O    3.547636   2.644825   1.323008   0.000000
     5  H    4.177678   3.114640   1.617159   0.960000   0.000000
 Stoichiometry    H2O3
 Framework group  CS[SG(H2O3)]
 Deg. of freedom     7
 Full point group                 CS      NOp   2
 Largest Abelian subgroup         CS      NOp   2
 Largest concise Abelian subgroup C1      NOp   1
                         Standard orientation:                         
 ---------------------------------------------------------------------
 Center     Atomic      Atomic             Coordinates (Angstroms)
 Number     Number       Type             X           Y           Z
 ---------------------------------------------------------------------
      1          8           0        1.097132    1.261287    0.000000
      2          8           0        0.000000    0.775178    0.000000
      3          1           0       -0.883863   -0.436757    0.000000
      4          8           0       -0.770569   -1.754905    0.000000
      5          1           0       -1.728641   -1.815725    0.000000
 ---------------------------------------------------------------------
 Rotational constants (GHZ):     94.1684162      4.4030331      4.2063565
 Standard basis: 6-31+G(d,p) (6D, 7F)
 There are    50 symmetry adapted basis functions of A'  symmetry.
 There are    17 symmetry adapted basis functions of A"  symmetry.
 Integral buffers will be    262144 words long.
 Raffenetti 2 integral format.
 Two-electron integral symmetry is turned on.
    67 basis functions,   110 primitive gaussians,    67 cartesian basis functions
    13 alpha electrons       13 beta electrons
       nuclear repulsion energy        65.3285982568 Hartrees.
 NAtoms=    5 NActive=    5 NUniq=    5 SFac= 7.50D-01 NAtFMM=   80 NAOKFM=F Big=F
 One-electron integrals computed using PRISM.
 NBasis=    67 RedAO= T  NBF=    50    17
 NBsUse=    67 1.00D-06 NBFU=    50    17
 Harris functional with IExCor= 1009 diagonalized for initial guess.
 ExpMin= 8.45D-02 ExpMax= 5.48D+03 ExpMxC= 8.25D+02 IAcc=2 IRadAn=         0 AccDes= 0.00D+00
 HarFok:  IExCor= 1009 AccDes= 0.00D+00 IRadAn=         0 IDoV= 1
 ScaDFX=  1.000000  1.000000  1.000000  1.000000
 FoFCou: FMM=F IPFlag=           0 FMFlag=      100000 FMFlg1=           0
         NFxFlg=           0 DoJE=T BraDBF=F KetDBF=T FulRan=T
         Omega=  0.000000  0.000000  1.000000  0.000000  0.000000 ICntrl=     500 IOpCl=  0
         NMat0=    1 NMatS0=    1 NMatT0=    0 NMatD0=    1 NMtDS0=    0 NMtDT0=    0
         I1Cent=           4 NGrid=           0.
 Petite list used in FoFCou.
 Initial guess orbital symmetries:
       Occupied  (A') (A') (A') (A') (A') (A') (A') (A') (A') (A")
                 (A') (A") (A')
       Virtual   (A") (A') (A') (A') (A") (A') (A') (A') (A") (A')
                 (A") (A') (A') (A') (A') (A') (A') (A') (A') (A")
                 (A') (A") (A') (A') (A') (A") (A') (A') (A') (A')
                 (A") (A") (A") (A') (A') (A") (A') (A') (A") (A')
                 (A") (A') (A') (A') (A") (A") (A') (A') (A') (A')
                 (A') (A') (A') (A')
 The electronic state of the initial guess is 1-A'.
 Requested convergence on RMS density matrix=1.00D-08 within 128 cycles.
 Requested convergence on MAX density matrix=1.00D-06.
 Requested convergence on             energy=1.00D-06.
 No special actions if energy rises.
 Keep R1 ints in memory in canonical form, NReq=3551244.
 Integral accuracy reduced to 1.0D-05 until final iterations.
 Initial convergence to 1.0D-05 achieved.  Increase integral accuracy.
 SCF Done:  E(RM062X) =  -226.520523955     A.U. after   20 cycles
             Convg  =    0.1147D-08             -V/T =  2.0089
 Range of M.O.s used for correlation:     1    67
 NBasis=    67 NAE=    13 NBE=    13 NFC=     0 NFV=     0
 NROrb=     67 NOA=    13 NOB=    13 NVA=    54 NVB=    54

 **** Warning!!: The largest alpha MO coefficient is  0.18298150D+02

 Symmetrizing basis deriv contribution to polar:
 IMax=3 JMax=2 DiffMx= 0.00D+00
 G2DrvN: will do     6 centers at a time, making    1 passes doing MaxLOS=2.
 Calling FoFCou, ICntrl=  3107 FMM=F I1Cent=   0 AccDes= 0.00D+00.
 FoFDir/FoFCou used for L=0 through L=2.
 End of G2Drv Frequency-dependent properties file   721 does not exist.
 End of G2Drv Frequency-dependent properties file   722 does not exist.
          IDoAtm=11111
          Differentiating once with respect to nuclear coordinates.
          Keep R1 ints in memory in canonical form, NReq=3416970.
          There are    18 degrees of freedom in the 1st order CPHF.  IDoFFX=5.
     12 vectors produced by pass  0 Test12= 3.90D-11 5.56D-07 XBig12= 9.66D-02 1.71D-01.
 AX will form    12 AO Fock derivatives at one time.
     12 vectors produced by pass  1 Test12= 3.90D-11 5.56D-07 XBig12= 7.74D-03 3.66D-02.
     12 vectors produced by pass  2 Test12= 3.90D-11 5.56D-07 XBig12= 1.48D-04 5.19D-03.
     12 vectors produced by pass  3 Test12= 3.90D-11 5.56D-07 XBig12= 1.73D-06 4.40D-04.
     12 vectors produced by pass  4 Test12= 3.90D-11 5.56D-07 XBig12= 2.18D-08 4.03D-05.
      7 vectors produced by pass  5 Test12= 3.90D-11 5.56D-07 XBig12= 2.45D-10 4.12D-06.
 Inverted reduced A of dimension    67 with in-core refinement.
 End of Minotr Frequency-dependent properties file   721 does not exist.
 End of Minotr Frequency-dependent properties file   722 does not exist.

 **********************************************************************

            Population analysis using the SCF density.

 **********************************************************************

 Orbital symmetries:
       Occupied  (A') (A') (A') (A') (A') (A') (A') (A') (A") (A')
                 (A') (A') (A")
       Virtual   (A") (A') (A') (A") (A') (A') (A') (A') (A") (A')
                 (A") (A') (A') (A') (A') (A') (A') (A') (A') (A")
                 (A') (A') (A") (A') (A') (A") (A') (A') (A') (A")
                 (A') (A") (A') (A') (A") (A') (A") (A') (A') (A")
                 (A") (A') (A') (A') (A") (A") (A') (A') (A') (A')
                 (A') (A') (A') (A')
 The electronic state is 1-A'.
 Alpha  occ. eigenvalues --  -19.85888 -19.85719 -19.63881  -1.47461  -1.06968
 Alpha  occ. eigenvalues --   -0.97154  -0.69292  -0.66455  -0.64241  -0.50189
 Alpha  occ. eigenvalues --   -0.44008  -0.37463  -0.36231
 Alpha virt. eigenvalues --   -0.16275   0.03377   0.08596   0.12535   0.12764
 Alpha virt. eigenvalues --    0.15047   0.15712   0.19005   0.19524   0.23781
 Alpha virt. eigenvalues --    0.24087   0.27184   0.28798   0.33445   0.34053
 Alpha virt. eigenvalues --    0.36271   0.96409   1.03017   1.05360   1.08343
 Alpha virt. eigenvalues --    1.10164   1.13641   1.15051   1.18690   1.22036
 Alpha virt. eigenvalues --    1.22612   1.26524   1.36424   1.46858   1.48579
 Alpha virt. eigenvalues --    1.52459   1.54077   1.55021   1.62643   1.65143
 Alpha virt. eigenvalues --    1.69102   1.72147   1.93146   1.94037   1.94387
 Alpha virt. eigenvalues --    2.31202   2.33532   2.47369   2.52762   2.59481
 Alpha virt. eigenvalues --    2.72547   2.72845   2.84149   2.92763   3.37258
 Alpha virt. eigenvalues --    3.52415   3.69917   3.96887   4.10712
          Condensed to atoms (all electrons):
              1          2          3          4          5
     1  O    7.732931   0.189260   0.050736   0.007238   0.004092
     2  O    0.189260   7.921052  -0.129502  -0.027557  -0.002813
     3  H    0.050736  -0.129502   0.518387   0.232238  -0.008415
     4  O    0.007238  -0.027557   0.232238   8.289533   0.234584
     5  H    0.004092  -0.002813  -0.008415   0.234584   0.438375
 Mulliken atomic charges:
              1
     1  O    0.015744
     2  O    0.049560
     3  H    0.336556
     4  O   -0.736036
     5  H    0.334176
 Sum of Mulliken atomic charges =   0.00000
 Mulliken charges with hydrogens summed into heavy atoms:
              1
     1  O    0.015744
     2  O    0.049560
     4  O   -0.065304
 Sum of Mulliken charges with hydrogens summed into heavy atoms =   0.00000
 APT atomic charges:
              1
     1  O    0.201037
     2  O   -0.125273
     3  H    0.311196
     4  O   -0.985481
     5  H    0.598521
 Sum of APT charges=   0.00000
 APT Atomic charges with hydrogens summed into heavy atoms:
              1
     1  O    0.201037
     2  O   -0.125273
     3  H    0.000000
     4  O   -0.075764
     5  H    0.000000
 Sum of APT charges=   0.00000
 Electronic spatial extent (au):  <R**2>=            267.3753
 Charge=              0.0000 electrons
 Dipole moment (field-independent basis, Debye):
    X=             -1.0852    Y=              2.8240    Z=              0.0000  Tot=              3.0253
 Quadrupole moment (field-independent basis, Debye-Ang):
   XX=            -13.3014   YY=            -22.5012   ZZ=            -17.3419
   XY=              1.8296   XZ=              0.0000   YZ=              0.0000
 Traceless Quadrupole moment (field-independent basis, Debye-Ang):
   XX=              4.4134   YY=             -4.7864   ZZ=              0.3730
   XY=              1.8296   XZ=              0.0000   YZ=              0.0000
 Octapole moment (field-independent basis, Debye-Ang**2):
  XXX=             -6.5164  YYY=             11.7797  ZZZ=              0.0000  XYY=             -0.8509
  XXY=             -4.3247  XXZ=              0.0000  XZZ=              1.9893  YZZ=              4.4272
  YYZ=              0.0000  XYZ=              0.0000
 Hexadecapole moment (field-independent basis, Debye-Ang**3):
 XXXX=            -68.0311 YYYY=           -222.5815 ZZZZ=            -14.4465 XXXY=            -35.5440
 XXXZ=              0.0000 YYYX=            -46.6708 YYYZ=              0.0000 ZZZX=              0.0000
 ZZZY=              0.0000 XXYY=            -36.2171 XXZZ=            -16.1675 YYZZ=            -38.2801
 XXYZ=              0.0000 YYXZ=              0.0000 ZZXY=            -17.3733
 N-N= 6.532859825676D+01 E-N=-6.646945572903D+02  KE= 2.245155372822D+02
 Symmetry A'   KE= 2.156641766073D+02
 Symmetry A"   KE= 8.851360674890D+00
  Exact polarizability:   0.000   0.000   0.000   0.000   0.000   0.000
 Approx polarizability:  26.648   6.658  27.561   0.000   0.000  12.830
 Calling FoFJK, ICntrl=    100147 FMM=F ISym2X=1 I1Cent= 0 IOpClX= 0 NMat=1 NMatS=1 NMatT=0.
 ***** Axes restored to original set *****
 -------------------------------------------------------------------
 Center     Atomic                   Forces (Hartrees/Bohr)
 Number     Number              X              Y              Z
 -------------------------------------------------------------------
      1        8           0.006597080    0.009629813    0.000000000
      2        8          -0.014688511   -0.037478082    0.000000000
      3        1          -0.015335781    0.134780208    0.000000000
      4        8           0.013184060   -0.126036371    0.000000000
      5        1           0.010243153    0.019104432    0.000000000
 -------------------------------------------------------------------
 Cartesian Forces:  Max     0.134780208 RMS     0.049454620

 GradGradGradGradGradGradGradGradGradGradGradGradGradGradGradGradGradGrad
 Berny optimization.
 Internal  Forces:  Max     0.107397312 RMS     0.039704646
 Search for a saddle point.
 Step number   1 out of a maximum of  100
 All quantities printed in internal units (Hartrees-Bohrs-Radians)
 Swaping is turned off.
 Second derivative matrix not updated -- analytic derivatives used.
 The second derivative matrix:
                          R1        R2        R3        R4        A1
           R1           0.90822
           R2           0.00129   0.04120
           R3           0.00604   0.03221   0.01887
           R4          -0.00145  -0.00032   0.00203   0.56637
           A1          -0.02578  -0.01791   0.02146  -0.00174  -0.04676
           A2          -0.00064   0.02860   0.01104   0.00097   0.00097
           A3           0.00263   0.01024   0.03170   0.01843   0.00427
           D1           0.00000   0.00000   0.00000   0.00000   0.00000
           D2           0.00000   0.00000   0.00000   0.00000   0.00000
                          A2        A3        D1        D2
           A2           0.03582
           A3           0.01182   0.13038
           D1           0.00000   0.00000   0.00217
           D2           0.00000   0.00000   0.00297  -0.00179
     Eigenvalues ---   -0.06155  -0.00338   0.00376   0.00422   0.01824
     Eigenvalues ---    0.07158   0.14548   0.56717   0.90897
 Eigenvectors required to have negative eigenvalues:
                          A1        R3        R2        A2        A3
   1                    0.89054  -0.35407   0.27814  -0.05346   0.02650
                          R1        R4        D2        D1
   1                    0.02541   0.00311   0.00000   0.00000
 RFO step:  Lambda0=1.335082927D-02 Lambda=-1.09143043D-01.
 Linear search not attempted -- option 19 set.
 Maximum step size (   0.300) exceeded in Quadratic search.
    -- Step size scaled by   0.233
 Iteration  1 RMS(Cart)=  0.10098009 RMS(Int)=  0.00719230
 Iteration  2 RMS(Cart)=  0.00759045 RMS(Int)=  0.00001267
 Iteration  3 RMS(Cart)=  0.00001298 RMS(Int)=  0.00000000
 Iteration  4 RMS(Cart)=  0.00000000 RMS(Int)=  0.00000000
 ClnCor:  largest displacement from symmetrization is 9.49D-02 for atom     5.
 Variable       Old X    -DE/DX   Delta X   Delta X   Delta X     New X
                                 (Linear)    (Quad)   (Total)
    R1        2.26767  -0.00954   0.00000  -0.00619  -0.00662   2.26105
    R2        2.83459   0.02659   0.00000   0.02003   0.01852   2.85311
    R3        2.50012  -0.10740   0.00000  -0.15354  -0.15406   2.34606
    R4        1.81414   0.01022   0.00000   0.00197  -0.00335   1.81079
    A1        2.61799  -0.01522   0.00000  -0.17683  -0.17696   2.44104
    A2        2.42573   0.01777   0.00000   0.03753   0.03955   2.46529
    A3        1.54846   0.03470   0.00000   0.05308   0.05155   1.60001
    D1        0.00000   0.00000   0.00000  -0.08236   0.00000   0.00000
    D2        3.14159   0.00000   0.00000   0.15396   0.00000   3.14159
         Item               Value     Threshold  Converged?
 Maximum Force            0.107397     0.000450     NO 
 RMS     Force            0.039705     0.000300     NO 
 Maximum Displacement     0.181007     0.001800     NO 
 RMS     Displacement     0.089901     0.001200     NO 
 Predicted change in Energy=-2.231585D-02
 GradGradGradGradGradGradGradGradGradGradGradGradGradGradGradGradGradGrad

                          Input orientation:                          
 ---------------------------------------------------------------------
 Center     Atomic      Atomic             Coordinates (Angstroms)
 Number     Number       Type             X           Y           Z
 ---------------------------------------------------------------------
      1          8           0       -0.443984   -0.327338    0.000000
      2          8           0        0.720268   -0.051432    0.000000
      3          1           0        1.618945    1.161778    0.000000
      4          8           0        1.570844    2.402328    0.000000
      5          1           0        2.526860    2.467407    0.000000
 ---------------------------------------------------------------------
                    Distance matrix (angstroms):
                    1          2          3          4          5
     1  O    0.000000
     2  O    1.196498   0.000000
     3  H    2.544238   1.509802   0.000000
     4  O    3.392730   2.597002   1.241482   0.000000
     5  H    4.078789   3.099730   1.590275   0.958228   0.000000
 Stoichiometry    H2O3
 Framework group  CS[SG(H2O3)]
 Deg. of freedom     7
 Full point group                 CS      NOp   2
 Largest Abelian subgroup         CS      NOp   2
 Largest concise Abelian subgroup C1      NOp   1
                         Standard orientation:                         
 ---------------------------------------------------------------------
 Center     Atomic      Atomic             Coordinates (Angstroms)
 Number     Number       Type             X           Y           Z
 ---------------------------------------------------------------------
      1          8           0        1.161648    1.100357    0.000000
      2          8           0        0.000000    0.813684    0.000000
      3          1           0       -0.887407   -0.407794    0.000000
      4          8           0       -0.827823   -1.647846    0.000000
      5          1           0       -1.783195   -1.721773    0.000000
 ---------------------------------------------------------------------
 Rotational constants (GHZ):     76.3975668      4.7568174      4.4779993
 Standard basis: 6-31+G(d,p) (6D, 7F)
 There are    50 symmetry adapted basis functions of A'  symmetry.
 There are    17 symmetry adapted basis functions of A"  symmetry.
 Integral buffers will be    262144 words long.
 Raffenetti 2 integral format.
 Two-electron integral symmetry is turned on.
    67 basis functions,   110 primitive gaussians,    67 cartesian basis functions
    13 alpha electrons       13 beta electrons
       nuclear repulsion energy        66.3608770785 Hartrees.
 NAtoms=    5 NActive=    5 NUniq=    5 SFac= 7.50D-01 NAtFMM=   80 NAOKFM=F Big=F
 One-electron integrals computed using PRISM.
 NBasis=    67 RedAO= T  NBF=    50    17
 NBsUse=    67 1.00D-06 NBFU=    50    17
 Initial guess read from the read-write file.
 B after Tr=     0.000000    0.000000    0.000000
         Rot=    1.000000    0.000000    0.000000    0.000000 Ang=   0.00 deg.
 Initial guess orbital symmetries:
       Occupied  (A') (A') (A') (A') (A') (A') (A') (A') (A") (A')
                 (A') (A') (A")
       Virtual   (A") (A') (A') (A") (A') (A') (A') (A') (A") (A')
                 (A") (A') (A') (A') (A') (A') (A') (A') (A') (A")
                 (A') (A') (A") (A') (A') (A") (A') (A') (A') (A")
                 (A') (A") (A') (A') (A") (A') (A") (A') (A') (A")
                 (A") (A') (A') (A') (A") (A") (A') (A') (A') (A')
                 (A') (A') (A') (A')
 Harris functional with IExCor= 1009 diagonalized for initial guess.
 ExpMin= 8.45D-02 ExpMax= 5.48D+03 ExpMxC= 8.25D+02 IAcc=2 IRadAn=         0 AccDes= 0.00D+00
 HarFok:  IExCor= 1009 AccDes= 0.00D+00 IRadAn=         0 IDoV= 1
 ScaDFX=  1.000000  1.000000  1.000000  1.000000
 FoFCou: FMM=F IPFlag=           0 FMFlag=      100000 FMFlg1=           0
         NFxFlg=           0 DoJE=T BraDBF=F KetDBF=T FulRan=T
         Omega=  0.000000  0.000000  1.000000  0.000000  0.000000 ICntrl=     500 IOpCl=  0
         NMat0=    1 NMatS0=    1 NMatT0=    0 NMatD0=    1 NMtDS0=    0 NMtDT0=    0
         I1Cent=           4 NGrid=           0.
 Petite list used in FoFCou.
 Requested convergence on RMS density matrix=1.00D-08 within 128 cycles.
 Requested convergence on MAX density matrix=1.00D-06.
 Requested convergence on             energy=1.00D-06.
 No special actions if energy rises.
 Keep R1 ints in memory in canonical form, NReq=3551244.
 Integral accuracy reduced to 1.0D-05 until final iterations.
 Initial convergence to 1.0D-05 achieved.  Increase integral accuracy.
 SCF Done:  E(RM062X) =  -226.542363572     A.U. after   17 cycles
             Convg  =    0.8687D-08             -V/T =  2.0087
 Calling FoFJK, ICntrl=      2127 FMM=F ISym2X=1 I1Cent= 0 IOpClX= 0 NMat=1 NMatS=1 NMatT=0.
 ***** Axes restored to original set *****
 -------------------------------------------------------------------
 Center     Atomic                   Forces (Hartrees/Bohr)
 Number     Number              X              Y              Z
 -------------------------------------------------------------------
      1        8           0.003564052    0.008287096    0.000000000
      2        8          -0.009491886   -0.036437533    0.000000000
      3        1          -0.019189114    0.127948782    0.000000000
      4        8           0.015165525   -0.118380456    0.000000000
      5        1           0.009951424    0.018582111    0.000000000
 -------------------------------------------------------------------
 Cartesian Forces:  Max     0.127948782 RMS     0.046851917

 GradGradGradGradGradGradGradGradGradGradGradGradGradGradGradGradGradGrad
 Berny optimization.
 Internal  Forces:  Max     0.100726770 RMS     0.037428476
 Search for a saddle point.
 Step number   2 out of a maximum of  100
 All quantities printed in internal units (Hartrees-Bohrs-Radians)
 Swaping is turned off.
 Update second derivatives using D2CorX and points    1    2
 The second derivative matrix:
                          R1        R2        R3        R4        A1
           R1           0.91098
           R2           0.00143   0.04118
           R3           0.01066   0.03266   0.02491
           R4          -0.00131  -0.00031   0.00222   0.56637
           A1          -0.01924  -0.01734   0.03048  -0.00145  -0.03345
           A2          -0.00017   0.02856   0.01232   0.00101   0.00264
           A3           0.00126   0.01010   0.02999   0.01838   0.00168
           D1           0.00000   0.00000   0.00000   0.00000   0.00000
           D2           0.00000   0.00000   0.00000   0.00000   0.00000
                          A2        A3        D1        D2
           A2           0.03576
           A3           0.01142   0.13086
           D1           0.00000   0.00000   0.00217
           D2           0.00000   0.00000   0.00297  -0.00179
     Eigenvalues ---   -0.05681  -0.00338   0.00376   0.01286   0.02323
     Eigenvalues ---    0.07307   0.14559   0.56717   0.91149
 Eigenvectors required to have negative eigenvalues:
                          A1        R3        R2        A2        A3
   1                    0.83459  -0.44684   0.31040  -0.06636   0.05090
                          R1        R4        D2        D1
   1                    0.02098   0.00235   0.00000   0.00000
 RFO step:  Lambda0=2.048123938D-02 Lambda=-9.31089170D-02.
 Linear search not attempted -- option 19 set.
 Maximum step size (   0.300) exceeded in Quadratic search.
    -- Step size scaled by   0.235
 Iteration  1 RMS(Cart)=  0.10758100 RMS(Int)=  0.00860778
 Iteration  2 RMS(Cart)=  0.01047227 RMS(Int)=  0.00002802
 Iteration  3 RMS(Cart)=  0.00003107 RMS(Int)=  0.00000000
 Iteration  4 RMS(Cart)=  0.00000000 RMS(Int)=  0.00000000
 ClnCor:  largest displacement from symmetrization is 9.05D-02 for atom     5.
 Variable       Old X    -DE/DX   Delta X   Delta X   Delta X     New X
                                 (Linear)    (Quad)   (Total)
    R1        2.26105  -0.00536   0.00000  -0.00431  -0.00460   2.25645
    R2        2.85311   0.02615   0.00000   0.00105  -0.00043   2.85268
    R3        2.34606  -0.10073   0.00000  -0.11241  -0.11285   2.23321
    R4        1.81079   0.01121   0.00000   0.00255  -0.00248   1.80831
    A1        2.44104  -0.01645   0.00000  -0.20429  -0.20444   2.23659
    A2        2.46529   0.01761   0.00000   0.04994   0.05202   2.51731
    A3        1.60001   0.03230   0.00000   0.04461   0.04335   1.64336
    D1        0.00000   0.00000   0.00000   0.08321   0.00000   0.00000
    D2        3.14159   0.00000   0.00000  -0.15554   0.00000   3.14159
         Item               Value     Threshold  Converged?
 Maximum Force            0.100727     0.000450     NO 
 RMS     Force            0.037428     0.000300     NO 
 Maximum Displacement     0.220582     0.001800     NO 
 RMS     Displacement     0.102723     0.001200     NO 
 Predicted change in Energy=-1.693766D-02
 GradGradGradGradGradGradGradGradGradGradGradGradGradGradGradGradGradGrad

                          Input orientation:                          
 ---------------------------------------------------------------------
 Center     Atomic      Atomic             Coordinates (Angstroms)
 Number     Number       Type             X           Y           Z
 ---------------------------------------------------------------------
      1          8           0       -0.412768   -0.210611    0.000000
      2          8           0        0.776441   -0.103039    0.000000
      3          1           0        1.598143    1.163304    0.000000
      4          8           0        1.540614    2.343669    0.000000
      5          1           0        2.490504    2.459421    0.000000
 ---------------------------------------------------------------------
                    Distance matrix (angstroms):
                    1          2          3          4          5
     1  O    0.000000
     2  O    1.194064   0.000000
     3  H    2.435447   1.509575   0.000000
     4  O    3.215595   2.563267   1.181766   0.000000
     5  H    3.944371   3.082891   1.573604   0.956917   0.000000
 Stoichiometry    H2O3
 Framework group  CS[SG(H2O3)]
 Deg. of freedom     7
 Full point group                 CS      NOp   2
 Largest Abelian subgroup         CS      NOp   2
 Largest concise Abelian subgroup C1      NOp   1
                         Standard orientation:                         
 ---------------------------------------------------------------------
 Center     Atomic      Atomic             Coordinates (Angstroms)
 Number     Number       Type             X           Y           Z
 ---------------------------------------------------------------------
      1          8           0        1.192457    0.929552    0.000000
      2          8           0        0.000000    0.867633    0.000000
      3          1           0       -0.869629   -0.366289    0.000000
      4          8           0       -0.857378   -1.547992    0.000000
      5          1           0       -1.811006   -1.627256    0.000000
 ---------------------------------------------------------------------
 Rotational constants (GHZ):     61.7397003      5.2016217      4.7974339
 Standard basis: 6-31+G(d,p) (6D, 7F)
 There are    50 symmetry adapted basis functions of A'  symmetry.
 There are    17 symmetry adapted basis functions of A"  symmetry.
 Integral buffers will be    262144 words long.
 Raffenetti 2 integral format.
 Two-electron integral symmetry is turned on.
    67 basis functions,   110 primitive gaussians,    67 cartesian basis functions
    13 alpha electrons       13 beta electrons
       nuclear repulsion energy        67.4395597467 Hartrees.
 NAtoms=    5 NActive=    5 NUniq=    5 SFac= 7.50D-01 NAtFMM=   80 NAOKFM=F Big=F
 One-electron integrals computed using PRISM.
 NBasis=    67 RedAO= T  NBF=    50    17
 NBsUse=    67 1.00D-06 NBFU=    50    17
 Initial guess read from the read-write file.
 B after Tr=     0.000000    0.000000    0.000000
         Rot=    1.000000    0.000000    0.000000    0.000000 Ang=   0.00 deg.
 Initial guess orbital symmetries:
       Occupied  (A') (A') (A') (A') (A') (A') (A') (A') (A") (A')
                 (A') (A') (A")
       Virtual   (A") (A') (A') (A') (A") (A') (A') (A') (A") (A")
                 (A') (A') (A') (A') (A') (A') (A') (A') (A') (A")
                 (A') (A') (A") (A') (A") (A') (A') (A') (A') (A")
                 (A') (A") (A') (A') (A") (A') (A") (A') (A") (A')
                 (A') (A") (A') (A') (A") (A") (A') (A') (A') (A')
                 (A') (A') (A') (A')
 Harris functional with IExCor= 1009 diagonalized for initial guess.
 ExpMin= 8.45D-02 ExpMax= 5.48D+03 ExpMxC= 8.25D+02 IAcc=2 IRadAn=         0 AccDes= 0.00D+00
 HarFok:  IExCor= 1009 AccDes= 0.00D+00 IRadAn=         0 IDoV= 1
 ScaDFX=  1.000000  1.000000  1.000000  1.000000
 FoFCou: FMM=F IPFlag=           0 FMFlag=      100000 FMFlg1=           0
         NFxFlg=           0 DoJE=T BraDBF=F KetDBF=T FulRan=T
         Omega=  0.000000  0.000000  1.000000  0.000000  0.000000 ICntrl=     500 IOpCl=  0
         NMat0=    1 NMatS0=    1 NMatT0=    0 NMatD0=    1 NMtDS0=    0 NMtDT0=    0
         I1Cent=           4 NGrid=           0.
 Petite list used in FoFCou.
 Requested convergence on RMS density matrix=1.00D-08 within 128 cycles.
 Requested convergence on MAX density matrix=1.00D-06.
 Requested convergence on             energy=1.00D-06.
 No special actions if energy rises.
 Keep R1 ints in memory in canonical form, NReq=3551244.
 Integral accuracy reduced to 1.0D-05 until final iterations.
 Initial convergence to 1.0D-05 achieved.  Increase integral accuracy.
 SCF Done:  E(RM062X) =  -226.558738264     A.U. after   17 cycles
             Convg  =    0.7906D-08             -V/T =  2.0086
 Calling FoFJK, ICntrl=      2127 FMM=F ISym2X=1 I1Cent= 0 IOpClX= 0 NMat=1 NMatS=1 NMatT=0.
 ***** Axes restored to original set *****
 -------------------------------------------------------------------
 Center     Atomic                   Forces (Hartrees/Bohr)
 Number     Number              X              Y              Z
 -------------------------------------------------------------------
      1        8           0.002158741    0.007685583    0.000000000
      2        8          -0.006291421   -0.034670036    0.000000000
      3        1          -0.020006550    0.115316164    0.000000000
      4        8           0.014655887   -0.105720892    0.000000000
      5        1           0.009483342    0.017389181    0.000000000
 -------------------------------------------------------------------
 Cartesian Forces:  Max     0.115316164 RMS     0.042259059

 GradGradGradGradGradGradGradGradGradGradGradGradGradGradGradGradGradGrad
 Berny optimization.
 Internal  Forces:  Max     0.089408452 RMS     0.033524893
 Search for a saddle point.
 Step number   3 out of a maximum of  100
 All quantities printed in internal units (Hartrees-Bohrs-Radians)
 Swaping is turned off.
 Update second derivatives using D2CorX and points    1    2    3
 The second derivative matrix:
                          R1        R2        R3        R4        A1
           R1           0.91181
           R2           0.00178   0.04132
           R3           0.01406   0.03415   0.03799
           R4          -0.00145  -0.00037   0.00165   0.56639
           A1          -0.01625  -0.01598   0.04135  -0.00198  -0.02508
           A2          -0.00183   0.02783   0.00586   0.00128  -0.00280
           A3           0.00063   0.00981   0.02771   0.01849  -0.00006
           D1           0.00000   0.00000   0.00000   0.00000   0.00000
           D2           0.00000   0.00000   0.00000   0.00000   0.00000
                          A2        A3        D1        D2
           A2           0.03895
           A3           0.01257   0.13122
           D1           0.00000   0.00000   0.00217
           D2           0.00000   0.00000   0.00297  -0.00179
     Eigenvalues ---   -0.05620  -0.00338   0.00376   0.01271   0.04643
     Eigenvalues ---    0.07433   0.14583   0.56720   0.91231
 Eigenvectors required to have negative eigenvalues:
                          A1        R3        R2        A3        A2
   1                    0.81297  -0.48692   0.31013   0.05866  -0.04423
                          R1        R4        D2        D1
   1                    0.02003   0.00246   0.00000   0.00000
 RFO step:  Lambda0=1.961792739D-02 Lambda=-7.22314127D-02.
 Linear search not attempted -- option 19 set.
 Maximum step size (   0.300) exceeded in Quadratic search.
    -- Step size scaled by   0.250
 Iteration  1 RMS(Cart)=  0.11496128 RMS(Int)=  0.01045046
 Iteration  2 RMS(Cart)=  0.01390742 RMS(Int)=  0.00008070
 Iteration  3 RMS(Cart)=  0.00008088 RMS(Int)=  0.00000001
 Iteration  4 RMS(Cart)=  0.00000001 RMS(Int)=  0.00000000
 ClnCor:  largest displacement from symmetrization is 9.07D-02 for atom     5.
 Variable       Old X    -DE/DX   Delta X   Delta X   Delta X     New X
                                 (Linear)    (Quad)   (Total)
    R1        2.25645  -0.00284   0.00000  -0.00321  -0.00342   2.25303
    R2        2.85268   0.02488   0.00000   0.00768   0.00602   2.85871
    R3        2.23321  -0.08941   0.00000  -0.08568  -0.08612   2.14709
    R4        1.80831   0.01152   0.00000   0.00276  -0.00243   1.80588
    A1        2.23659  -0.01685   0.00000  -0.21171  -0.21190   2.02469
    A2        2.51731   0.01513   0.00000   0.03111   0.03353   2.55083
    A3        1.64336   0.02913   0.00000   0.04147   0.04026   1.68362
    D1        0.00000   0.00000   0.00000  -0.08834   0.00000   0.00000
    D2        3.14159   0.00000   0.00000   0.16513   0.00000   3.14159
         Item               Value     Threshold  Converged?
 Maximum Force            0.089408     0.000450     NO 
 RMS     Force            0.033525     0.000300     NO 
 Maximum Displacement     0.254114     0.001800     NO 
 RMS     Displacement     0.114735     0.001200     NO 
 Predicted change in Energy=-1.268853D-02
 GradGradGradGradGradGradGradGradGradGradGradGradGradGradGradGradGradGrad

                          Input orientation:                          
 ---------------------------------------------------------------------
 Center     Atomic      Atomic             Coordinates (Angstroms)
 Number     Number       Type             X           Y           Z
 ---------------------------------------------------------------------
      1          8           0       -0.364731   -0.076140    0.000000
      2          8           0        0.824595   -0.159637    0.000000
      3          1           0        1.581480    1.150163    0.000000
      4          8           0        1.505665    2.283822    0.000000
      5          1           0        2.445923    2.454535    0.000000
 ---------------------------------------------------------------------
                    Distance matrix (angstroms):
                    1          2          3          4          5
     1  O    0.000000
     2  O    1.192253   0.000000
     3  H    2.300338   1.512763   0.000000
     4  O    3.011279   2.536602   1.136192   0.000000
     5  H    3.782075   3.076134   1.564816   0.955630   0.000000
 Stoichiometry    H2O3
 Framework group  CS[SG(H2O3)]
 Deg. of freedom     7
 Full point group                 CS      NOp   2
 Largest Abelian subgroup         CS      NOp   2
 Largest concise Abelian subgroup C1      NOp   1
                         Standard orientation:                         
 ---------------------------------------------------------------------
 Center     Atomic      Atomic             Coordinates (Angstroms)
 Number     Number       Type             X           Y           Z
 ---------------------------------------------------------------------
      1          8           0       -0.293149   -1.375609    0.000000
      2          8           0       -0.869513   -0.331927    0.000000
      3          1           0        0.000000    0.905974    0.000000
      4          8           0        1.060247    1.314395    0.000000
      5          1           0        0.819315    2.239155    0.000000
 ---------------------------------------------------------------------
 Rotational constants (GHZ):     51.3350266      5.7681815      5.1855187
 Standard basis: 6-31+G(d,p) (6D, 7F)
 There are    50 symmetry adapted basis functions of A'  symmetry.
 There are    17 symmetry adapted basis functions of A"  symmetry.
 Integral buffers will be    262144 words long.
 Raffenetti 2 integral format.
 Two-electron integral symmetry is turned on.
    67 basis functions,   110 primitive gaussians,    67 cartesian basis functions
    13 alpha electrons       13 beta electrons
       nuclear repulsion energy        68.6329395750 Hartrees.
 NAtoms=    5 NActive=    5 NUniq=    5 SFac= 7.50D-01 NAtFMM=   80 NAOKFM=F Big=F
 One-electron integrals computed using PRISM.
 NBasis=    67 RedAO= T  NBF=    50    17
 NBsUse=    67 1.00D-06 NBFU=    50    17
 Initial guess read from the read-write file.
 B after Tr=     0.000000    0.000000    0.000000
         Rot=    1.000000    0.000000    0.000000    0.000000 Ang=   0.00 deg.
 Initial guess orbital symmetries:
       Occupied  (A') (A') (A') (A') (A') (A') (A') (A') (A") (A')
                 (A') (A') (A")
       Virtual   (A") (A') (A') (A') (A") (A') (A') (A") (A') (A")
                 (A') (A') (A') (A') (A') (A') (A') (A') (A') (A")
                 (A') (A') (A") (A') (A") (A') (A') (A') (A') (A")
                 (A') (A") (A') (A') (A") (A") (A') (A') (A") (A')
                 (A') (A") (A') (A') (A") (A") (A') (A') (A') (A')
                 (A') (A') (A') (A')
 Harris functional with IExCor= 1009 diagonalized for initial guess.
 ExpMin= 8.45D-02 ExpMax= 5.48D+03 ExpMxC= 8.25D+02 IAcc=2 IRadAn=         0 AccDes= 0.00D+00
 HarFok:  IExCor= 1009 AccDes= 0.00D+00 IRadAn=         0 IDoV= 1
 ScaDFX=  1.000000  1.000000  1.000000  1.000000
 FoFCou: FMM=F IPFlag=           0 FMFlag=      100000 FMFlg1=           0
         NFxFlg=           0 DoJE=T BraDBF=F KetDBF=T FulRan=T
         Omega=  0.000000  0.000000  1.000000  0.000000  0.000000 ICntrl=     500 IOpCl=  0
         NMat0=    1 NMatS0=    1 NMatT0=    0 NMatD0=    1 NMtDS0=    0 NMtDT0=    0
         I1Cent=           4 NGrid=           0.
 Petite list used in FoFCou.
 Requested convergence on RMS density matrix=1.00D-08 within 128 cycles.
 Requested convergence on MAX density matrix=1.00D-06.
 Requested convergence on             energy=1.00D-06.
 No special actions if energy rises.
 Keep R1 ints in memory in canonical form, NReq=3551239.
 Integral accuracy reduced to 1.0D-05 until final iterations.
 Initial convergence to 1.0D-05 achieved.  Increase integral accuracy.
 SCF Done:  E(RM062X) =  -226.570744649     A.U. after   18 cycles
             Convg  =    0.4306D-08             -V/T =  2.0084
 Calling FoFJK, ICntrl=      2127 FMM=F ISym2X=1 I1Cent= 0 IOpClX= 0 NMat=1 NMatS=1 NMatT=0.
 ***** Axes restored to original set *****
 -------------------------------------------------------------------
 Center     Atomic                   Forces (Hartrees/Bohr)
 Number     Number              X              Y              Z
 -------------------------------------------------------------------
      1        8           0.000472382    0.005727230    0.000000000
      2        8          -0.005037473   -0.030739969    0.000000000
      3        1          -0.017648403    0.101065616    0.000000000
      4        8           0.013136411   -0.091613171    0.000000000
      5        1           0.009077083    0.015560294    0.000000000
 -------------------------------------------------------------------
 Cartesian Forces:  Max     0.101065616 RMS     0.036895461

 GradGradGradGradGradGradGradGradGradGradGradGradGradGradGradGradGradGrad
 Berny optimization.
 Internal  Forces:  Max     0.077327682 RMS     0.029076011
 Search for a saddle point.
 Step number   4 out of a maximum of  100
 All quantities printed in internal units (Hartrees-Bohrs-Radians)
 Swaping is turned off.
 Update second derivatives using D2CorX and points    2    3    4
 The second derivative matrix:
                          R1        R2        R3        R4        A1
           R1           0.91392
           R2           0.00300   0.04203
           R3           0.01617   0.03542   0.03956
           R4          -0.00160  -0.00046   0.00148   0.56640
           A1          -0.00897  -0.01168   0.04743  -0.00255  -0.00270
           A2          -0.00342   0.02689   0.00447   0.00141  -0.00783
           A3          -0.00070   0.00902   0.02662   0.01860  -0.00410
           D1           0.00000   0.00000   0.00000   0.00000   0.00000
           D2           0.00000   0.00000   0.00000   0.00000   0.00000
                          A2        A3        D1        D2
           A2           0.04007
           A3           0.01348   0.13195
           D1           0.00000   0.00000   0.00217
           D2           0.00000   0.00000   0.00297  -0.00179
     Eigenvalues ---   -0.04552  -0.00338   0.00376   0.01297   0.05853
     Eigenvalues ---    0.07787   0.14584   0.56722   0.91432
 Eigenvectors required to have negative eigenvalues:
                          A1        R3        R2        A3        A2
   1                    0.73995  -0.57932   0.32927   0.08852  -0.01887
                          R1        R4        D2        D1
   1                    0.01566   0.00213   0.00000   0.00000
 RFO step:  Lambda0=2.780484728D-02 Lambda=-4.99650963D-02.
 Linear search not attempted -- option 19 set.
 Maximum step size (   0.300) exceeded in Quadratic search.
    -- Step size scaled by   0.252
 Iteration  1 RMS(Cart)=  0.12238616 RMS(Int)=  0.01498471
 Iteration  2 RMS(Cart)=  0.02400608 RMS(Int)=  0.00034197
 Iteration  3 RMS(Cart)=  0.00028497 RMS(Int)=  0.00000004
 Iteration  4 RMS(Cart)=  0.00000008 RMS(Int)=  0.00000000
 ClnCor:  largest displacement from symmetrization is 8.81D-02 for atom     3.
 Variable       Old X    -DE/DX   Delta X   Delta X   Delta X     New X
                                 (Linear)    (Quad)   (Total)
    R1        2.25303  -0.00010   0.00000  -0.00187  -0.00198   2.25106
    R2        2.85871   0.02395   0.00000  -0.00393  -0.00571   2.85300
    R3        2.14709  -0.07733   0.00000  -0.02437  -0.02479   2.12230
    R4        1.80588   0.01169   0.00000   0.00303  -0.00180   1.80408
    A1        2.02469  -0.01287   0.00000  -0.22976  -0.22996   1.79472
    A2        2.55083   0.01180   0.00000   0.01401   0.01658   2.56741
    A3        1.68362   0.02478   0.00000   0.02569   0.02461   1.70823
    D1        0.00000   0.00000   0.00000  -0.08916   0.00000   0.00000
    D2        3.14159   0.00000   0.00000   0.16668   0.00000   3.14159
         Item               Value     Threshold  Converged?
 Maximum Force            0.077328     0.000450     NO 
 RMS     Force            0.029076     0.000300     NO 
 Maximum Displacement     0.298926     0.001800     NO 
 RMS     Displacement     0.134351     0.001200     NO 
 Predicted change in Energy=-5.243824D-03
 GradGradGradGradGradGradGradGradGradGradGradGradGradGradGradGradGradGrad

                          Input orientation:                          
 ---------------------------------------------------------------------
 Center     Atomic      Atomic             Coordinates (Angstroms)
 Number     Number       Type             X           Y           Z
 ---------------------------------------------------------------------
      1          8           0       -0.288505    0.082045    0.000000
      2          8           0        0.862905   -0.223291    0.000000
      3          1           0        1.564283    1.113642    0.000000
      4          8           0        1.462189    2.232065    0.000000
      5          1           0        2.392061    2.448283    0.000000
 ---------------------------------------------------------------------
                    Distance matrix (angstroms):
                    1          2          3          4          5
     1  O    0.000000
     2  O    1.191208   0.000000
     3  H    2.120617   1.509742   0.000000
     4  O    2.772638   2.527433   1.123073   0.000000
     5  H    3.575545   3.078250   1.570504   0.954679   0.000000
 Stoichiometry    H2O3
 Framework group  CS[SG(H2O3)]
 Deg. of freedom     7
 Full point group                 CS      NOp   2
 Largest Abelian subgroup         CS      NOp   2
 Largest concise Abelian subgroup C1      NOp   1
                         Standard orientation:                         
 ---------------------------------------------------------------------
 Center     Atomic      Atomic             Coordinates (Angstroms)
 Number     Number       Type             X           Y           Z
 ---------------------------------------------------------------------
      1          8           0       -0.225870   -1.255285    0.000000
      2          8           0       -0.956726   -0.314634    0.000000
      3          1           0        0.000000    0.853269    0.000000
      4          8           0        1.069441    1.196181    0.000000
      5          1           0        0.905239    2.136633    0.000000
 ---------------------------------------------------------------------
 Rotational constants (GHZ):     44.3004223      6.4805248      5.6534981
 Standard basis: 6-31+G(d,p) (6D, 7F)
 There are    50 symmetry adapted basis functions of A'  symmetry.
 There are    17 symmetry adapted basis functions of A"  symmetry.
 Integral buffers will be    262144 words long.
 Raffenetti 2 integral format.
 Two-electron integral symmetry is turned on.
    67 basis functions,   110 primitive gaussians,    67 cartesian basis functions
    13 alpha electrons       13 beta electrons
       nuclear repulsion energy        69.9463017168 Hartrees.
 NAtoms=    5 NActive=    5 NUniq=    5 SFac= 7.50D-01 NAtFMM=   80 NAOKFM=F Big=F
 One-electron integrals computed using PRISM.
 NBasis=    67 RedAO= T  NBF=    50    17
 NBsUse=    67 1.00D-06 NBFU=    50    17
 Initial guess read from the read-write file.
 B after Tr=     0.000000    0.000000    0.000000
         Rot=    1.000000    0.000000    0.000000    0.000000 Ang=   0.00 deg.
 Initial guess orbital symmetries:
       Occupied  (A') (A') (A') (A') (A') (A') (A') (A') (A") (A')
                 (A') (A') (A")
       Virtual   (A") (A') (A') (A') (A") (A') (A') (A") (A') (A")
                 (A') (A') (A') (A') (A') (A') (A') (A') (A') (A")
                 (A') (A') (A") (A') (A") (A') (A') (A') (A') (A")
                 (A") (A') (A') (A') (A") (A") (A') (A') (A") (A')
                 (A') (A') (A") (A") (A') (A') (A") (A') (A') (A')
                 (A') (A') (A') (A')
 Harris functional with IExCor= 1009 diagonalized for initial guess.
 ExpMin= 8.45D-02 ExpMax= 5.48D+03 ExpMxC= 8.25D+02 IAcc=2 IRadAn=         0 AccDes= 0.00D+00
 HarFok:  IExCor= 1009 AccDes= 0.00D+00 IRadAn=         0 IDoV= 1
 ScaDFX=  1.000000  1.000000  1.000000  1.000000
 FoFCou: FMM=F IPFlag=           0 FMFlag=      100000 FMFlg1=           0
         NFxFlg=           0 DoJE=T BraDBF=F KetDBF=T FulRan=T
         Omega=  0.000000  0.000000  1.000000  0.000000  0.000000 ICntrl=     500 IOpCl=  0
         NMat0=    1 NMatS0=    1 NMatT0=    0 NMatD0=    1 NMtDS0=    0 NMtDT0=    0
         I1Cent=           4 NGrid=           0.
 Petite list used in FoFCou.
 Requested convergence on RMS density matrix=1.00D-08 within 128 cycles.
 Requested convergence on MAX density matrix=1.00D-06.
 Requested convergence on             energy=1.00D-06.
 No special actions if energy rises.
 Keep R1 ints in memory in canonical form, NReq=3550947.
 Integral accuracy reduced to 1.0D-05 until final iterations.
 Initial convergence to 1.0D-05 achieved.  Increase integral accuracy.
 SCF Done:  E(RM062X) =  -226.574843458     A.U. after   17 cycles
             Convg  =    0.6841D-08             -V/T =  2.0083
 Calling FoFJK, ICntrl=      2127 FMM=F ISym2X=1 I1Cent= 0 IOpClX= 0 NMat=1 NMatS=1 NMatT=0.
 ***** Axes restored to original set *****
 -------------------------------------------------------------------
 Center     Atomic                   Forces (Hartrees/Bohr)
 Number     Number              X              Y              Z
 -------------------------------------------------------------------
      1        8          -0.002762277    0.000793464    0.000000000
      2        8          -0.005480970   -0.023628042    0.000000000
      3        1          -0.012712183    0.094136601    0.000000000
      4        8           0.012043183   -0.085035975    0.000000000
      5        1           0.008912247    0.013733952    0.000000000
 -------------------------------------------------------------------
 Cartesian Forces:  Max     0.094136601 RMS     0.033925496

 GradGradGradGradGradGradGradGradGradGradGradGradGradGradGradGradGradGrad
 Berny optimization.
 Internal  Forces:  Max     0.072845681 RMS     0.026979586
 Search for a saddle point.
 Step number   5 out of a maximum of  100
 All quantities printed in internal units (Hartrees-Bohrs-Radians)
 Swaping is turned off.
 Update second derivatives using D2CorX and points    3    4    5
 The second derivative matrix:
                          R1        R2        R3        R4        A1
           R1           0.91555
           R2           0.00444   0.04329
           R3           0.01296   0.03259   0.04425
           R4          -0.00151  -0.00038   0.00124   0.56641
           A1           0.00290  -0.00129   0.01732  -0.00217   0.05288
           A2          -0.00358   0.02675   0.00550   0.00142  -0.00590
           A3          -0.00160   0.00823   0.02933   0.01858  -0.00662
           D1           0.00000   0.00000   0.00000   0.00000   0.00000
           D2           0.00000   0.00000   0.00000   0.00000   0.00000
                          A2        A3        D1        D2
           A2           0.03977
           A3           0.01315   0.13191
           D1           0.00000   0.00000   0.00217
           D2           0.00000   0.00000   0.00297  -0.00179
     Eigenvalues ---   -0.00338  -0.00029   0.00376   0.02624   0.06115
     Eigenvalues ---    0.07709   0.14684   0.56722   0.91581
 Eigenvectors required to have negative eigenvalues:
                          D2        D1        R2        A2        R3
   1                    0.88176  -0.47170   0.00000   0.00000   0.00000
                          A3        A1        R4        R1
   1                    0.00000   0.00000   0.00000   0.00000
 RFO step:  Lambda0=2.097033484D-13 Lambda=-7.32179455D-02.
 Linear search not attempted -- option 19 set.
 Maximum step size (   0.300) exceeded in Quadratic search.
    -- Step size scaled by   0.271
 Iteration  1 RMS(Cart)=  0.06629674 RMS(Int)=  0.01669840
 Iteration  2 RMS(Cart)=  0.01601086 RMS(Int)=  0.00004406
 Iteration  3 RMS(Cart)=  0.00003842 RMS(Int)=  0.00000000
 Iteration  4 RMS(Cart)=  0.00000000 RMS(Int)=  0.00000000
 ClnCor:  largest displacement from symmetrization is 1.06D-06 for atom     3.
 Variable       Old X    -DE/DX   Delta X   Delta X   Delta X     New X
                                 (Linear)    (Quad)   (Total)
    R1        2.25106   0.00282   0.00000   0.00332   0.00332   2.25437
    R2        2.85300   0.02407   0.00000   0.14697   0.14697   2.99997
    R3        2.12230  -0.07285   0.00000  -0.24974  -0.24974   1.87256
    R4        1.80408   0.01175   0.00000   0.00395   0.00395   1.80803
    A1        1.79472  -0.00003   0.00000   0.04380   0.04380   1.83853
    A2        2.56741   0.00975   0.00000  -0.01656  -0.01656   2.55086
    A3        1.70823   0.02060   0.00000   0.06174   0.06174   1.76997
    D1        0.00000   0.00000   0.00000   0.00000   0.00000   0.00000
    D2        3.14159   0.00000   0.00000   0.00000   0.00000   3.14159
         Item               Value     Threshold  Converged?
 Maximum Force            0.072846     0.000450     NO 
 RMS     Force            0.026980     0.000300     NO 
 Maximum Displacement     0.142438     0.001800     NO 
 RMS     Displacement     0.071621     0.001200     NO 
 Predicted change in Energy=-2.257684D-02
 GradGradGradGradGradGradGradGradGradGradGradGradGradGradGradGradGradGrad

                          Input orientation:                          
 ---------------------------------------------------------------------
 Center     Atomic      Atomic             Coordinates (Angstroms)
 Number     Number       Type             X           Y           Z
 ---------------------------------------------------------------------
      1          8           0       -0.318873    0.043083    0.000000
      2          8           0        0.845862   -0.214895    0.000000
      3          1           0        1.586962    1.189017    0.000000
      4          8           0        1.483073    2.174474    0.000000
      5          1           0        2.395909    2.461065    0.000000
 ---------------------------------------------------------------------
                    Distance matrix (angstroms):
                    1          2          3          4          5
     1  O    0.000000
     2  O    1.192963   0.000000
     3  H    2.223819   1.587513   0.000000
     4  O    2.791027   2.472877   0.990918   0.000000
     5  H    3.635475   3.092476   1.507482   0.956768   0.000000
 Stoichiometry    H2O3
 Framework group  CS[SG(H2O3)]
 Deg. of freedom     7
 Full point group                 CS      NOp   2
 Largest Abelian subgroup         CS      NOp   2
 Largest concise Abelian subgroup C1      NOp   1
                         Standard orientation:                         
 ---------------------------------------------------------------------
 Center     Atomic      Atomic             Coordinates (Angstroms)
 Number     Number       Type             X           Y           Z
 ---------------------------------------------------------------------
      1          8           0       -0.119345   -1.297740    0.000000
      2          8           0       -0.893005   -0.389659    0.000000
      3          1           0        0.000000    0.922874    0.000000
      4          8           0        0.919260    1.292845    0.000000
      5          1           0        0.744720    2.233558    0.000000
 ---------------------------------------------------------------------
 Rotational constants (GHZ):     46.4237713      6.4831851      5.6887397
 Standard basis: 6-31+G(d,p) (6D, 7F)
 There are    50 symmetry adapted basis functions of A'  symmetry.
 There are    17 symmetry adapted basis functions of A"  symmetry.
 Integral buffers will be    262144 words long.
 Raffenetti 2 integral format.
 Two-electron integral symmetry is turned on.
    67 basis functions,   110 primitive gaussians,    67 cartesian basis functions
    13 alpha electrons       13 beta electrons
       nuclear repulsion energy        70.3708938416 Hartrees.
 NAtoms=    5 NActive=    5 NUniq=    5 SFac= 7.50D-01 NAtFMM=   80 NAOKFM=F Big=F
 One-electron integrals computed using PRISM.
 NBasis=    67 RedAO= T  NBF=    50    17
 NBsUse=    67 1.00D-06 NBFU=    50    17
 Initial guess read from the read-write file.
 B after Tr=     0.000000    0.000000    0.000000
         Rot=    1.000000    0.000000    0.000000    0.000000 Ang=   0.00 deg.
 Initial guess orbital symmetries:
       Occupied  (A') (A') (A') (A') (A') (A') (A') (A') (A") (A')
                 (A') (A') (A")
       Virtual   (A") (A') (A') (A') (A") (A') (A') (A") (A') (A")
                 (A') (A') (A') (A') (A') (A') (A') (A') (A') (A")
                 (A') (A') (A") (A') (A") (A') (A') (A') (A') (A")
                 (A") (A') (A') (A") (A') (A") (A') (A') (A") (A')
                 (A') (A') (A") (A") (A') (A') (A") (A') (A') (A')
                 (A') (A') (A') (A')
 Harris functional with IExCor= 1009 diagonalized for initial guess.
 ExpMin= 8.45D-02 ExpMax= 5.48D+03 ExpMxC= 8.25D+02 IAcc=2 IRadAn=         0 AccDes= 0.00D+00
 HarFok:  IExCor= 1009 AccDes= 0.00D+00 IRadAn=         0 IDoV= 1
 ScaDFX=  1.000000  1.000000  1.000000  1.000000
 FoFCou: FMM=F IPFlag=           0 FMFlag=      100000 FMFlg1=           0
         NFxFlg=           0 DoJE=T BraDBF=F KetDBF=T FulRan=T
         Omega=  0.000000  0.000000  1.000000  0.000000  0.000000 ICntrl=     500 IOpCl=  0
         NMat0=    1 NMatS0=    1 NMatT0=    0 NMatD0=    1 NMtDS0=    0 NMtDT0=    0
         I1Cent=           4 NGrid=           0.
 Petite list used in FoFCou.
 Requested convergence on RMS density matrix=1.00D-08 within 128 cycles.
 Requested convergence on MAX density matrix=1.00D-06.
 Requested convergence on             energy=1.00D-06.
 No special actions if energy rises.
 Keep R1 ints in memory in canonical form, NReq=3550947.
 Integral accuracy reduced to 1.0D-05 until final iterations.
 Initial convergence to 1.0D-05 achieved.  Increase integral accuracy.
 SCF Done:  E(RM062X) =  -226.590936291     A.U. after   14 cycles
             Convg  =    0.5529D-08             -V/T =  2.0077
 Calling FoFJK, ICntrl=      2127 FMM=F ISym2X=1 I1Cent= 0 IOpClX= 0 NMat=1 NMatS=1 NMatT=0.
 ***** Axes restored to original set *****
 -------------------------------------------------------------------
 Center     Atomic                   Forces (Hartrees/Bohr)
 Number     Number              X              Y              Z
 -------------------------------------------------------------------
      1        8          -0.001440736    0.001934615    0.000000000
      2        8          -0.007375450   -0.027835553    0.000000000
      3        1          -0.006422694    0.030290299    0.000000000
      4        8           0.010813263   -0.015955013    0.000000000
      5        1           0.004425617    0.011565653    0.000000000
 -------------------------------------------------------------------
 Cartesian Forces:  Max     0.030290299 RMS     0.012432823

 GradGradGradGradGradGradGradGradGradGradGradGradGradGradGradGradGradGrad
 Berny optimization.
 Internal  Forces:  Max     0.027038559 RMS     0.011765386
 Search for a saddle point.
 Step number   6 out of a maximum of  100
 All quantities printed in internal units (Hartrees-Bohrs-Radians)
 Swaping is turned off.
 Update second derivatives using D2CorX and points    3    4    5    6
 The second derivative matrix:
                          R1        R2        R3        R4        A1
           R1           0.91585
           R2           0.00511   0.02288
           R3           0.01134   0.02715   0.28882
           R4          -0.00152   0.00014  -0.00321   0.56648
           A1           0.00249   0.02308   0.00589  -0.00253   0.02271
           A2          -0.00327   0.02503   0.01426   0.00128  -0.00366
           A3          -0.00119  -0.00265   0.01865   0.01901   0.00740
           D1           0.00000   0.00000   0.00000   0.00000   0.00000
           D2           0.00000   0.00000   0.00000   0.00000   0.00000
                          A2        A3        D1        D2
           A2           0.04017
           A3           0.01183   0.12627
           D1           0.00000   0.00000   0.00217
           D2           0.00000   0.00000   0.00297  -0.00179
     Eigenvalues ---   -0.01070  -0.00338   0.00376   0.03346   0.05717
     Eigenvalues ---    0.12491   0.29490   0.56733   0.91611
 Eigenvectors required to have negative eigenvalues:
                          R2        A1        A2        A3        R3
   1                    0.72173  -0.55452  -0.40340   0.08493  -0.04054
                          R4        R1        D2        D1
   1                   -0.00474  -0.00332   0.00000   0.00000
 RFO step:  Lambda0=1.458522667D-02 Lambda=-9.65564327D-03.
 Linear search not attempted -- option 19 set.
 Maximum step size (   0.300) exceeded in Quadratic search.
    -- Step size scaled by   0.267
 Iteration  1 RMS(Cart)=  0.12377951 RMS(Int)=  0.01597517
 Iteration  2 RMS(Cart)=  0.01850216 RMS(Int)=  0.00046440
 Iteration  3 RMS(Cart)=  0.00032394 RMS(Int)=  0.00000006
 Iteration  4 RMS(Cart)=  0.00000009 RMS(Int)=  0.00000000
 ClnCor:  largest displacement from symmetrization is 8.83D-02 for atom     5.
 Variable       Old X    -DE/DX   Delta X   Delta X   Delta X     New X
                                 (Linear)    (Quad)   (Total)
    R1        2.25437   0.00178   0.00000   0.00130   0.00117   2.25555
    R2        2.99997   0.02704   0.00000  -0.09326  -0.09466   2.90530
    R3        1.87256  -0.00590   0.00000  -0.00656  -0.00668   1.86588
    R4        1.80803   0.00766   0.00000   0.00353  -0.00231   1.80572
    A1        1.83853  -0.00346   0.00000   0.13807   0.13795   1.97647
    A2        2.55086   0.00973   0.00000   0.14842   0.15041   2.70126
    A3        1.76997   0.01765   0.00000   0.00974   0.00950   1.77947
    D1        0.00000   0.00000   0.00000   0.09441   0.00000   0.00000
    D2        3.14159   0.00000   0.00000  -0.17648   0.00000   3.14159
         Item               Value     Threshold  Converged?
 Maximum Force            0.027039     0.000450     NO 
 RMS     Force            0.011765     0.000300     NO 
 Maximum Displacement     0.250612     0.001800     NO 
 RMS     Displacement     0.129665     0.001200     NO 
 Predicted change in Energy= 1.460017D-03
 GradGradGradGradGradGradGradGradGradGradGradGradGradGradGradGradGradGrad

                          Input orientation:                          
 ---------------------------------------------------------------------
 Center     Atomic      Atomic             Coordinates (Angstroms)
 Number     Number       Type             X           Y           Z
 ---------------------------------------------------------------------
      1          8           0       -0.348479   -0.089535    0.000000
      2          8           0        0.843901   -0.143148    0.000000
      3          1           0        1.513470    1.240810    0.000000
      4          8           0        1.523620    2.228140    0.000000
      5          1           0        2.460422    2.416476    0.000000
 ---------------------------------------------------------------------
                    Distance matrix (angstroms):
                    1          2          3          4          5
     1  O    0.000000
     2  O    1.193584   0.000000
     3  H    2.288377   1.537420   0.000000
     4  O    2.979324   2.466783   0.987382   0.000000
     5  H    3.764308   3.027344   1.509606   0.955546   0.000000
 Stoichiometry    H2O3
 Framework group  CS[SG(H2O3)]
 Deg. of freedom     7
 Full point group                 CS      NOp   2
 Largest Abelian subgroup         CS      NOp   2
 Largest concise Abelian subgroup C1      NOp   1
                         Standard orientation:                         
 ---------------------------------------------------------------------
 Center     Atomic      Atomic             Coordinates (Angstroms)
 Number     Number       Type             X           Y           Z
 ---------------------------------------------------------------------
      1          8           0       -0.088637   -1.401765    0.000000
      2          8           0       -0.788523   -0.434913    0.000000
      3          1           0        0.000000    0.884895    0.000000
      4          8           0        0.819398    1.435812    0.000000
      5          1           0        0.462089    2.322039    0.000000
 ---------------------------------------------------------------------
 Rotational constants (GHZ):     54.0149177      5.9376253      5.3495703
 Standard basis: 6-31+G(d,p) (6D, 7F)
 There are    50 symmetry adapted basis functions of A'  symmetry.
 There are    17 symmetry adapted basis functions of A"  symmetry.
 Integral buffers will be    262144 words long.
 Raffenetti 2 integral format.
 Two-electron integral symmetry is turned on.
    67 basis functions,   110 primitive gaussians,    67 cartesian basis functions
    13 alpha electrons       13 beta electrons
       nuclear repulsion energy        69.6662829738 Hartrees.
 NAtoms=    5 NActive=    5 NUniq=    5 SFac= 7.50D-01 NAtFMM=   80 NAOKFM=F Big=F
 One-electron integrals computed using PRISM.
 NBasis=    67 RedAO= T  NBF=    50    17
 NBsUse=    67 1.00D-06 NBFU=    50    17
 Initial guess read from the read-write file.
 B after Tr=     0.000000    0.000000    0.000000
         Rot=    1.000000    0.000000    0.000000    0.000000 Ang=   0.00 deg.
 Initial guess orbital symmetries:
       Occupied  (A') (A') (A') (A') (A') (A') (A') (A') (A") (A')
                 (A') (A") (A')
       Virtual   (A") (A') (A') (A') (A") (A') (A') (A") (A') (A")
                 (A') (A') (A') (A') (A') (A') (A') (A') (A') (A")
                 (A') (A') (A") (A') (A") (A') (A') (A') (A') (A")
                 (A") (A') (A') (A") (A') (A") (A') (A') (A") (A')
                 (A') (A') (A") (A') (A") (A') (A") (A') (A') (A')
                 (A') (A') (A') (A')
 Harris functional with IExCor= 1009 diagonalized for initial guess.
 ExpMin= 8.45D-02 ExpMax= 5.48D+03 ExpMxC= 8.25D+02 IAcc=2 IRadAn=         0 AccDes= 0.00D+00
 HarFok:  IExCor= 1009 AccDes= 0.00D+00 IRadAn=         0 IDoV= 1
 ScaDFX=  1.000000  1.000000  1.000000  1.000000
 FoFCou: FMM=F IPFlag=           0 FMFlag=      100000 FMFlg1=           0
         NFxFlg=           0 DoJE=T BraDBF=F KetDBF=T FulRan=T
         Omega=  0.000000  0.000000  1.000000  0.000000  0.000000 ICntrl=     500 IOpCl=  0
         NMat0=    1 NMatS0=    1 NMatT0=    0 NMatD0=    1 NMtDS0=    0 NMtDT0=    0
         I1Cent=           4 NGrid=           0.
 Petite list used in FoFCou.
 Requested convergence on RMS density matrix=1.00D-08 within 128 cycles.
 Requested convergence on MAX density matrix=1.00D-06.
 Requested convergence on             energy=1.00D-06.
 No special actions if energy rises.
 Keep R1 ints in memory in canonical form, NReq=3550947.
 Integral accuracy reduced to 1.0D-05 until final iterations.
 Initial convergence to 1.0D-05 achieved.  Increase integral accuracy.
 SCF Done:  E(RM062X) =  -226.588924459     A.U. after   16 cycles
             Convg  =    0.4852D-08             -V/T =  2.0076
 Calling FoFJK, ICntrl=      2127 FMM=F ISym2X=1 I1Cent= 0 IOpClX= 0 NMat=1 NMatS=1 NMatT=0.
 ***** Axes restored to original set *****
 -------------------------------------------------------------------
 Center     Atomic                   Forces (Hartrees/Bohr)
 Number     Number              X              Y              Z
 -------------------------------------------------------------------
      1        8          -0.000788253    0.002957463    0.000000000
      2        8          -0.007831236   -0.032559483    0.000000000
      3        1          -0.004521317    0.030504122    0.000000000
      4        8           0.006341219   -0.011816464    0.000000000
      5        1           0.006799587    0.010914361    0.000000000
 -------------------------------------------------------------------
 Cartesian Forces:  Max     0.032559483 RMS     0.012719951

 GradGradGradGradGradGradGradGradGradGradGradGradGradGradGradGradGradGrad
 Berny optimization.
 Internal  Forces:  Max     0.030378746 RMS     0.012438665
 Search for a saddle point.
 Step number   7 out of a maximum of  100
 All quantities printed in internal units (Hartrees-Bohrs-Radians)
 Swaping is turned off.
 Update second derivatives using D2CorX and points    3    4    5    6    7
 The second derivative matrix:
                          R1        R2        R3        R4        A1
           R1           0.91580
           R2           0.00408   0.04757
           R3           0.00974   0.05144   0.30749
           R4          -0.00152   0.00008  -0.00324   0.56649
           A1           0.00338   0.00178   0.00006  -0.00201   0.03940
           A2          -0.00181   0.00837   0.01052   0.00130  -0.01319
           A3          -0.00107  -0.00017   0.02442   0.01895  -0.00516
           D1           0.00000   0.00000   0.00000   0.00000   0.00000
           D2           0.00000   0.00000   0.00000   0.00000   0.00000
                          A2        A3        D1        D2
           A2           0.02986
           A3           0.00372   0.12503
           D1           0.00000   0.00000   0.00217
           D2           0.00000   0.00000   0.00297  -0.00179
     Eigenvalues ---   -0.00338   0.00376   0.01832   0.03882   0.04866
     Eigenvalues ---    0.12192   0.32059   0.56732   0.91601
 Eigenvectors required to have negative eigenvalues:
                          D2        D1        A2        A1        R4
   1                    0.88176  -0.47170   0.00000   0.00000   0.00000
                          A3        R3        R1        R2
   1                    0.00000   0.00000   0.00000   0.00000
 RFO step:  Lambda0=2.797241605D-17 Lambda=-1.93564532D-02.
 Linear search not attempted -- option 19 set.
 Maximum step size (   0.300) exceeded in Quadratic search.
    -- Step size scaled by   0.535
 Iteration  1 RMS(Cart)=  0.06584480 RMS(Int)=  0.02683507
 Iteration  2 RMS(Cart)=  0.02812310 RMS(Int)=  0.00003349
 Iteration  3 RMS(Cart)=  0.00003754 RMS(Int)=  0.00000000
 Iteration  4 RMS(Cart)=  0.00000000 RMS(Int)=  0.00000000
 ClnCor:  largest displacement from symmetrization is 1.74D-08 for atom     3.
 Variable       Old X    -DE/DX   Delta X   Delta X   Delta X     New X
                                 (Linear)    (Quad)   (Total)
    R1        2.25555   0.00097   0.00000   0.00021   0.00021   2.25576
    R2        2.90530   0.03038   0.00000   0.28048   0.28048   3.18578
    R3        1.86588  -0.00082   0.00000  -0.05142  -0.05142   1.81446
    R4        1.80572   0.00885   0.00000   0.00531   0.00531   1.81103
    A1        1.97647  -0.00670   0.00000  -0.05694  -0.05694   1.91954
    A2        2.70126   0.00789   0.00000   0.02857   0.02857   2.72983
    A3        1.77947   0.01681   0.00000   0.06783   0.06783   1.84731
    D1        0.00000   0.00000   0.00000   0.00000   0.00000   0.00000
    D2        3.14159   0.00000   0.00000   0.00000   0.00000   3.14159
         Item               Value     Threshold  Converged?
 Maximum Force            0.030379     0.000450     NO 
 RMS     Force            0.012439     0.000300     NO 
 Maximum Displacement     0.174459     0.001800     NO 
 RMS     Displacement     0.091338     0.001200     NO 
 Predicted change in Energy=-8.457287D-03
 GradGradGradGradGradGradGradGradGradGradGradGradGradGradGradGradGradGrad

                          Input orientation:                          
 ---------------------------------------------------------------------
 Center     Atomic      Atomic             Coordinates (Angstroms)
 Number     Number       Type             X           Y           Z
 ---------------------------------------------------------------------
      1          8           0       -0.386000   -0.120884    0.000000
      2          8           0        0.802184   -0.235467    0.000000
      3          1           0        1.527686    1.286281    0.000000
      4          8           0        1.559477    2.245926    0.000000
      5          1           0        2.489586    2.476888    0.000000
 ---------------------------------------------------------------------
                    Distance matrix (angstroms):
                    1          2          3          4          5
     1  O    0.000000
     2  O    1.193697   0.000000
     3  H    2.375354   1.685844   0.000000
     4  O    3.063767   2.594379   0.960172   0.000000
     5  H    3.875232   3.194401   1.530620   0.958357   0.000000
 Stoichiometry    H2O3
 Framework group  CS[SG(H2O3)]
 Deg. of freedom     7
 Full point group                 CS      NOp   2
 Largest Abelian subgroup         CS      NOp   2
 Largest concise Abelian subgroup C1      NOp   1
                         Standard orientation:                         
 ---------------------------------------------------------------------
 Center     Atomic      Atomic             Coordinates (Angstroms)
 Number     Number       Type             X           Y           Z
 ---------------------------------------------------------------------
      1          8           0        0.005220   -1.426979    0.000000
      2          8           0        0.799460   -0.535858    0.000000
      3          1           0        0.000000    0.948370    0.000000
      4          8           0       -0.755602    1.540819    0.000000
      5          1           0       -0.392624    2.427777    0.000000
 ---------------------------------------------------------------------
 Rotational constants (GHZ):     51.9043457      5.5214459      4.9905631
 Standard basis: 6-31+G(d,p) (6D, 7F)
 There are    50 symmetry adapted basis functions of A'  symmetry.
 There are    17 symmetry adapted basis functions of A"  symmetry.
 Integral buffers will be    262144 words long.
 Raffenetti 2 integral format.
 Two-electron integral symmetry is turned on.
    67 basis functions,   110 primitive gaussians,    67 cartesian basis functions
    13 alpha electrons       13 beta electrons
       nuclear repulsion energy        68.3632775718 Hartrees.
 NAtoms=    5 NActive=    5 NUniq=    5 SFac= 7.50D-01 NAtFMM=   80 NAOKFM=F Big=F
 One-electron integrals computed using PRISM.
 NBasis=    67 RedAO= T  NBF=    50    17
 NBsUse=    67 1.00D-06 NBFU=    50    17
 Initial guess read from the read-write file.
 B after Tr=     0.000000    0.000000    0.000000
         Rot=    1.000000    0.000000    0.000000    0.000000 Ang=   0.00 deg.
 Initial guess orbital symmetries:
       Occupied  (A') (A') (A') (A') (A') (A') (A') (A') (A") (A')
                 (A') (A") (A')
       Virtual   (A") (A') (A') (A') (A") (A') (A') (A") (A') (A")
                 (A') (A') (A') (A') (A') (A') (A') (A') (A') (A")
                 (A') (A') (A") (A') (A") (A') (A') (A') (A') (A")
                 (A") (A') (A') (A") (A') (A") (A') (A') (A") (A')
                 (A') (A') (A") (A') (A") (A") (A') (A') (A') (A')
                 (A') (A') (A') (A')
 Harris functional with IExCor= 1009 diagonalized for initial guess.
[...]
     15 vectors produced by pass  5 Test12= 3.90D-15 5.56D-09 XBig12= 1.14D-08 3.25D-05.
      8 vectors produced by pass  6 Test12= 3.90D-15 5.56D-09 XBig12= 4.20D-11 1.15D-06.
      3 vectors produced by pass  7 Test12= 3.90D-15 5.56D-09 XBig12= 1.11D-13 7.05D-08.
 Inverted reduced A of dimension   101 with in-core refinement.
 Isotropic polarizability for W=    0.000000       15.37 Bohr**3.
 End of Minotr Frequency-dependent properties file   721 does not exist.
 End of Minotr Frequency-dependent properties file   722 does not exist.

 **********************************************************************

            Population analysis using the SCF density.

 **********************************************************************

 Orbital symmetries:
       Occupied  (A) (A) (A) (A) (A) (A) (A) (A) (A) (A) (A) (A)
                 (A)
       Virtual   (A) (A) (A) (A) (A) (A) (A) (A) (A) (A) (A) (A)
                 (A) (A) (A) (A) (A) (A) (A) (A) (A) (A) (A) (A)
                 (A) (A) (A) (A) (A) (A) (A) (A) (A) (A) (A) (A)
                 (A) (A) (A) (A) (A) (A) (A) (A) (A) (A) (A) (A)
                 (A) (A) (A) (A) (A) (A)
 The electronic state is 1-A.
 Alpha  occ. eigenvalues --  -19.82748 -19.82570 -19.64293  -1.44883  -1.12821
 Alpha  occ. eigenvalues --   -0.92889  -0.64581  -0.63769  -0.61523  -0.59939
 Alpha  occ. eigenvalues --   -0.46219  -0.39082  -0.35392
 Alpha virt. eigenvalues --   -0.13028   0.06060   0.10160   0.11104   0.13383
 Alpha virt. eigenvalues --    0.17591   0.18519   0.20588   0.20764   0.21802
 Alpha virt. eigenvalues --    0.23124   0.28421   0.30161   0.31147   0.34060
 Alpha virt. eigenvalues --    0.39247   1.02480   1.02770   1.07596   1.11180
 Alpha virt. eigenvalues --    1.11893   1.14150   1.17224   1.18147   1.20539
 Alpha virt. eigenvalues --    1.21956   1.22912   1.32902   1.38842   1.54279
 Alpha virt. eigenvalues --    1.56661   1.56827   1.57578   1.60578   1.64550
 Alpha virt. eigenvalues --    1.67301   1.69816   1.97480   1.98991   2.29566
 Alpha virt. eigenvalues --    2.31971   2.55143   2.58411   2.61372   2.65784
 Alpha virt. eigenvalues --    2.68434   2.68693   2.95705   3.08461   3.44243
 Alpha virt. eigenvalues --    3.58870   3.73531   4.01082   4.11709
          Condensed to atoms (all electrons):
              1          2          3          4          5
     1  O    7.616458   0.340853  -0.004673   0.003821   0.000569
     2  O    0.340853   7.686737   0.006586   0.001259  -0.001301
     3  H   -0.004673   0.006586   0.365850   0.279449  -0.021832
     4  O    0.003821   0.001259   0.279449   8.190909   0.280349
     5  H    0.000569  -0.001301  -0.021832   0.280349   0.369886
 Mulliken atomic charges:
              1
     1  O    0.042972
     2  O   -0.034134
     3  H    0.374620
     4  O   -0.755786
     5  H    0.372328
 Sum of Mulliken atomic charges =   0.00000
 Mulliken charges with hydrogens summed into heavy atoms:
              1
     1  O    0.042972
     2  O   -0.034134
     4  O   -0.008838
 Sum of Mulliken charges with hydrogens summed into heavy atoms =   0.00000
 APT atomic charges:
              1
     1  O    0.036909
     2  O   -0.047299
     3  H    0.339302
     4  O   -0.628683
     5  H    0.299771
 Sum of APT charges=   0.00000
 APT Atomic charges with hydrogens summed into heavy atoms:
              1
     1  O    0.036909
     2  O   -0.047299
     3  H    0.000000
     4  O    0.010391
     5  H    0.000000
 Sum of APT charges=   0.00000
 Electronic spatial extent (au):  <R**2>=            264.4883
 Charge=              0.0000 electrons
 Dipole moment (field-independent basis, Debye):
    X=              0.0685    Y=              2.0352    Z=              0.1123  Tot=              2.0394
 Quadrupole moment (field-independent basis, Debye-Ang):
   XX=            -14.8688   YY=            -17.2514   ZZ=            -17.0001
   XY=             -4.1761   XZ=             -0.4245   YZ=              0.0457
 Traceless Quadrupole moment (field-independent basis, Debye-Ang):
   XX=              1.5047   YY=             -0.8780   ZZ=             -0.6267
   XY=             -4.1761   XZ=             -0.4245   YZ=              0.0457
 Octapole moment (field-independent basis, Debye-Ang**2):
  XXX=            -15.2750  YYY=              1.3109  ZZZ=              0.0820  XYY=              0.0871
  XXY=              8.0719  XXZ=              1.0720  XZZ=              3.7949  YZZ=              0.4506
  YYZ=              0.0241  XYZ=             -0.1296
 Hexadecapole moment (field-independent basis, Debye-Ang**3):
 XXXX=           -189.9213 YYYY=            -36.3252 ZZZZ=            -13.7905 XXXY=            -20.5498
 XXXZ=             -3.4424 YYYX=             -3.7195 YYYZ=              0.0218 ZZZX=             -0.2651
 ZZZY=              0.0189 XXYY=            -46.7822 XXZZ=            -44.4949 YYZZ=             -8.1059
 XXYZ=              0.3598 YYXZ=             -0.1328 ZZXY=             -1.0678
 N-N= 6.519428863481D+01 E-N=-6.649087347190D+02  KE= 2.247845781807D+02
  Exact polarizability:  16.163  -1.358  18.328  -0.053  -0.015  11.615
 Approx polarizability:  15.407  -2.266  24.525  -0.125  -0.019  12.232
 Calling FoFJK, ICntrl=    100127 FMM=F ISym2X=0 I1Cent= 0 IOpClX= 0 NMat=1 NMatS=1 NMatT=0.
 Full mass-weighted force constant matrix:
 Low frequencies ---  -37.7602  -20.1157   -0.0017   -0.0015   -0.0003   17.5880
 Low frequencies ---   65.4606  148.8689  168.4702
 Diagonal vibrational polarizability:
      237.6234406       4.7996943     287.9384844
 Harmonic frequencies (cm**-1), IR intensities (KM/Mole), Raman scattering
 activities (A**4/AMU), depolarization ratios for plane and unpolarized
 incident light, reduced masses (AMU), force constants (mDyne/A),
 and normal coordinates:
                     1                      2                      3
                     A                      A                      A
 Frequencies --    62.6088               148.6806               167.4812
 Red. masses --     5.7267                 3.6224                 1.4226
 Frc consts  --     0.0132                 0.0472                 0.0235
 IR Inten    --    23.1733                18.6234               122.3862
  Atom  AN      X      Y      Z        X      Y      Z        X      Y      Z
     1   8     0.39   0.02   0.01    -0.21   0.01   0.01     0.00   0.00   0.03
     2   8     0.01  -0.05   0.00     0.30   0.11   0.00    -0.12  -0.02  -0.02
     3   1     0.03  -0.47  -0.13     0.20  -0.48  -0.37     0.30  -0.23  -0.03
     4   8    -0.40   0.03  -0.02    -0.12  -0.11  -0.02     0.09   0.01  -0.06
     5   1    -0.02   0.57   0.35     0.21   0.31   0.53     0.32   0.25   0.82
                     4                      5                      6
                     A                      A                      A
 Frequencies --   177.9156               233.5491              1596.5905
 Red. masses --     1.1741                 1.0333                 1.0821
 Frc consts  --     0.0219                 0.0332                 1.6251
 IR Inten    --   231.5361                66.9596                96.2097
  Atom  AN      X      Y      Z        X      Y      Z        X      Y      Z
     1   8     0.00   0.00   0.03     0.02  -0.01   0.01     0.00   0.00   0.00
     2   8     0.05   0.01  -0.04     0.02  -0.01   0.01     0.00   0.00   0.00
     3   1    -0.16   0.17   0.86    -0.34   0.40  -0.53    -0.47   0.54   0.05
     4   8    -0.03   0.00  -0.07    -0.01   0.02  -0.01     0.01  -0.07   0.00
     5   1    -0.16  -0.25   0.34    -0.24  -0.41   0.47     0.38   0.58   0.00
                     7                      8                      9
                     A                      A                      A
 Frequencies --  1773.0684              3874.9579              4000.8890
 Red. masses --    15.9130                 1.0451                 1.0827
 Frc consts  --    29.4750                 9.2455                10.2113
 IR Inten    --     0.1526                32.4389               133.1340
  Atom  AN      X      Y      Z        X      Y      Z        X      Y      Z
     1   8    -0.13   0.69   0.00     0.00   0.00   0.00     0.00   0.00   0.00
     2   8     0.14  -0.69   0.00     0.00   0.00   0.00     0.00   0.00   0.00
     3   1     0.04  -0.04   0.00     0.63   0.49  -0.01    -0.45  -0.40   0.01
     4   8     0.00   0.00   0.00    -0.01  -0.05   0.00     0.07   0.00   0.00
     5   1    -0.03  -0.04   0.00    -0.53   0.30   0.04    -0.67   0.43   0.06

 -------------------
 - Thermochemistry -
 -------------------
 Temperature   298.150 Kelvin.  Pressure   1.00000 Atm.
 Atom     1 has atomic number  8 and mass  15.99491
 Atom     2 has atomic number  8 and mass  15.99491
 Atom     3 has atomic number  1 and mass   1.00783
 Atom     4 has atomic number  8 and mass  15.99491
 Atom     5 has atomic number  1 and mass   1.00783
 Molecular mass:    50.00039 amu.
 Principal axes and moments of inertia in atomic units:
                           1         2         3
     Eigenvalues --    41.90962 382.00502 423.87823
           X            0.99986  -0.01662  -0.00137
           Y            0.01662   0.99986   0.00144
           Z            0.00135  -0.00146   1.00000
 This molecule is an asymmetric top.
 Rotational symmetry number  1.
 Rotational temperatures (Kelvin)      2.06668     0.22673     0.20434
 Rotational constants (GHZ):          43.06269     4.72439     4.25769
 Zero-point vibrational energy      71989.7 (Joules/Mol)
                                   17.20596 (Kcal/Mol)
 Warning -- explicit consideration of   5 degrees of freedom as
           vibrations may cause significant error
 Vibrational temperatures:     90.08   213.92   240.97   255.98   336.02
          (Kelvin)           2297.13  2551.05  5575.19  5756.38
 
 Zero-point correction=                           0.027419 (Hartree/Particle)
 Thermal correction to Energy=                    0.033431
 Thermal correction to Enthalpy=                  0.034375
 Thermal correction to Gibbs Free Energy=        -0.001176
 Sum of electronic and zero-point Energies=           -226.574954
 Sum of electronic and thermal Energies=              -226.568942
 Sum of electronic and thermal Enthalpies=            -226.567998
 Sum of electronic and thermal Free Energies=         -226.603549
 
                     E (Thermal)             CV                S
                      KCal/Mol        Cal/Mol-Kelvin    Cal/Mol-Kelvin
 Total                   20.978             15.461             74.824
 Electronic               0.000              0.000              0.000
 Translational            0.889              2.981             37.652
 Rotational               0.889              2.981             23.433
 Vibrational             19.201              9.499             13.739
 Vibration     1          0.597              1.972              4.373
 Vibration     2          0.618              1.904              2.689
 Vibration     3          0.624              1.882              2.464
 Vibration     4          0.628              1.870              2.350
 Vibration     5          0.654              1.790              1.852
                       Q            Log10(Q)             Ln(Q)
 Total Bot       0.347506D+01          0.540963          1.245613
 Total V=0       0.142233D+14         13.153001         30.285904
 Vib (Bot)       0.847987D-11        -11.071611        -25.493327
 Vib (Bot)    1  0.329728D+01          0.518156          1.193098
 Vib (Bot)    2  0.136431D+01          0.134912          0.310646
 Vib (Bot)    3  0.120426D+01          0.080719          0.185863
 Vib (Bot)    4  0.112972D+01          0.052970          0.121968
 Vib (Bot)    5  0.842010D+00         -0.074683         -0.171964
 Vib (V=0)       0.347078D+02          1.540427          3.546964
 Vib (V=0)    1  0.383497D+01          0.583762          1.344163
 Vib (V=0)    2  0.195304D+01          0.290712          0.669388
 Vib (V=0)    3  0.180393D+01          0.256220          0.589968
 Vib (V=0)    4  0.173542D+01          0.239405          0.551250
 Vib (V=0)    5  0.147928D+01          0.170049          0.391552
 Electronic      0.100000D+01          0.000000          0.000000
 Translational   0.138968D+08          7.142915         16.447170
 Rotational      0.294889D+05          4.469658         10.291769
 ***** Axes restored to original set *****
 -------------------------------------------------------------------
 Center     Atomic                   Forces (Hartrees/Bohr)
 Number     Number              X              Y              Z
 -------------------------------------------------------------------
      1        8           0.000001746    0.000007011   -0.000024148
      2        8          -0.000023198   -0.000011804   -0.000001129
      3        1          -0.000010096    0.000045546    0.000010813
      4        8           0.000020563   -0.000048789   -0.000002283
      5        1           0.000010985    0.000008035    0.000016747
 -------------------------------------------------------------------
 Cartesian Forces:  Max     0.000048789 RMS     0.000021419

 GradGradGradGradGradGradGradGradGradGradGradGradGradGradGradGradGradGrad
 Berny optimization.
 Internal  Forces:  Max     0.000034478 RMS     0.000015298
 Search for a saddle point.
 Step number   1 out of a maximum of    2
 All quantities printed in internal units (Hartrees-Bohrs-Radians)
 Swaping is turned off.
 Second derivative matrix not updated -- analytic derivatives used.
 The second derivative matrix:
                          R1        R2        R3        R4        A1
           R1           0.95280
           R2          -0.00092   0.00616
           R3           0.00060   0.00328   0.55368
           R4          -0.00013  -0.00019  -0.00710   0.56201
           A1           0.00633   0.00054  -0.00119   0.00026   0.01908
           A2          -0.00113   0.00187  -0.00030   0.00036   0.00228
           A3          -0.00106   0.00173   0.02696   0.02875  -0.00365
           D1           0.00001   0.00006  -0.00003  -0.00094   0.00053
           D2          -0.00011   0.00016   0.00021  -0.00146   0.00033
                          A2        A3        D1        D2
           A2           0.00415
           A3           0.00012   0.14949
           D1           0.00059  -0.00082   0.00142
           D2           0.00121  -0.00115   0.00150   0.00299
     Eigenvalues ---    0.00050   0.00218   0.00435   0.00719   0.01937
     Eigenvalues ---    0.14579   0.55306   0.56649   0.95285
 Eigenvectors required to have negative eigenvalues:
                          D1        D2        A2        A1        R2
   1                    0.84297  -0.53382   0.06181  -0.02178  -0.01197
                          R3        R1        R4        A3
   1                    0.00030   0.00013   0.00000   0.00000
 Eigenvalue     1 is   4.96D-04 should be less than     0.000000 Eigenvector:
                          D1        D2        A2        A1        R2
   1                    0.84297  -0.53382   0.06181  -0.02178  -0.01197
                          R3        R1        R4        A3
   1                    0.00030   0.00013   0.00000   0.00000
 Angle between quadratic step and forces=  75.68 degrees.
 Linear search not attempted -- option 19 set.
 Iteration  1 RMS(Cart)=  0.00126646 RMS(Int)=  0.00000080
 Iteration  2 RMS(Cart)=  0.00000123 RMS(Int)=  0.00000000
 Iteration  3 RMS(Cart)=  0.00000000 RMS(Int)=  0.00000000
 Variable       Old X    -DE/DX   Delta X   Delta X   Delta X     New X
                                 (Linear)    (Quad)   (Total)
    R1        2.26016  -0.00001   0.00000   0.00000   0.00000   2.26015
    R2        4.11828   0.00002   0.00000   0.00266   0.00266   4.12094
    R3        1.82044  -0.00003   0.00000  -0.00008  -0.00008   1.82036
    R4        1.81681   0.00001   0.00000   0.00001   0.00001   1.81682
    A1        1.70074   0.00000   0.00000  -0.00038  -0.00038   1.70037
    A2        2.49248   0.00000   0.00000   0.00069   0.00069   2.49317
    A3        1.85743   0.00002   0.00000   0.00010   0.00010   1.85753
    D1        0.02543   0.00000   0.00000   0.00243   0.00243   0.02786
    D2        3.04223   0.00000   0.00000  -0.00268  -0.00268   3.03955
         Item               Value     Threshold  Converged?
 Maximum Force            0.000034     0.000450     YES
 RMS     Force            0.000015     0.000300     YES
 Maximum Displacement     0.001741     0.001800     YES
 RMS     Displacement     0.001267     0.001200     NO 
 Predicted change in Energy=-1.982535D-08
 GradGradGradGradGradGradGradGradGradGradGradGradGradGradGradGradGradGrad

 1|1|UNPC-DESKTOP-319GPER|Freq|RM062X|6-31+G(d,p)|H2O3|SAGAD|08-Feb-202
 1|0||#N Geom=AllCheck Guess=TCheck SCRF=Check GenChk RM062X/6-31+G(d,p
 ) Freq||ts2||0,1|O,-0.4615714554,-0.1004195292,-0.0016444806|O,0.64470
 23843,-0.5547972428,0.0114564664|H,1.727169458,1.3363302431,-0.0237752
 96|O,1.603054786,2.2916239226,-0.0290363343|H,2.4795777872,2.680006096
 2,0.0429996445||Version=IA32W-G09RevA.02|State=1-A|HF=-226.602373|RMSD
 =6.284e-011|RMSF=2.142e-005|ZeroPoint=0.0274194|Thermal=0.0334308|Dipo
 le=0.6548235,-0.4600644,0.057872|DipoleDeriv=0.0398153,-0.0234322,0.00
 01582,-0.0187142,0.0442631,-0.0004822,-0.0002367,-0.0004133,0.026647,-
 0.0605107,-0.0146937,0.0001614,-0.036153,-0.0730252,0.0006536,0.001052
 4,0.0015584,-0.0083611,0.3105149,0.1325842,-0.008639,0.1563692,0.32799
 13,0.0025032,-0.0090748,0.0027304,0.3794,-0.4647664,-0.074635,0.026688
 6,-0.1016085,-0.6301469,-0.0023792,0.0272833,-0.0015984,-0.7911353,0.1
 749469,-0.0198233,-0.0183691,0.0001066,0.3309177,-0.0002955,-0.0190242
 ,-0.0022771,0.3934493|Polar=18.9228225,-0.446924,15.5681275,0.0974573,
 -0.0126481,11.6159165|PG=C01 [X(H2O3)]|NImag=0||0.81749882,-0.33149989
 ,0.13906086,0.00963522,-0.00381697,-0.00028401,-0.81606022,0.33238908,
 -0.00962607,0.81659545,0.32983880,-0.13885178,0.00381624,-0.32866566,0
 .14381993,-0.00964446,0.00379105,0.00009639,0.00961669,-0.00382087,0.0
 0071739,-0.00295877,-0.00083956,0.00002999,0.00097512,0.00055735,-0.00
 004066,0.05262333,0.00190435,-0.00063725,0.00002381,-0.00264421,-0.001
 21697,-0.00003799,-0.05184766,0.54772344,0.00002156,0.00005924,0.00022
 613,-0.00000723,0.00000423,-0.00115168,0.00339831,-0.00158534,0.001638
 59,0.00169680,0.00017644,-0.00003830,-0.00182059,-0.00252437,0.0000971
 9,-0.05255486,0.04024205,-0.00371808,0.51748982,-0.00099234,0.00007297
 ,0.00000339,-0.00035052,-0.00245813,0.00000834,0.09810265,-0.52992420,
 0.00530482,0.11698209,0.65677264,-0.00001551,-0.00005262,-0.00020842,-
 0.00002621,-0.00008950,0.00035123,-0.00337467,0.00069405,-0.00049059,0
 .04227794,0.01333513,0.00474429,-0.00017664,-0.00022607,-0.00000084,0.
 00031023,0.00079388,-0.00002876,0.00191517,0.01234548,0.00030544,-0.46
 481117,-0.21374188,-0.03886156,0.46276241,0.00074909,0.00035519,-0.000
 02646,-0.00072868,-0.00129305,0.00005947,-0.04597278,-0.01594502,-0.00
 378294,-0.15487622,-0.12446328,-0.01388706,0.20082859,0.14134616,0.000
 00319,0.00001931,0.00016991,0.00004282,0.00008991,-0.00001332,-0.00001
 297,0.00090547,-0.00022245,-0.03861875,-0.01865168,-0.00439651,0.03858
 571,0.01763698,0.00446238||-0.00000175,-0.00000701,0.00002415,0.000023
 20,0.00001180,0.00000113,0.00001010,-0.00004555,-0.00001081,-0.0000205
 6,0.00004879,0.00000228,-0.00001098,-0.00000804,-0.00001675|||@


 WE SHOULD BE CAREFUL TO GET OUT OF AN EXPERIENCE ONLY THE WISDOM
 THAT IS IN IT -- AND STOP THERE;
 LEST WE BE LIKE THE CAT THAT SITS DOWN ON A HOT STOVE-LID.
 SHE WILL NEVER SIT DOWN ON A HOT STOVE LID AGAIN;
 BUT ALSO SHE WILL NEVER SIT DOWN ON A COLD ONE ANY MORE.

                                                     -- MARK TWAIN
 Job cpu time:  0 days  0 hours  0 minutes 11.0 seconds.
 File lengths (MBytes):  RWF=      6 Int=      0 D2E=      0 Chk=      1 Scr=      1
 Normal termination of Gaussian 09 at Mon Feb 08 19:23:44 2021.
