 Entering Link 1 = C:\G09W\l1.exe PID=     15684.
  
 Copyright (c) 1988,1990,1992,1993,1995,1998,2003,2009, Gaussian, Inc.
                  All Rights Reserved.
  
 This is part of the Gaussian(R) 09 program.  It is based on
 the Gaussian(R) 03 system (copyright 2003, Gaussian, Inc.),
 the Gaussian(R) 98 system (copyright 1998, Gaussian, Inc.),
 the Gaussian(R) 94 system (copyright 1995, Gaussian, Inc.),
 the Gaussian 92(TM) system (copyright 1992, Gaussian, Inc.),
 the Gaussian 90(TM) system (copyright 1990, Gaussian, Inc.),
 the Gaussian 88(TM) system (copyright 1988, Gaussian, Inc.),
 the Gaussian 86(TM) system (copyright 1986, Carnegie Mellon
 University), and the Gaussian 82(TM) system (copyright 1983,
 Carnegie Mellon University). Gaussian is a federally registered
 trademark of Gaussian, Inc.
  
 This software contains proprietary and confidential information,
 including trade secrets, belonging to Gaussian, Inc.
  
 This software is provided under written license and may be
 used, copied, transmitted, or stored only in accord with that
 written license.
  
 The following legend is applicable only to US Government
 contracts under FAR:
  
                    RESTRICTED RIGHTS LEGEND
  
 Use, reproduction and disclosure by the US Government is
 subject to restrictions as set forth in subparagraphs (a)
 and (c) of the Commercial Computer Software - Restricted
 Rights clause in FAR 52.227-19.
  
 Gaussian, Inc.
 340 Quinnipiac St., Bldg. 40, Wallingford CT 06492
  
  
 ---------------------------------------------------------------
 Warning -- This program may not be used in any manner that
 competes with the business of Gaussian, Inc. or will provide
 assistance to any competitor of Gaussian, Inc.  The licensee
 of this program is prohibited from giving any competitor of
 Gaussian, Inc. access to this program.  By using this program,
 the user acknowledges that Gaussian, Inc. is engaged in the
 business of creating and licensing software in the field of
 computational chemistry and represents and warrants to the
 licensee that it is not a competitor of Gaussian, Inc. and that
 it will not use this program in any manner prohibited above.
 ---------------------------------------------------------------
  

 Cite this work as:
 Gaussian 09, Revision A.02,
 M. J. Frisch, G. W. Trucks, H. B. Schlegel, G. E. Scuseria, 
 M. A. Robb, J. R. Cheeseman, G. Scalmani, V. Barone, B. Mennucci, 
 G. A. Petersson, H. Nakatsuji, M. Caricato, X. Li, H. P. Hratchian, 
 A. F. Izmaylov, J. Bloino, G. Zheng, J. L. Sonnenberg, M. Hada, 
 M. Ehara, K. Toyota, R. Fukuda, J. Hasegawa, M. Ishida, T. Nakajima, 
 Y. Honda, O. Kitao, H. Nakai, T. Vreven, J. A. Montgomery, Jr., 
 J. E. Peralta, F. Ogliaro, M. Bearpark, J. J. Heyd, E. Brothers, 
 K. N. Kudin, V. N. Staroverov, R. Kobayashi, J. Normand, 
 K. Raghavachari, A. Rendell, J. C. Burant, S. S. Iyengar, J. Tomasi, 
 M. Cossi, N. Rega, J. M. Millam, M. Klene, J. E. Knox, J. B. Cross, 
 V. Bakken, C. Adamo, J. Jaramillo, R. Gomperts, R. E. Stratmann, 
 O. Yazyev, A. J. Austin, R. Cammi, C. Pomelli, J. W. Ochterski, 
 R. L. Martin, K. Morokuma, V. G. Zakrzewski, G. A. Voth, 
 P. Salvador, J. J. Dannenberg, S. Dapprich, A. D. Daniels, 
 O. Farkas, J. B. Foresman, J. V. Ortiz, J. Cioslowski, 
 and D. J. Fox, Gaussian, Inc., Wallingford CT, 2009.
 
 ******************************************
 Gaussian 09:  IA32W-G09RevA.02 11-Jun-2009
                28-Oct-2020 
 ******************************************
 %chk=C:\Users\sagad\Documents\rayGit\FQ\quimicaComputacional\class3Eteno\estadoD
 eTransicion\TSETHENEOHRADICALM052X.chk
 %nprocshared=4
 Will use up to    4 processors via shared memory.
 %mem=500mb
 -------------------------------------------------------------------
 # opt=(calcfc,ts,noeigen) freq=noraman 6-31+g(d,p) iop(1/8=3) m052x
 -------------------------------------------------------------------
 1/5=1,8=3,10=4,11=1,14=-1,18=20,26=3,38=1/1,3;
 2/9=110,12=2,17=6,18=5,40=1/2;
 3/5=1,6=6,7=111,11=2,16=1,25=1,30=1,71=2,74=-38/1,2,3;
 4//1;
 5/5=2,38=5/2;
 8/6=4,10=90,11=11/1;
 11/6=1,8=1,9=11,15=111,16=1/1,2,10;
 10/6=1,7=6,13=1/2;
 6/7=2,8=2,9=2,10=2,28=1/1;
 7/10=1,18=20,25=1/1,2,3,16;
 1/5=1,8=3,10=4,11=1,14=-1,18=20/3(2);
 2/9=110/2;
 99//99;
 2/9=110/2;
 3/5=1,6=6,7=111,11=2,16=1,25=1,30=1,71=1,74=-38/1,2,3;
 4/5=5,16=3/1;
 5/5=2,38=5/2;
 7//1,2,3,16;
 1/5=1,8=3,11=1,14=-1,18=20/3(-5);
 2/9=110/2;
 6/7=2,8=2,9=2,10=2,19=2,28=1/1;
 99/9=1/99;
 ---------------------------------------------
 Transition state Ethene OH radical with M052X
 ---------------------------------------------
 Symbolic Z-matrix:
 Charge =  0 Multiplicity = 2
 C                    -0.47616   0.7481    0.59177 
 H                     0.057    -0.17961   0.59177 
 H                    -1.54616   0.7481    0.59177 
 C                     0.25615   2.02258   0.74029 
 H                    -0.32396   2.76735   1.24396 
 H                     1.19098   1.8967    1.24541 
 O                     0.35777   2.19607  -1.24958 
 H                     0.8612    1.38501  -1.35125 
 

 GradGradGradGradGradGradGradGradGradGradGradGradGradGradGradGradGradGrad
 Berny optimization.
 Initialization pass.
                           ----------------------------
                           !    Initial Parameters    !
                           ! (Angstroms and Degrees)  !
 --------------------------                            --------------------------
 ! Name  Definition              Value          Derivative Info.                !
 --------------------------------------------------------------------------------
 ! R1    R(1,2)                  1.07           calculate D2E/DX2 analytically  !
 ! R2    R(1,3)                  1.07           calculate D2E/DX2 analytically  !
 ! R3    R(1,4)                  1.4774         calculate D2E/DX2 analytically  !
 ! R4    R(1,7)                  2.4865         calculate D2E/DX2 analytically  !
 ! R5    R(1,8)                  2.4433         calculate D2E/DX2 analytically  !
 ! R6    R(4,5)                  1.07           calculate D2E/DX2 analytically  !
 ! R7    R(4,6)                  1.07           calculate D2E/DX2 analytically  !
 ! R8    R(4,7)                  2.0            calculate D2E/DX2 analytically  !
 ! R9    R(4,8)                  2.2687         calculate D2E/DX2 analytically  !
 ! R10   R(7,8)                  0.96           calculate D2E/DX2 analytically  !
 ! A1    A(2,1,3)              119.8865         calculate D2E/DX2 analytically  !
 ! A2    A(2,1,4)              120.0628         calculate D2E/DX2 analytically  !
 ! A3    A(2,1,7)              109.7414         calculate D2E/DX2 analytically  !
 ! A4    A(2,1,8)               87.3215         calculate D2E/DX2 analytically  !
 ! A5    A(3,1,4)              119.7151         calculate D2E/DX2 analytically  !
 ! A6    A(3,1,7)              109.5959         calculate D2E/DX2 analytically  !
 ! A7    A(3,1,8)              123.1866         calculate D2E/DX2 analytically  !
 ! A8    A(1,4,5)              112.2738         calculate D2E/DX2 analytically  !
 ! A9    A(1,4,6)              112.2738         calculate D2E/DX2 analytically  !
 ! A10   A(5,4,6)              109.4712         calculate D2E/DX2 analytically  !
 ! A11   A(5,4,7)              115.8176         calculate D2E/DX2 analytically  !
 ! A12   A(5,4,8)              140.7288         calculate D2E/DX2 analytically  !
 ! A13   A(6,4,7)              115.8176         calculate D2E/DX2 analytically  !
 ! A14   A(6,4,8)               99.7386         calculate D2E/DX2 analytically  !
 ! D1    D(2,1,4,5)           -148.6203         calculate D2E/DX2 analytically  !
 ! D2    D(2,1,4,6)            -24.77           calculate D2E/DX2 analytically  !
 ! D3    D(3,1,4,5)             24.7212         calculate D2E/DX2 analytically  !
 ! D4    D(3,1,4,6)            148.5715         calculate D2E/DX2 analytically  !
 --------------------------------------------------------------------------------
 Trust Radius=3.00D-02 FncErr=1.00D-07 GrdErr=1.00D-06
 Number of steps in this run=  38 maximum allowed number of steps= 100.
 Search for a saddle point of order  1.
 GradGradGradGradGradGradGradGradGradGradGradGradGradGradGradGradGradGrad

                          Input orientation:                          
 ---------------------------------------------------------------------
 Center     Atomic      Atomic             Coordinates (Angstroms)
 Number     Number       Type             X           Y           Z
 ---------------------------------------------------------------------
      1          6           0       -0.476164    0.748099    0.591772
      2          1           0        0.057000   -0.179606    0.591772
      3          1           0       -1.546164    0.748099    0.591772
      4          6           0        0.256154    2.022581    0.740285
      5          1           0       -0.323955    2.767350    1.243962
      6          1           0        1.190980    1.896698    1.245413
      7          8           0        0.357767    2.196070   -1.249583
      8          1           0        0.861198    1.385009   -1.351252
 ---------------------------------------------------------------------
                    Distance matrix (angstroms):
                    1          2          3          4          5
     1  C    0.000000
     2  H    1.070000   0.000000
     3  H    1.070000   1.852234   0.000000
     4  C    1.477379   2.216155   2.212399   0.000000
     5  H    2.127415   3.042208   2.448780   1.070000   0.000000
     6  H    2.127415   2.454424   3.039487   1.070000   1.747303
     7  O    2.486493   3.020742   3.018635   2.000000   2.647428
     8  H    2.443263   2.621086   3.158542   2.268723   3.170267
                    6          7          8
     6  H    0.000000
     7  O    2.647428   0.000000
     8  H    2.667068   0.960000   0.000000
 Stoichiometry    C2H5O(2)
 Framework group  C1[X(C2H5O)]
 Deg. of freedom    18
 Full point group                 C1      NOp   1
 Largest Abelian subgroup         C1      NOp   1
 Largest concise Abelian subgroup C1      NOp   1
                         Standard orientation:                         
 ---------------------------------------------------------------------
 Center     Atomic      Atomic             Coordinates (Angstroms)
 Number     Number       Type             X           Y           Z
 ---------------------------------------------------------------------
      1          6           0       -1.063630   -0.533824   -0.026691
      2          1           0       -1.327523   -1.043244    0.876499
      3          1           0       -1.401677   -0.910367   -0.969474
      4          6           0       -0.361062    0.764390    0.034030
      5          1           0       -0.613513    1.401001   -0.788098
      6          1           0       -0.541844    1.280752    0.953588
      7          8           0        1.396401   -0.180283   -0.103510
      8          1           0        1.261497   -0.669277    0.711527
 ---------------------------------------------------------------------
 Rotational constants (GHZ):     24.1838312      8.9988806      7.3018204
 Standard basis: 6-31+G(d,p) (6D, 7F)
 There are    82 symmetry adapted basis functions of A   symmetry.
 Integral buffers will be    262144 words long.
 Raffenetti 2 integral format.
 Two-electron integral symmetry is turned on.
    82 basis functions,   131 primitive gaussians,    82 cartesian basis functions
    13 alpha electrons       12 beta electrons
       nuclear repulsion energy        68.7463623045 Hartrees.
 NAtoms=    8 NActive=    8 NUniq=    8 SFac= 7.50D-01 NAtFMM=   80 NAOKFM=F Big=F
 One-electron integrals computed using PRISM.
 NBasis=    82 RedAO= T  NBF=    82
 NBsUse=    82 1.00D-06 NBFU=    82
 Harris functional with IExCor= 1009 diagonalized for initial guess.
 ExpMin= 4.38D-02 ExpMax= 5.48D+03 ExpMxC= 8.25D+02 IAcc=2 IRadAn=         0 AccDes= 0.00D+00
 HarFok:  IExCor= 1009 AccDes= 0.00D+00 IRadAn=         0 IDoV= 1
 ScaDFX=  1.000000  1.000000  1.000000  1.000000
 FoFCou: FMM=F IPFlag=           0 FMFlag=      100000 FMFlg1=           0
         NFxFlg=           0 DoJE=T BraDBF=F KetDBF=T FulRan=T
         Omega=  0.000000  0.000000  1.000000  0.000000  0.000000 ICntrl=     500 IOpCl=  0
         NMat0=    1 NMatS0=    1 NMatT0=    0 NMatD0=    1 NMtDS0=    0 NMtDT0=    0
         I1Cent=           4 NGrid=           0.
 Petite list used in FoFCou.
 Initial guess orbital symmetries:
 Alpha Orbitals:
       Occupied  (A) (A) (A) (A) (A) (A) (A) (A) (A) (A) (A) (A)
                 (A)
       Virtual   (A) (A) (A) (A) (A) (A) (A) (A) (A) (A) (A) (A)
                 (A) (A) (A) (A) (A) (A) (A) (A) (A) (A) (A) (A)
                 (A) (A) (A) (A) (A) (A) (A) (A) (A) (A) (A) (A)
                 (A) (A) (A) (A) (A) (A) (A) (A) (A) (A) (A) (A)
                 (A) (A) (A) (A) (A) (A) (A) (A) (A) (A) (A) (A)
                 (A) (A) (A) (A) (A) (A) (A) (A) (A)
 Beta  Orbitals:
       Occupied  (A) (A) (A) (A) (A) (A) (A) (A) (A) (A) (A) (A)
       Virtual   (A) (A) (A) (A) (A) (A) (A) (A) (A) (A) (A) (A)
                 (A) (A) (A) (A) (A) (A) (A) (A) (A) (A) (A) (A)
                 (A) (A) (A) (A) (A) (A) (A) (A) (A) (A) (A) (A)
                 (A) (A) (A) (A) (A) (A) (A) (A) (A) (A) (A) (A)
                 (A) (A) (A) (A) (A) (A) (A) (A) (A) (A) (A) (A)
                 (A) (A) (A) (A) (A) (A) (A) (A) (A) (A)
 The electronic state of the initial guess is 2-A.
 Initial guess <Sx>= 0.0000 <Sy>= 0.0000 <Sz>= 0.5000 <S**2>= 0.7500 S= 0.5000
 Requested convergence on RMS density matrix=1.00D-08 within 128 cycles.
 Requested convergence on MAX density matrix=1.00D-06.
 Requested convergence on             energy=1.00D-06.
 No special actions if energy rises.
 Keep R1 and R2 ints in memory in canonical form, NReq=12588294.
 SCF Done:  E(UM052X) =  -154.279359176     A.U. after   18 cycles
             Convg  =    0.3433D-08             -V/T =  2.0106
 <Sx>= 0.0000 <Sy>= 0.0000 <Sz>= 0.5000 <S**2>= 0.8077 S= 0.5284
 <L.S>= 0.000000000000E+00
 Annihilation of the first spin contaminant:
 S**2 before annihilation     0.8077,   after     0.7504
 Range of M.O.s used for correlation:     1    82
 NBasis=    82 NAE=    13 NBE=    12 NFC=     0 NFV=     0
 NROrb=     82 NOA=    13 NOB=    12 NVA=    69 NVB=    70

 **** Warning!!: The largest alpha MO coefficient is  0.21836741D+02


 **** Warning!!: The largest beta MO coefficient is  0.28529922D+02

 Symmetrizing basis deriv contribution to polar:
 IMax=3 JMax=2 DiffMx= 0.00D+00
 G2DrvN: will do     9 centers at a time, making    1 passes doing MaxLOS=2.
 Calling FoFCou, ICntrl=  3107 FMM=F I1Cent=   0 AccDes= 0.00D+00.
 FoFDir/FoFCou used for L=0 through L=2.
 End of G2Drv Frequency-dependent properties file   721 does not exist.
 End of G2Drv Frequency-dependent properties file   722 does not exist.
          IDoAtm=11111111
          Differentiating once with respect to nuclear coordinates.
          Keep R1 and R2 ints in memory in canonical form, NReq=12405557.
          There are    27 degrees of freedom in the 1st order CPHF.  IDoFFX=5.
     21 vectors produced by pass  0 Test12= 6.43D-11 3.70D-07 XBig12= 1.62D-01 1.70D-01.
 AX will form    21 AO Fock derivatives at one time.
     21 vectors produced by pass  1 Test12= 6.43D-11 3.70D-07 XBig12= 1.07D-02 3.16D-02.
     21 vectors produced by pass  2 Test12= 6.43D-11 3.70D-07 XBig12= 2.59D-04 4.05D-03.
     21 vectors produced by pass  3 Test12= 6.43D-11 3.70D-07 XBig12= 3.53D-06 6.46D-04.
     21 vectors produced by pass  4 Test12= 6.43D-11 3.70D-07 XBig12= 4.48D-08 4.06D-05.
     11 vectors produced by pass  5 Test12= 6.43D-11 3.70D-07 XBig12= 4.02D-10 2.79D-06.
 Inverted reduced A of dimension   116 with in-core refinement.
 End of Minotr Frequency-dependent properties file   721 does not exist.
 End of Minotr Frequency-dependent properties file   722 does not exist.

 **********************************************************************

            Population analysis using the SCF density.

 **********************************************************************

 Orbital symmetries:
 Alpha Orbitals:
       Occupied  (A) (A) (A) (A) (A) (A) (A) (A) (A) (A) (A) (A)
                 (A)
       Virtual   (A) (A) (A) (A) (A) (A) (A) (A) (A) (A) (A) (A)
                 (A) (A) (A) (A) (A) (A) (A) (A) (A) (A) (A) (A)
                 (A) (A) (A) (A) (A) (A) (A) (A) (A) (A) (A) (A)
                 (A) (A) (A) (A) (A) (A) (A) (A) (A) (A) (A) (A)
                 (A) (A) (A) (A) (A) (A) (A) (A) (A) (A) (A) (A)
                 (A) (A) (A) (A) (A) (A) (A) (A) (A)
 Beta  Orbitals:
       Occupied  (A) (A) (A) (A) (A) (A) (A) (A) (A) (A) (A) (A)
       Virtual   (A) (A) (A) (A) (A) (A) (A) (A) (A) (A) (A) (A)
                 (A) (A) (A) (A) (A) (A) (A) (A) (A) (A) (A) (A)
                 (A) (A) (A) (A) (A) (A) (A) (A) (A) (A) (A) (A)
                 (A) (A) (A) (A) (A) (A) (A) (A) (A) (A) (A) (A)
                 (A) (A) (A) (A) (A) (A) (A) (A) (A) (A) (A) (A)
                 (A) (A) (A) (A) (A) (A) (A) (A) (A) (A)
 The electronic state is 2-A.
 Alpha  occ. eigenvalues --  -19.69528 -10.64369 -10.61827  -1.07997  -0.88186
 Alpha  occ. eigenvalues --   -0.71689  -0.57312  -0.51155  -0.50725  -0.46349
 Alpha  occ. eigenvalues --   -0.44250  -0.37388  -0.29376
 Alpha virt. eigenvalues --    0.01001   0.05287   0.06966   0.07756   0.09316
 Alpha virt. eigenvalues --    0.11688   0.12368   0.14686   0.18614   0.19050
 Alpha virt. eigenvalues --    0.22006   0.26371   0.26460   0.30398   0.30654
 Alpha virt. eigenvalues --    0.32380   0.35253   0.36591   0.40606   0.64684
 Alpha virt. eigenvalues --    0.66153   0.72109   0.72548   0.74615   0.82869
 Alpha virt. eigenvalues --    0.96255   0.99732   1.06637   1.08140   1.10177
 Alpha virt. eigenvalues --    1.12843   1.20542   1.23902   1.28591   1.32532
 Alpha virt. eigenvalues --    1.42639   1.48462   1.58400   1.65119   1.69483
 Alpha virt. eigenvalues --    1.69753   1.81566   1.91138   2.01813   2.01896
 Alpha virt. eigenvalues --    2.04795   2.19275   2.19800   2.27127   2.34354
 Alpha virt. eigenvalues --    2.40962   2.42805   2.52671   2.54289   2.59920
 Alpha virt. eigenvalues --    2.63443   2.73768   2.75492   2.77888   2.84903
 Alpha virt. eigenvalues --    2.93510   3.31303   3.44957   3.47928   3.52926
 Alpha virt. eigenvalues --    3.60084   4.10065   4.32110   4.50831
  Beta  occ. eigenvalues --  -19.68336 -10.64588 -10.61010  -1.04694  -0.86649
  Beta  occ. eigenvalues --   -0.70475  -0.56827  -0.49530  -0.49196  -0.46153
  Beta  occ. eigenvalues --   -0.38101  -0.34666
  Beta virt. eigenvalues --   -0.05768   0.03467   0.05600   0.07424   0.08571
  Beta virt. eigenvalues --    0.10771   0.12329   0.12882   0.16643   0.19062
  Beta virt. eigenvalues --    0.19668   0.22436   0.26968   0.27482   0.30746
  Beta virt. eigenvalues --    0.31151   0.33092   0.35714   0.36919   0.41236
  Beta virt. eigenvalues --    0.65043   0.66430   0.72319   0.74984   0.77409
  Beta virt. eigenvalues --    0.83127   0.97576   1.00044   1.07969   1.09217
  Beta virt. eigenvalues --    1.10457   1.13272   1.20391   1.27788   1.29553
  Beta virt. eigenvalues --    1.33609   1.43763   1.51417   1.59996   1.65183
  Beta virt. eigenvalues --    1.70116   1.71741   1.83050   1.93213   2.01692
  Beta virt. eigenvalues --    2.03940   2.06516   2.19101   2.20391   2.27086
  Beta virt. eigenvalues --    2.35180   2.41514   2.42650   2.53780   2.55448
  Beta virt. eigenvalues --    2.61259   2.63289   2.73879   2.75996   2.78104
  Beta virt. eigenvalues --    2.85060   2.93822   3.31682   3.47000   3.49065
  Beta virt. eigenvalues --    3.53911   3.61527   4.12941   4.33482   4.51203
          Condensed to atoms (all electrons):
              1          2          3          4          5          6
     1  C    5.392728   0.382091   0.383809   0.199061  -0.025137  -0.015939
     2  H    0.382091   0.504525  -0.026713  -0.024022   0.003712  -0.006612
     3  H    0.383809  -0.026713   0.482923  -0.017726  -0.006097   0.003617
     4  C    0.199061  -0.024022  -0.017726   5.266668   0.389345   0.359904
     5  H   -0.025137   0.003712  -0.006097   0.389345   0.510061  -0.038851
     6  H   -0.015939  -0.006612   0.003617   0.359904  -0.038851   0.538898
     7  O   -0.051067  -0.001456   0.000000   0.070747  -0.011444  -0.012165
     8  H    0.023371   0.000029   0.000010  -0.007377   0.001786  -0.001968
              7          8
     1  C   -0.051067   0.023371
     2  H   -0.001456   0.000029
     3  H    0.000000   0.000010
     4  C    0.070747  -0.007377
     5  H   -0.011444   0.001786
     6  H   -0.012165  -0.001968
     7  O    8.279679   0.213080
     8  H    0.213080   0.456546
 Mulliken atomic charges:
              1
     1  C   -0.288916
     2  H    0.168446
     3  H    0.180176
     4  C   -0.236600
     5  H    0.176627
     6  H    0.173118
     7  O   -0.487373
     8  H    0.314523
 Sum of Mulliken atomic charges =   0.00000
 Mulliken charges with hydrogens summed into heavy atoms:
              1
     1  C    0.059706
     4  C    0.113144
     7  O   -0.172851
 Sum of Mulliken charges with hydrogens summed into heavy atoms =   0.00000
          Atomic-Atomic Spin Densities.
              1          2          3          4          5          6
     1  C    0.820644  -0.004934  -0.005737   0.073484  -0.006604  -0.008965
     2  H   -0.004934  -0.031040   0.000676   0.000601   0.000030   0.000219
     3  H   -0.005737   0.000676  -0.030480   0.001237   0.000217   0.000052
     4  C    0.073484   0.000601   0.001237  -0.240330   0.006636   0.011171
     5  H   -0.006604   0.000030   0.000217   0.006636   0.010331   0.000364
     6  H   -0.008965   0.000219   0.000052   0.011171   0.000364   0.007435
     7  O   -0.076098   0.000043  -0.000725  -0.063222  -0.001988  -0.003114
     8  H    0.002700   0.000056   0.000037   0.002267  -0.000033   0.000399
              7          8
     1  C   -0.076098   0.002700
     2  H    0.000043   0.000056
     3  H   -0.000725   0.000037
     4  C   -0.063222   0.002267
     5  H   -0.001988  -0.000033
     6  H   -0.003114   0.000399
     7  O    0.622057   0.003945
     8  H    0.003945  -0.024047
 Mulliken atomic spin densities:
              1
     1  C    0.794492
     2  H   -0.034349
     3  H   -0.034724
     4  C   -0.208156
     5  H    0.008954
     6  H    0.007561
     7  O    0.480898
     8  H   -0.014676
 Sum of Mulliken atomic spin densities =   1.00000
 APT atomic charges:
              1
     1  C   -0.731368
     2  H    0.422802
     3  H    0.446675
     4  C   -0.818338
     5  H    0.462094
     6  H    0.438808
     7  O   -0.671370
     8  H    0.450698
 Sum of APT charges=   0.00000
 APT Atomic charges with hydrogens summed into heavy atoms:
              1
     1  C    0.138109
     2  H    0.000000
     3  H    0.000000
     4  C    0.082564
     5  H    0.000000
     6  H    0.000000
     7  O   -0.220672
     8  H    0.000000
 Sum of APT charges=   0.00000
 Electronic spatial extent (au):  <R**2>=            202.3971
 Charge=              0.0000 electrons
 Dipole moment (field-independent basis, Debye):
    X=             -2.9059    Y=              0.0859    Z=              1.4011  Tot=              3.2272
 Quadrupole moment (field-independent basis, Debye-Ang):
   XX=            -23.2540   YY=            -17.8633   ZZ=            -17.6426
   XY=             -0.6608   XZ=              2.1683   YZ=             -1.3340
 Traceless Quadrupole moment (field-independent basis, Debye-Ang):
   XX=             -3.6674   YY=              1.7233   ZZ=              1.9440
   XY=             -0.6608   XZ=              2.1683   YZ=             -1.3340
 Octapole moment (field-independent basis, Debye-Ang**2):
  XXX=              0.3327  YYY=              1.5073  ZZZ=              1.1297  XYY=             -0.4761
  XXY=             -3.0601  XXZ=              2.1163  XZZ=             -0.0111  YZZ=             -0.4899
  YYZ=              0.9276  XYZ=             -1.6348
 Hexadecapole moment (field-independent basis, Debye-Ang**3):
 XXXX=           -171.8362 YYYY=            -72.8298 ZZZZ=            -32.4917 XXXY=             -1.9942
 XXXZ=              4.5282 YYYX=             -3.2067 YYYZ=             -2.0854 ZZZX=              2.1666
 ZZZY=             -1.1559 XXYY=            -36.2057 XXZZ=            -28.9254 YYZZ=            -14.8947
 XXYZ=             -2.4129 YYXZ=              1.3396 ZZXY=             -0.3679
 N-N= 6.874636230450D+01 E-N=-7.402816035554D+02  KE= 2.278586344239D+02
  Exact polarizability:   0.000   0.000   0.000   0.000   0.000   0.000
 Approx polarizability:  50.809   0.222  36.770  -1.072  -0.046  28.046
                          Isotropic Fermi Contact Couplings
        Atom                 a.u.       MegaHertz       Gauss      10(-4) cm-1
     1  C(13)              0.11772     132.33779      47.22141      44.14314
     2  H(1)              -0.01056     -47.21323     -16.84686     -15.74864
     3  H(1)              -0.01084     -48.46762     -17.29445     -16.16706
     4  C(13)             -0.03758     -42.24766     -15.07501     -14.09230
     5  H(1)               0.00236      10.53656       3.75971       3.51462
     6  H(1)               0.00176       7.88095       2.81212       2.62880
     7  O(17)              0.11139     -67.52555     -24.09480     -22.52410
     8  H(1)              -0.00940     -42.01948     -14.99359     -14.01619
 --------------------------------------------------------
       Center         ----  Spin Dipole Couplings  ----
                      3XX-RR        3YY-RR        3ZZ-RR
 --------------------------------------------------------
     1   Atom        0.510836     -0.139303     -0.371533
     2   Atom       -0.004733     -0.018288      0.023021
     3   Atom        0.000127     -0.030022      0.029895
     4   Atom       -0.161545      0.092516      0.069029
     5   Atom        0.000565      0.013970     -0.014535
     6   Atom        0.000952      0.013925     -0.014876
     7   Atom        1.834982     -0.854129     -0.980854
     8   Atom       -0.023900     -0.030587      0.054487
 --------------------------------------------------------
                        XY            XZ            YZ
 --------------------------------------------------------
     1   Atom       -0.455385     -0.076202      0.039559
     2   Atom       -0.008817     -0.024971     -0.041404
     3   Atom       -0.008806      0.027290      0.033720
     4   Atom        0.034640      0.013438     -0.000291
     5   Atom        0.003426     -0.001429      0.001525
     6   Atom        0.003434      0.000583      0.002042
     7   Atom       -0.614830     -0.017154     -0.020392
     8   Atom       -0.001965     -0.003336     -0.077582
 --------------------------------------------------------


 ---------------------------------------------------------------------------------
              Anisotropic Spin Dipole Couplings in Principal Axis System
 ---------------------------------------------------------------------------------

       Atom             a.u.   MegaHertz   Gauss  10(-4) cm-1        Axes

              Baa    -0.3781   -50.739   -18.105   -16.925  0.0371 -0.0941  0.9949
     1 C(13)  Bbb    -0.3737   -50.150   -17.895   -16.728  0.4612  0.8848  0.0665
              Bcc     0.7518   100.889    36.000    33.653  0.8865 -0.4564 -0.0762
 
              Baa    -0.0532   -28.389   -10.130    -9.470  0.4101  0.7384  0.5354
     2 H(1)   Bbb    -0.0005    -0.278    -0.099    -0.093  0.8638 -0.5028  0.0318
              Bcc     0.0537    28.667    10.229     9.562 -0.2927 -0.4494  0.8440
 
              Baa    -0.0528   -28.178   -10.055    -9.399  0.3684  0.8120 -0.4526
     3 H(1)   Bbb    -0.0013    -0.668    -0.238    -0.223  0.8443 -0.4960 -0.2027
              Bcc     0.0541    28.846    10.293     9.622  0.3892  0.3075  0.8683
 
              Baa    -0.1669   -22.402    -7.993    -7.472  0.9896 -0.1322 -0.0565
     4 C(13)  Bbb     0.0697     9.354     3.338     3.120  0.0488 -0.0613  0.9969
              Bcc     0.0972    13.048     4.656     4.352  0.1352  0.9893  0.0542
 
              Baa    -0.0148    -7.891    -2.816    -2.632  0.1069 -0.0653  0.9921
     5 H(1)   Bbb    -0.0001    -0.027    -0.010    -0.009  0.9674 -0.2235 -0.1190
              Bcc     0.0148     7.918     2.825     2.641  0.2295  0.9725  0.0393
 
              Baa    -0.0150    -8.018    -2.861    -2.675 -0.0218 -0.0678  0.9975
     6 H(1)   Bbb     0.0001     0.053     0.019     0.018  0.9703 -0.2417  0.0048
              Bcc     0.0149     7.965     2.842     2.657  0.2408  0.9680  0.0710
 
              Baa    -1.0083    72.961    26.034    24.337  0.1640  0.7402  0.6521
     7 O(17)  Bbb    -0.9606    69.510    24.803    23.186 -0.1356 -0.6379  0.7581
              Bcc     1.9689  -142.471   -50.837   -47.523  0.9771 -0.2128 -0.0042
 
              Baa    -0.0767   -40.948   -14.611   -13.659  0.0640  0.8583  0.5091
     8 H(1)   Bbb    -0.0237   -12.651    -4.514    -4.220  0.9978 -0.0628 -0.0197
              Bcc     0.1005    53.598    19.125    17.879 -0.0150 -0.5092  0.8605
 

 ---------------------------------------------------------------------------------

 Calling FoFJK, ICntrl=    100147 FMM=F ISym2X=0 I1Cent= 0 IOpClX= 1 NMat=1 NMatS=1 NMatT=0.
 ***** Axes restored to original set *****
 -------------------------------------------------------------------
 Center     Atomic                   Forces (Hartrees/Bohr)
 Number     Number              X              Y              Z
 -------------------------------------------------------------------
      1        6           0.027131307    0.050704641    0.018016570
      2        1           0.003197237   -0.007200024   -0.004565476
      3        1          -0.006695868   -0.000860185   -0.005847109
      4        6          -0.041046293   -0.074410912   -0.018082242
      5        1          -0.007261550    0.020826428   -0.017828505
      6        1           0.021686447    0.004057767   -0.015126673
      7        8          -0.002220374    0.013293451    0.046523033
      8        1           0.005209094   -0.006411166   -0.003089597
 -------------------------------------------------------------------
 Cartesian Forces:  Max     0.074410912 RMS     0.025237881

 GradGradGradGradGradGradGradGradGradGradGradGradGradGradGradGradGradGrad
 Berny optimization.
 Internal  Forces:  Max     0.053464611 RMS     0.016746864
 Search for a saddle point.
 Step number   1 out of a maximum of   38
 All quantities printed in internal units (Hartrees-Bohrs-Radians)
 Swaping is turned off.
 Second derivative matrix not updated -- analytic derivatives used.
     Eigenvalues ---   -0.09930   0.00731   0.01050   0.01822   0.02000
     Eigenvalues ---    0.03370   0.04200   0.06863   0.09748   0.09871
     Eigenvalues ---    0.15472   0.16626   0.30060   0.40093   0.40279
     Eigenvalues ---    0.40544   0.40601   0.523891000.000001000.00000
     Eigenvalues --- 1000.000001000.000001000.000001000.000001000.00000
     Eigenvalues --- 1000.000001000.000001000.00000
 Eigenvectors required to have negative eigenvalues:
                          R8        R9        R3        A6        A4
   1                    0.89541   0.27017  -0.20720  -0.14108  -0.09295
                          A13       A3        D2        R5        A9
   1                    0.08688  -0.08076   0.07990  -0.07678   0.06992
 RFO step:  Lambda0=1.119638846D-02 Lambda=-3.71988208D-02.
 Linear search not attempted -- option 19 set.
 Maximum step size (   0.030) exceeded in Quadratic search.
    -- Step size scaled by   0.046
 Iteration  1 RMS(Cart)=  0.00313294 RMS(Int)=  0.00002678
 Iteration  2 RMS(Cart)=  0.00002026 RMS(Int)=  0.00001950
 Iteration  3 RMS(Cart)=  0.00000000 RMS(Int)=  0.00001950
 Variable       Old X    -DE/DX   Delta X   Delta X   Delta X     New X
                                 (Linear)    (Quad)   (Total)
    R1        2.02201   0.00784   0.00000   0.00097   0.00097   2.02297
    R2        2.02201   0.00669   0.00000   0.00081   0.00081   2.02281
    R3        2.79184  -0.05346   0.00000  -0.01262  -0.01262   2.77923
    R4        4.69879   0.00486   0.00000  -0.00231  -0.00231   4.69648
    R5        4.61710   0.00311   0.00000   0.00025   0.00025   4.61735
    R6        2.02201   0.01004   0.00000   0.00088   0.00088   2.02289
    R7        2.02201   0.01133   0.00000   0.00096   0.00096   2.02297
    R8        3.77945  -0.04793   0.00000   0.00853   0.00852   3.78797
    R9        4.28726  -0.00315   0.00000   0.00753   0.00753   4.29479
   R10        1.81414   0.01326   0.00000   0.00072   0.00072   1.81485
    A1        2.09241  -0.00065   0.00000  -0.00192  -0.00193   2.09049
    A2        2.09549   0.00131   0.00000   0.00121   0.00120   2.09669
    A3        1.91535   0.00156   0.00000  -0.00233  -0.00234   1.91301
    A4        1.52405  -0.00015   0.00000  -0.00265  -0.00265   1.52139
    A5        2.08942   0.00022   0.00000   0.00127   0.00127   2.09069
    A6        1.91281   0.00745   0.00000  -0.00330  -0.00331   1.90950
    A7        2.15001  -0.00833   0.00000  -0.00426  -0.00427   2.14575
    A8        1.95955   0.01135   0.00000   0.00564   0.00560   1.96515
    A9        1.95955   0.01235   0.00000   0.00625   0.00621   1.96575
   A10        1.91063  -0.00238   0.00000   0.00436   0.00430   1.91493
   A11        2.02140  -0.01922   0.00000  -0.00800  -0.00799   2.01341
   A12        2.45618  -0.01696   0.00000  -0.00842  -0.00843   2.44775
   A13        2.02140  -0.02732   0.00000  -0.00726  -0.00726   2.01414
   A14        1.74077  -0.00454   0.00000  -0.00498  -0.00499   1.73578
    D1       -2.59391  -0.01196   0.00000  -0.00994  -0.00996  -2.60387
    D2       -0.43232   0.00309   0.00000   0.00497   0.00500  -0.42732
    D3        0.43147  -0.00327   0.00000  -0.00454  -0.00457   0.42690
    D4        2.59306   0.01178   0.00000   0.01038   0.01039   2.60345
         Item               Value     Threshold  Converged?
 Maximum Force            0.053465     0.000450     NO 
 RMS     Force            0.016747     0.000300     NO 
 Maximum Displacement     0.008679     0.001800     NO 
 RMS     Displacement     0.003132     0.001200     NO 
 Predicted change in Energy=-1.187723D-03
 GradGradGradGradGradGradGradGradGradGradGradGradGradGradGradGradGradGrad

                          Input orientation:                          
 ---------------------------------------------------------------------
 Center     Atomic      Atomic             Coordinates (Angstroms)
 Number     Number       Type             X           Y           Z
 ---------------------------------------------------------------------
      1          6           0       -0.474953    0.750082    0.593679
      2          1           0        0.057514   -0.178606    0.590161
      3          1           0       -1.545371    0.749134    0.589457
      4          6           0        0.253965    2.018461    0.744878
      5          1           0       -0.325088    2.768810    1.242446
      6          1           0        1.193074    1.896855    1.244150
      7          8           0        0.356810    2.195304   -1.249165
      8          1           0        0.860867    1.384261   -1.351464
 ---------------------------------------------------------------------
                    Distance matrix (angstroms):
                    1          2          3          4          5
     1  C    0.000000
     2  H    1.070512   0.000000
     3  H    1.070427   1.852011   0.000000
     4  C    1.470703   2.211252   2.207477   0.000000
     5  H    2.125705   3.042881   2.448382   1.070467   0.000000
     6  H    2.126150   2.454534   3.040553   1.070508   1.750749
     7  O    2.485271   3.017971   3.015001   2.004510   2.646133
     8  H    2.443395   2.618748   3.156032   2.272705   3.170462
                    6          7          8
     6  H    0.000000
     7  O    2.646702   0.000000
     8  H    2.666519   0.960379   0.000000
 Stoichiometry    C2H5O(2)
 Framework group  C1[X(C2H5O)]
 Deg. of freedom    18
 Full point group                 C1      NOp   1
 Largest Abelian subgroup         C1      NOp   1
 Largest concise Abelian subgroup C1      NOp   1
                         Standard orientation:                         
 ---------------------------------------------------------------------
 Center     Atomic      Atomic             Coordinates (Angstroms)
 Number     Number       Type             X           Y           Z
 ---------------------------------------------------------------------
      1          6           0       -1.060735   -0.534062   -0.026700
      2          1           0       -1.321210   -1.047096    0.876042
      3          1           0       -1.394458   -0.914880   -0.969790
      4          6           0       -0.368069    0.761884    0.034172
      5          1           0       -0.614111    1.398859   -0.790222
      6          1           0       -0.542463    1.279287    0.954969
      7          8           0        1.397565   -0.177076   -0.103486
      8          1           0        1.264537   -0.666495    0.712052
 ---------------------------------------------------------------------
 Rotational constants (GHZ):     24.2438883      8.9956800      7.3065754
 Standard basis: 6-31+G(d,p) (6D, 7F)
 There are    82 symmetry adapted basis functions of A   symmetry.
 Integral buffers will be    262144 words long.
 Raffenetti 2 integral format.
 Two-electron integral symmetry is turned on.
    82 basis functions,   131 primitive gaussians,    82 cartesian basis functions
    13 alpha electrons       12 beta electrons
       nuclear repulsion energy        68.7841502455 Hartrees.
 NAtoms=    8 NActive=    8 NUniq=    8 SFac= 7.50D-01 NAtFMM=   80 NAOKFM=F Big=F
 One-electron integrals computed using PRISM.
 NBasis=    82 RedAO= T  NBF=    82
 NBsUse=    82 1.00D-06 NBFU=    82
 Initial guess read from the read-write file.
 B after Tr=     0.000000    0.000000    0.000000
         Rot=    1.000000    0.000000    0.000000    0.000000 Ang=   0.00 deg.
 Initial guess orbital symmetries:
 Alpha Orbitals:
       Occupied  (A) (A) (A) (A) (A) (A) (A) (A) (A) (A) (A) (A)
                 (A)
       Virtual   (A) (A) (A) (A) (A) (A) (A) (A) (A) (A) (A) (A)
                 (A) (A) (A) (A) (A) (A) (A) (A) (A) (A) (A) (A)
                 (A) (A) (A) (A) (A) (A) (A) (A) (A) (A) (A) (A)
                 (A) (A) (A) (A) (A) (A) (A) (A) (A) (A) (A) (A)
                 (A) (A) (A) (A) (A) (A) (A) (A) (A) (A) (A) (A)
                 (A) (A) (A) (A) (A) (A) (A) (A) (A)
 Beta  Orbitals:
       Occupied  (A) (A) (A) (A) (A) (A) (A) (A) (A) (A) (A) (A)
       Virtual   (A) (A) (A) (A) (A) (A) (A) (A) (A) (A) (A) (A)
                 (A) (A) (A) (A) (A) (A) (A) (A) (A) (A) (A) (A)
                 (A) (A) (A) (A) (A) (A) (A) (A) (A) (A) (A) (A)
                 (A) (A) (A) (A) (A) (A) (A) (A) (A) (A) (A) (A)
                 (A) (A) (A) (A) (A) (A) (A) (A) (A) (A) (A) (A)
                 (A) (A) (A) (A) (A) (A) (A) (A) (A) (A)
 Initial guess <Sx>= 0.0000 <Sy>= 0.0000 <Sz>= 0.5000 <S**2>= 0.8075 S= 0.5284
 Requested convergence on RMS density matrix=1.00D-08 within 128 cycles.
 Requested convergence on MAX density matrix=1.00D-06.
 Requested convergence on             energy=1.00D-06.
 No special actions if energy rises.
 Keep R1 and R2 ints in memory in canonical form, NReq=12588294.
 SCF Done:  E(UM052X) =  -154.280547284     A.U. after   15 cycles
             Convg  =    0.4740D-08             -V/T =  2.0106
 <Sx>= 0.0000 <Sy>= 0.0000 <Sz>= 0.5000 <S**2>= 0.8079 S= 0.5285
 <L.S>= 0.000000000000E+00
 Annihilation of the first spin contaminant:
 S**2 before annihilation     0.8079,   after     0.7504
 Calling FoFJK, ICntrl=      2127 FMM=F ISym2X=0 I1Cent= 0 IOpClX= 1 NMat=1 NMatS=1 NMatT=0.
 ***** Axes restored to original set *****
 -------------------------------------------------------------------
 Center     Atomic                   Forces (Hartrees/Bohr)
 Number     Number              X              Y              Z
 -------------------------------------------------------------------
      1        6           0.026032196    0.048655778    0.017654960
      2        1           0.003054677   -0.006885118   -0.004534896
      3        1          -0.006388688   -0.000814978   -0.005809232
      4        6          -0.039587103   -0.071697983   -0.016162619
      5        1          -0.006875818    0.020142095   -0.017695615
      6        1           0.020874921    0.004011546   -0.015033897
      7        8          -0.002149580    0.012685482    0.044701314
      8        1           0.005039395   -0.006096822   -0.003120015
 -------------------------------------------------------------------
 Cartesian Forces:  Max     0.071697983 RMS     0.024288453

 GradGradGradGradGradGradGradGradGradGradGradGradGradGradGradGradGradGrad
 Berny optimization.
 Internal  Forces:  Max     0.051256129 RMS     0.016114833
 Search for a saddle point.
 Step number   2 out of a maximum of   38
 All quantities printed in internal units (Hartrees-Bohrs-Radians)
 Swaping is turned off.
 Update second derivatives using D2CorX and points    1    2
     Eigenvalues ---   -0.10031   0.00737   0.01050   0.01831   0.02003
     Eigenvalues ---    0.03377   0.04175   0.06871   0.09750   0.09874
     Eigenvalues ---    0.15464   0.16621   0.30125   0.40093   0.40278
     Eigenvalues ---    0.40541   0.40600   0.523881000.000001000.00000
     Eigenvalues --- 1000.000001000.000001000.000001000.000001000.00000
     Eigenvalues --- 1000.000001000.000001000.00000
 Eigenvectors required to have negative eigenvalues:
                          R8        R9        R3        A6        A4
   1                    0.89442   0.26991  -0.20698  -0.14242  -0.09366
                          A13       A3        D2        R5        A9
   1                    0.08586  -0.08226   0.08224  -0.07598   0.07119
 RFO step:  Lambda0=1.013621264D-02 Lambda=-3.54261244D-02.
 Linear search not attempted -- option 19 set.
 Maximum step size (   0.030) exceeded in Quadratic search.
    -- Step size scaled by   0.047
 Iteration  1 RMS(Cart)=  0.00312153 RMS(Int)=  0.00002738
 Iteration  2 RMS(Cart)=  0.00002076 RMS(Int)=  0.00001986
 Iteration  3 RMS(Cart)=  0.00000000 RMS(Int)=  0.00001986
 Variable       Old X    -DE/DX   Delta X   Delta X   Delta X     New X
                                 (Linear)    (Quad)   (Total)
    R1        2.02297   0.00751   0.00000   0.00095   0.00095   2.02392
    R2        2.02281   0.00641   0.00000   0.00078   0.00078   2.02359
    R3        2.77923  -0.05126   0.00000  -0.01225  -0.01224   2.76698
    R4        4.69648   0.00455   0.00000  -0.00231  -0.00230   4.69418
    R5        4.61735   0.00302   0.00000   0.00042   0.00042   4.61777
    R6        2.02289   0.00962   0.00000   0.00086   0.00086   2.02375
    R7        2.02297   0.01084   0.00000   0.00094   0.00094   2.02390
    R8        3.78797  -0.04595   0.00000   0.00801   0.00800   3.79598
    R9        4.29479  -0.00291   0.00000   0.00733   0.00733   4.30212
   R10        1.81485   0.01269   0.00000   0.00070   0.00070   1.81556
    A1        2.09049  -0.00066   0.00000  -0.00188  -0.00189   2.08860
    A2        2.09669   0.00127   0.00000   0.00121   0.00121   2.09791
    A3        1.91301   0.00150   0.00000  -0.00236  -0.00237   1.91064
    A4        1.52139  -0.00020   0.00000  -0.00266  -0.00266   1.51873
    A5        2.09069   0.00022   0.00000   0.00121   0.00120   2.09190
    A6        1.90950   0.00714   0.00000  -0.00328  -0.00329   1.90621
    A7        2.14575  -0.00813   0.00000  -0.00423  -0.00424   2.14151
    A8        1.96515   0.01086   0.00000   0.00556   0.00552   1.97067
    A9        1.96575   0.01183   0.00000   0.00620   0.00616   1.97191
   A10        1.91493  -0.00235   0.00000   0.00443   0.00436   1.91929
   A11        2.01341  -0.01874   0.00000  -0.00817  -0.00817   2.00524
   A12        2.44775  -0.01655   0.00000  -0.00860  -0.00861   2.43914
   A13        2.01414  -0.02647   0.00000  -0.00741  -0.00740   2.00674
   A14        1.73578  -0.00454   0.00000  -0.00514  -0.00514   1.73063
    D1       -2.60387  -0.01179   0.00000  -0.01026  -0.01028  -2.61415
    D2       -0.42732   0.00309   0.00000   0.00504   0.00507  -0.42225
    D3        0.42690  -0.00327   0.00000  -0.00476  -0.00479   0.42211
    D4        2.60345   0.01162   0.00000   0.01054   0.01055   2.61401
         Item               Value     Threshold  Converged?
 Maximum Force            0.051256     0.000450     NO 
 RMS     Force            0.016115     0.000300     NO 
 Maximum Displacement     0.008626     0.001800     NO 
 RMS     Displacement     0.003121     0.001200     NO 
 Predicted change in Energy=-1.175440D-03
 GradGradGradGradGradGradGradGradGradGradGradGradGradGradGradGradGradGrad

                          Input orientation:                          
 ---------------------------------------------------------------------
 Center     Atomic      Atomic             Coordinates (Angstroms)
 Number     Number       Type             X           Y           Z
 ---------------------------------------------------------------------
      1          6           0       -0.473808    0.751937    0.595632
      2          1           0        0.057957   -0.177711    0.588518
      3          1           0       -1.544613    0.750125    0.587223
      4          6           0        0.251813    2.014382    0.749443
      5          1           0       -0.326211    2.770305    1.240710
      6          1           0        1.195197    1.897055    1.242706
      7          8           0        0.355909    2.194606   -1.248492
      8          1           0        0.860572    1.383602   -1.351597
 ---------------------------------------------------------------------
                    Distance matrix (angstroms):
                    1          2          3          4          5
     1  C    0.000000
     2  H    1.071013   0.000000
     3  H    1.070840   1.851786   0.000000
     4  C    1.464223   2.206524   2.202682   0.000000
     5  H    2.124081   3.043639   2.447994   1.070923   0.000000
     6  H    2.124989   2.454777   3.041655   1.071003   1.754210
     7  O    2.484052   3.015173   3.011372   2.008746   2.644398
     8  H    2.443619   2.616474   3.153606   2.276585   3.170403
                    6          7          8
     6  H    0.000000
     7  O    2.645563   0.000000
     8  H    2.665711   0.960751   0.000000
 Stoichiometry    C2H5O(2)
 Framework group  C1[X(C2H5O)]
 Deg. of freedom    18
 Full point group                 C1      NOp   1
 Largest Abelian subgroup         C1      NOp   1
 Largest concise Abelian subgroup C1      NOp   1
                         Standard orientation:                         
 ---------------------------------------------------------------------
 Center     Atomic      Atomic             Coordinates (Angstroms)
 Number     Number       Type             X           Y           Z
 ---------------------------------------------------------------------
      1          6           0       -1.058057   -0.534127   -0.026707
      2          1           0       -1.315149   -1.050738    0.875561
      3          1           0       -1.387548   -0.918988   -0.970113
      4          6           0       -0.374735    0.759432    0.034339
      5          1           0       -0.614063    1.396782   -0.792330
      6          1           0       -0.542455    1.277855    0.956378
      7          8           0        1.398566   -0.174093   -0.103476
      8          1           0        1.267444   -0.664002    0.712514
 ---------------------------------------------------------------------
 Rotational constants (GHZ):     24.3042228      8.9930349      7.3116944
 Standard basis: 6-31+G(d,p) (6D, 7F)
 There are    82 symmetry adapted basis functions of A   symmetry.
 Integral buffers will be    262144 words long.
 Raffenetti 2 integral format.
 Two-electron integral symmetry is turned on.
    82 basis functions,   131 primitive gaussians,    82 cartesian basis functions
    13 alpha electrons       12 beta electrons
       nuclear repulsion energy        68.8230047585 Hartrees.
 NAtoms=    8 NActive=    8 NUniq=    8 SFac= 7.50D-01 NAtFMM=   80 NAOKFM=F Big=F
 One-electron integrals computed using PRISM.
 NBasis=    82 RedAO= T  NBF=    82
 NBsUse=    82 1.00D-06 NBFU=    82
 Initial guess read from the read-write file.
 B after Tr=     0.000000    0.000000    0.000000
         Rot=    1.000000    0.000000    0.000000    0.000000 Ang=   0.00 deg.
 Initial guess orbital symmetries:
 Alpha Orbitals:
       Occupied  (A) (A) (A) (A) (A) (A) (A) (A) (A) (A) (A) (A)
                 (A)
       Virtual   (A) (A) (A) (A) (A) (A) (A) (A) (A) (A) (A) (A)
                 (A) (A) (A) (A) (A) (A) (A) (A) (A) (A) (A) (A)
                 (A) (A) (A) (A) (A) (A) (A) (A) (A) (A) (A) (A)
                 (A) (A) (A) (A) (A) (A) (A) (A) (A) (A) (A) (A)
                 (A) (A) (A) (A) (A) (A) (A) (A) (A) (A) (A) (A)
                 (A) (A) (A) (A) (A) (A) (A) (A) (A)
 Beta  Orbitals:
       Occupied  (A) (A) (A) (A) (A) (A) (A) (A) (A) (A) (A) (A)
       Virtual   (A) (A) (A) (A) (A) (A) (A) (A) (A) (A) (A) (A)
                 (A) (A) (A) (A) (A) (A) (A) (A) (A) (A) (A) (A)
                 (A) (A) (A) (A) (A) (A) (A) (A) (A) (A) (A) (A)
                 (A) (A) (A) (A) (A) (A) (A) (A) (A) (A) (A) (A)
                 (A) (A) (A) (A) (A) (A) (A) (A) (A) (A) (A) (A)
                 (A) (A) (A) (A) (A) (A) (A) (A) (A) (A)
 Initial guess <Sx>= 0.0000 <Sy>= 0.0000 <Sz>= 0.5000 <S**2>= 0.8078 S= 0.5285
 Requested convergence on RMS density matrix=1.00D-08 within 128 cycles.
 Requested convergence on MAX density matrix=1.00D-06.
 Requested convergence on             energy=1.00D-06.
 No special actions if energy rises.
 Keep R1 and R2 ints in memory in canonical form, NReq=12588294.
 SCF Done:  E(UM052X) =  -154.281722486     A.U. after   15 cycles
             Convg  =    0.4168D-08             -V/T =  2.0105
 <Sx>= 0.0000 <Sy>= 0.0000 <Sz>= 0.5000 <S**2>= 0.8079 S= 0.5286
 <L.S>= 0.000000000000E+00
 Annihilation of the first spin contaminant:
 S**2 before annihilation     0.8079,   after     0.7504
 Calling FoFJK, ICntrl=      2127 FMM=F ISym2X=0 I1Cent= 0 IOpClX= 1 NMat=1 NMatS=1 NMatT=0.
 ***** Axes restored to original set *****
 -------------------------------------------------------------------
 Center     Atomic                   Forces (Hartrees/Bohr)
 Number     Number              X              Y              Z
 -------------------------------------------------------------------
      1        6           0.024913273    0.046571611    0.017259866
      2        1           0.002917705   -0.006577689   -0.004489092
      3        1          -0.006093887   -0.000772109   -0.005759196
      4        6          -0.038105756   -0.068954003   -0.014326360
      5        1          -0.006492995    0.019459186   -0.017544300
      6        1           0.020068715    0.003962136   -0.014922295
      7        8          -0.002077243    0.012100623    0.042926286
      8        1           0.004870188   -0.005789754   -0.003144908
 -------------------------------------------------------------------
 Cartesian Forces:  Max     0.068954003 RMS     0.023338588

 GradGradGradGradGradGradGradGradGradGradGradGradGradGradGradGradGradGrad
 Berny optimization.
 Internal  Forces:  Max     0.049015080 RMS     0.015487447
 Search for a saddle point.
 Step number   3 out of a maximum of   38
 All quantities printed in internal units (Hartrees-Bohrs-Radians)
 Swaping is turned off.
 Update second derivatives using D2CorX and points    1    2    3
     Eigenvalues ---   -0.10018   0.00737   0.01048   0.01842   0.02001
     Eigenvalues ---    0.03385   0.04087   0.06864   0.09757   0.09877
     Eigenvalues ---    0.15452   0.16613   0.30357   0.40093   0.40278
     Eigenvalues ---    0.40540   0.40600   0.523881000.000001000.00000
     Eigenvalues --- 1000.000001000.000001000.000001000.000001000.00000
     Eigenvalues --- 1000.000001000.000001000.00000
 Eigenvectors required to have negative eigenvalues:
                          R8        R9        R3        A6        A4
   1                    0.89452   0.27016  -0.20335  -0.14324  -0.09356
                          A13       D2        A3        R5        A9
   1                    0.08623   0.08497  -0.08303  -0.07595   0.07154
 RFO step:  Lambda0=9.445828819D-03 Lambda=-3.35520660D-02.
 Linear search not attempted -- option 19 set.
 Maximum step size (   0.030) exceeded in Quadratic search.
    -- Step size scaled by   0.048
 Iteration  1 RMS(Cart)=  0.00310048 RMS(Int)=  0.00002789
 Iteration  2 RMS(Cart)=  0.00002111 RMS(Int)=  0.00002024
 Iteration  3 RMS(Cart)=  0.00000000 RMS(Int)=  0.00002024
 Variable       Old X    -DE/DX   Delta X   Delta X   Delta X     New X
                                 (Linear)    (Quad)   (Total)
    R1        2.02392   0.00719   0.00000   0.00093   0.00093   2.02485
    R2        2.02359   0.00614   0.00000   0.00076   0.00076   2.02435
    R3        2.76698  -0.04902   0.00000  -0.01164  -0.01164   2.75534
    R4        4.69418   0.00426   0.00000  -0.00213  -0.00212   4.69205
    R5        4.61777   0.00294   0.00000   0.00055   0.00055   4.61832
    R6        2.02375   0.00919   0.00000   0.00082   0.00082   2.02458
    R7        2.02390   0.01037   0.00000   0.00090   0.00090   2.02480
    R8        3.79598  -0.04404   0.00000   0.00783   0.00782   3.80380
    R9        4.30212  -0.00269   0.00000   0.00734   0.00734   4.30946
   R10        1.81556   0.01213   0.00000   0.00068   0.00068   1.81624
    A1        2.08860  -0.00067   0.00000  -0.00181  -0.00182   2.08678
    A2        2.09791   0.00122   0.00000   0.00115   0.00115   2.09905
    A3        1.91064   0.00145   0.00000  -0.00230  -0.00230   1.90834
    A4        1.51873  -0.00023   0.00000  -0.00257  -0.00258   1.51615
    A5        2.09190   0.00022   0.00000   0.00117   0.00116   2.09306
    A6        1.90621   0.00683   0.00000  -0.00331  -0.00332   1.90289
    A7        2.14151  -0.00793   0.00000  -0.00429  -0.00430   2.13720
    A8        1.97067   0.01038   0.00000   0.00552   0.00548   1.97614
    A9        1.97191   0.01133   0.00000   0.00611   0.00606   1.97798
   A10        1.91929  -0.00232   0.00000   0.00448   0.00441   1.92370
   A11        2.00524  -0.01825   0.00000  -0.00835  -0.00835   1.99689
   A12        2.43914  -0.01614   0.00000  -0.00881  -0.00881   2.43033
   A13        2.00674  -0.02562   0.00000  -0.00747  -0.00747   1.99927
   A14        1.73063  -0.00452   0.00000  -0.00519  -0.00520   1.72543
    D1       -2.61415  -0.01162   0.00000  -0.01042  -0.01044  -2.62459
    D2       -0.42225   0.00310   0.00000   0.00527   0.00530  -0.41695
    D3        0.42211  -0.00327   0.00000  -0.00497  -0.00500   0.41711
    D4        2.61401   0.01144   0.00000   0.01072   0.01074   2.62475
         Item               Value     Threshold  Converged?
 Maximum Force            0.049015     0.000450     NO 
 RMS     Force            0.015487     0.000300     NO 
 Maximum Displacement     0.008701     0.001800     NO 
 RMS     Displacement     0.003099     0.001200     NO 
 Predicted change in Energy=-1.132228D-03
 GradGradGradGradGradGradGradGradGradGradGradGradGradGradGradGradGradGrad

                          Input orientation:                          
 ---------------------------------------------------------------------
 Center     Atomic      Atomic             Coordinates (Angstroms)
 Number     Number       Type             X           Y           Z
 ---------------------------------------------------------------------
      1          6           0       -0.472743    0.753627    0.597586
      2          1           0        0.058360   -0.176930    0.586942
      3          1           0       -1.543908    0.751013    0.584950
      4          6           0        0.249742    2.010400    0.754047
      5          1           0       -0.327260    2.771896    1.238818
      6          1           0        1.197351    1.897287    1.241191
      7          8           0        0.355052    2.194003   -1.247679
      8          1           0        0.860223    1.383004   -1.351714
 ---------------------------------------------------------------------
                    Distance matrix (angstroms):
                    1          2          3          4          5
     1  C    0.000000
     2  H    1.071504   0.000000
     3  H    1.071242   1.851579   0.000000
     4  C    1.458062   2.202037   2.198143   0.000000
     5  H    2.122676   3.044540   2.447804   1.071359   0.000000
     6  H    2.124006   2.455142   3.042876   1.071478   1.757665
     7  O    2.482928   3.012504   3.007789   2.012885   2.642381
     8  H    2.443908   2.614339   3.151179   2.280470   3.170172
                    6          7          8
     6  H    0.000000
     7  O    2.644235   0.000000
     8  H    2.664826   0.961113   0.000000
 Stoichiometry    C2H5O(2)
 Framework group  C1[X(C2H5O)]
 Deg. of freedom    18
 Full point group                 C1      NOp   1
 Largest Abelian subgroup         C1      NOp   1
 Largest concise Abelian subgroup C1      NOp   1
                         Standard orientation:                         
 ---------------------------------------------------------------------
 Center     Atomic      Atomic             Coordinates (Angstroms)
 Number     Number       Type             X           Y           Z
 ---------------------------------------------------------------------
      1          6           0       -1.055584   -0.534129   -0.026719
      2          1           0       -1.309425   -1.054141    0.875098
      3          1           0       -1.380831   -0.922917   -0.970444
      4          6           0       -0.381150    0.757124    0.034508
      5          1           0       -0.613446    1.394817   -0.794465
      6          1           0       -0.542048    1.276529    0.957760
      7          8           0        1.399493   -0.171309   -0.103450
      8          1           0        1.270212   -0.661787    0.712918
 ---------------------------------------------------------------------
 Rotational constants (GHZ):     24.3607996      8.9902430      7.3163430
 Standard basis: 6-31+G(d,p) (6D, 7F)
 There are    82 symmetry adapted basis functions of A   symmetry.
 Integral buffers will be    262144 words long.
 Raffenetti 2 integral format.
 Two-electron integral symmetry is turned on.
    82 basis functions,   131 primitive gaussians,    82 cartesian basis functions
    13 alpha electrons       12 beta electrons
       nuclear repulsion energy        68.8596337221 Hartrees.
 NAtoms=    8 NActive=    8 NUniq=    8 SFac= 7.50D-01 NAtFMM=   80 NAOKFM=F Big=F
 One-electron integrals computed using PRISM.
 NBasis=    82 RedAO= T  NBF=    82
 NBsUse=    82 1.00D-06 NBFU=    82
 Initial guess read from the read-write file.
 B after Tr=     0.000000    0.000000    0.000000
         Rot=    1.000000    0.000000    0.000000    0.000000 Ang=   0.00 deg.
 Initial guess orbital symmetries:
 Alpha Orbitals:
       Occupied  (A) (A) (A) (A) (A) (A) (A) (A) (A) (A) (A) (A)
                 (A)
       Virtual   (A) (A) (A) (A) (A) (A) (A) (A) (A) (A) (A) (A)
                 (A) (A) (A) (A) (A) (A) (A) (A) (A) (A) (A) (A)
                 (A) (A) (A) (A) (A) (A) (A) (A) (A) (A) (A) (A)
                 (A) (A) (A) (A) (A) (A) (A) (A) (A) (A) (A) (A)
                 (A) (A) (A) (A) (A) (A) (A) (A) (A) (A) (A) (A)
                 (A) (A) (A) (A) (A) (A) (A) (A) (A)
 Beta  Orbitals:
       Occupied  (A) (A) (A) (A) (A) (A) (A) (A) (A) (A) (A) (A)
       Virtual   (A) (A) (A) (A) (A) (A) (A) (A) (A) (A) (A) (A)
                 (A) (A) (A) (A) (A) (A) (A) (A) (A) (A) (A) (A)
                 (A) (A) (A) (A) (A) (A) (A) (A) (A) (A) (A) (A)
                 (A) (A) (A) (A) (A) (A) (A) (A) (A) (A) (A) (A)
                 (A) (A) (A) (A) (A) (A) (A) (A) (A) (A) (A) (A)
                 (A) (A) (A) (A) (A) (A) (A) (A) (A) (A)
 Initial guess <Sx>= 0.0000 <Sy>= 0.0000 <Sz>= 0.5000 <S**2>= 0.8078 S= 0.5285
 Requested convergence on RMS density matrix=1.00D-08 within 128 cycles.
 Requested convergence on MAX density matrix=1.00D-06.
 Requested convergence on             energy=1.00D-06.
 No special actions if energy rises.
 Keep R1 and R2 ints in memory in canonical form, NReq=12588294.
 SCF Done:  E(UM052X) =  -154.282854420     A.U. after   15 cycles
             Convg  =    0.3825D-08             -V/T =  2.0105
 <Sx>= 0.0000 <Sy>= 0.0000 <Sz>= 0.5000 <S**2>= 0.8079 S= 0.5285
 <L.S>= 0.000000000000E+00
 Annihilation of the first spin contaminant:
 S**2 before annihilation     0.8079,   after     0.7504
 Calling FoFJK, ICntrl=      2127 FMM=F ISym2X=0 I1Cent= 0 IOpClX= 1 NMat=1 NMatS=1 NMatT=0.
 ***** Axes restored to original set *****
 -------------------------------------------------------------------
 Center     Atomic                   Forces (Hartrees/Bohr)
 Number     Number              X              Y              Z
 -------------------------------------------------------------------
      1        6           0.023818862    0.044530047    0.016851477
      2        1           0.002785583   -0.006278373   -0.004431661
      3        1          -0.005807003   -0.000728474   -0.005698864
      4        6          -0.036653254   -0.066256909   -0.012583532
      5        1          -0.006120541    0.018779469   -0.017373217
      6        1           0.019275767    0.003906992   -0.014790399
      7        8          -0.002002789    0.011540628    0.041191424
      8        1           0.004703375   -0.005493381   -0.003165229
 -------------------------------------------------------------------
 Cartesian Forces:  Max     0.066256909 RMS     0.022410329

 GradGradGradGradGradGradGradGradGradGradGradGradGradGradGradGradGradGrad
 Berny optimization.
 Internal  Forces:  Max     0.046833279 RMS     0.014874710
 Search for a saddle point.
 Step number   4 out of a maximum of   38
 All quantities printed in internal units (Hartrees-Bohrs-Radians)
 Swaping is turned off.
 Update second derivatives using D2CorX and points    1    2    3    4
     Eigenvalues ---   -0.09993   0.00736   0.01045   0.01853   0.01999
     Eigenvalues ---    0.03393   0.04003   0.06856   0.09762   0.09881
     Eigenvalues ---    0.15437   0.16605   0.30567   0.40093   0.40277
     Eigenvalues ---    0.40538   0.40599   0.523871000.000001000.00000
     Eigenvalues --- 1000.000001000.000001000.000001000.000001000.00000
     Eigenvalues --- 1000.000001000.000001000.00000
 Eigenvectors required to have negative eigenvalues:
                          R8        R9        R3        A6        A4
   1                    0.89468   0.27033  -0.19995  -0.14390  -0.09345
                          D2        A13       A3        R5        A9
   1                    0.08747   0.08676  -0.08371  -0.07605   0.07168
 RFO step:  Lambda0=8.809345797D-03 Lambda=-3.17634055D-02.
 Linear search not attempted -- option 19 set.
 Maximum step size (   0.030) exceeded in Quadratic search.
    -- Step size scaled by   0.048
 Iteration  1 RMS(Cart)=  0.00308208 RMS(Int)=  0.00002834
 Iteration  2 RMS(Cart)=  0.00002141 RMS(Int)=  0.00002057
 Iteration  3 RMS(Cart)=  0.00000000 RMS(Int)=  0.00002057
 Variable       Old X    -DE/DX   Delta X   Delta X   Delta X     New X
                                 (Linear)    (Quad)   (Total)
    R1        2.02485   0.00688   0.00000   0.00091   0.00091   2.02575
    R2        2.02435   0.00587   0.00000   0.00074   0.00074   2.02510
    R3        2.75534  -0.04683   0.00000  -0.01106  -0.01106   2.74427
    R4        4.69205   0.00400   0.00000  -0.00193  -0.00193   4.69013
    R5        4.61832   0.00285   0.00000   0.00067   0.00067   4.61898
    R6        2.02458   0.00879   0.00000   0.00079   0.00079   2.02536
    R7        2.02480   0.00991   0.00000   0.00086   0.00086   2.02566
    R8        3.80380  -0.04218   0.00000   0.00767   0.00767   3.81147
    R9        4.30946  -0.00248   0.00000   0.00736   0.00736   4.31682
   R10        1.81624   0.01159   0.00000   0.00067   0.00067   1.81691
    A1        2.08678  -0.00067   0.00000  -0.00174  -0.00174   2.08503
    A2        2.09905   0.00117   0.00000   0.00109   0.00108   2.10013
    A3        1.90834   0.00140   0.00000  -0.00223  -0.00224   1.90610
    A4        1.51615  -0.00026   0.00000  -0.00248  -0.00248   1.51367
    A5        2.09306   0.00021   0.00000   0.00112   0.00112   2.09418
    A6        1.90289   0.00653   0.00000  -0.00334  -0.00335   1.89954
    A7        2.13720  -0.00773   0.00000  -0.00435  -0.00436   2.13284
    A8        1.97614   0.00991   0.00000   0.00547   0.00543   1.98157
    A9        1.97798   0.01083   0.00000   0.00600   0.00596   1.98394
   A10        1.92370  -0.00228   0.00000   0.00452   0.00445   1.92815
   A11        1.99689  -0.01776   0.00000  -0.00851  -0.00851   1.98838
   A12        2.43033  -0.01572   0.00000  -0.00900  -0.00900   2.42133
   A13        1.99927  -0.02477   0.00000  -0.00752  -0.00752   1.99175
   A14        1.72543  -0.00449   0.00000  -0.00524  -0.00525   1.72019
    D1       -2.62459  -0.01143   0.00000  -0.01055  -0.01057  -2.63516
    D2       -0.41695   0.00310   0.00000   0.00549   0.00552  -0.41143
    D3        0.41711  -0.00327   0.00000  -0.00517  -0.00520   0.41192
    D4        2.62475   0.01126   0.00000   0.01088   0.01090   2.63564
         Item               Value     Threshold  Converged?
 Maximum Force            0.046833     0.000450     NO 
 RMS     Force            0.014875     0.000300     NO 
 Maximum Displacement     0.008769     0.001800     NO 
 RMS     Displacement     0.003080     0.001200     NO 
 Predicted change in Energy=-1.088956D-03
 GradGradGradGradGradGradGradGradGradGradGradGradGradGradGradGradGradGrad

                          Input orientation:                          
 ---------------------------------------------------------------------
 Center     Atomic      Atomic             Coordinates (Angstroms)
 Number     Number       Type             X           Y           Z
 ---------------------------------------------------------------------
      1          6           0       -0.471755    0.755158    0.599541
      2          1           0        0.058728   -0.176259    0.585442
      3          1           0       -1.543251    0.751805    0.582645
      4          6           0        0.247748    2.006515    0.758687
      5          1           0       -0.328240    2.773570    1.236777
      6          1           0        1.199524    1.897546    1.239615
      7          8           0        0.354247    2.193499   -1.246743
      8          1           0        0.859816    1.382466   -1.351822
 ---------------------------------------------------------------------
                    Distance matrix (angstroms):
                    1          2          3          4          5
     1  C    0.000000
     2  H    1.071983   0.000000
     3  H    1.071635   1.851390   0.000000
     4  C    1.452207   2.197781   2.193847   0.000000
     5  H    2.121474   3.045566   2.447790   1.071776   0.000000
     6  H    2.123185   2.455611   3.044199   1.071935   1.761104
     7  O    2.481908   3.009981   3.004270   2.016942   2.640102
     8  H    2.444261   2.612347   3.148750   2.284363   3.169778
                    6          7          8
     6  H    0.000000
     7  O    2.642737   0.000000
     8  H    2.663880   0.961465   0.000000
 Stoichiometry    C2H5O(2)
 Framework group  C1[X(C2H5O)]
 Deg. of freedom    18
 Full point group                 C1      NOp   1
 Largest Abelian subgroup         C1      NOp   1
 Largest concise Abelian subgroup C1      NOp   1
                         Standard orientation:                         
 ---------------------------------------------------------------------
 Center     Atomic      Atomic             Coordinates (Angstroms)
 Number     Number       Type             X           Y           Z
 ---------------------------------------------------------------------
      1          6           0       -1.053309   -0.534077   -0.026737
      2          1           0       -1.304035   -1.057317    0.874653
      3          1           0       -1.374307   -0.926677   -0.970785
      4          6           0       -0.387328    0.754955    0.034676
      5          1           0       -0.612300    1.392954   -0.796618
      6          1           0       -0.541274    1.275296    0.959116
      7          8           0        1.400361   -0.168710   -0.103407
      8          1           0        1.272848   -0.659845    0.713258
 ---------------------------------------------------------------------
 Rotational constants (GHZ):     24.4137826      8.9872232      7.3204787
 Standard basis: 6-31+G(d,p) (6D, 7F)
 There are    82 symmetry adapted basis functions of A   symmetry.
 Integral buffers will be    262144 words long.
 Raffenetti 2 integral format.
 Two-electron integral symmetry is turned on.
    82 basis functions,   131 primitive gaussians,    82 cartesian basis functions
    13 alpha electrons       12 beta electrons
       nuclear repulsion energy        68.8939387657 Hartrees.
 NAtoms=    8 NActive=    8 NUniq=    8 SFac= 7.50D-01 NAtFMM=   80 NAOKFM=F Big=F
 One-electron integrals computed using PRISM.
 NBasis=    82 RedAO= T  NBF=    82
 NBsUse=    82 1.00D-06 NBFU=    82
 Initial guess read from the read-write file.
 B after Tr=     0.000000    0.000000    0.000000
         Rot=    1.000000    0.000000    0.000000    0.000000 Ang=   0.00 deg.
 Initial guess orbital symmetries:
 Alpha Orbitals:
       Occupied  (A) (A) (A) (A) (A) (A) (A) (A) (A) (A) (A) (A)
                 (A)
       Virtual   (A) (A) (A) (A) (A) (A) (A) (A) (A) (A) (A) (A)
                 (A) (A) (A) (A) (A) (A) (A) (A) (A) (A) (A) (A)
                 (A) (A) (A) (A) (A) (A) (A) (A) (A) (A) (A) (A)
                 (A) (A) (A) (A) (A) (A) (A) (A) (A) (A) (A) (A)
                 (A) (A) (A) (A) (A) (A) (A) (A) (A) (A) (A) (A)
                 (A) (A) (A) (A) (A) (A) (A) (A) (A)
 Beta  Orbitals:
       Occupied  (A) (A) (A) (A) (A) (A) (A) (A) (A) (A) (A) (A)
       Virtual   (A) (A) (A) (A) (A) (A) (A) (A) (A) (A) (A) (A)
                 (A) (A) (A) (A) (A) (A) (A) (A) (A) (A) (A) (A)
                 (A) (A) (A) (A) (A) (A) (A) (A) (A) (A) (A) (A)
                 (A) (A) (A) (A) (A) (A) (A) (A) (A) (A) (A) (A)
                 (A) (A) (A) (A) (A) (A) (A) (A) (A) (A) (A) (A)
                 (A) (A) (A) (A) (A) (A) (A) (A) (A) (A)
 Initial guess <Sx>= 0.0000 <Sy>= 0.0000 <Sz>= 0.5000 <S**2>= 0.8077 S= 0.5285
 Requested convergence on RMS density matrix=1.00D-08 within 128 cycles.
 Requested convergence on MAX density matrix=1.00D-06.
 Requested convergence on             energy=1.00D-06.
 No special actions if energy rises.
 Keep R1 and R2 ints in memory in canonical form, NReq=12588294.
 SCF Done:  E(UM052X) =  -154.283943053     A.U. after   15 cycles
             Convg  =    0.3602D-08             -V/T =  2.0104
 <Sx>= 0.0000 <Sy>= 0.0000 <Sz>= 0.5000 <S**2>= 0.8077 S= 0.5284
 <L.S>= 0.000000000000E+00
 Annihilation of the first spin contaminant:
 S**2 before annihilation     0.8077,   after     0.7504
 Calling FoFJK, ICntrl=      2127 FMM=F ISym2X=0 I1Cent= 0 IOpClX= 1 NMat=1 NMatS=1 NMatT=0.
 ***** Axes restored to original set *****
 -------------------------------------------------------------------
 Center     Atomic                   Forces (Hartrees/Bohr)
 Number     Number              X              Y              Z
 -------------------------------------------------------------------
      1        6           0.022750916    0.042534700    0.016431688
      2        1           0.002658383   -0.005987652   -0.004363661
      3        1          -0.005528398   -0.000684571   -0.005629115
      4        6          -0.035231630   -0.063610811   -0.010934129
      5        1          -0.005758983    0.018104286   -0.017182833
      6        1           0.018497497    0.003846904   -0.014638953
      7        8          -0.001926871    0.011004800    0.039498104
      8        1           0.004539086   -0.005207657   -0.003181101
 -------------------------------------------------------------------
 Cartesian Forces:  Max     0.063610811 RMS     0.021504689

 GradGradGradGradGradGradGradGradGradGradGradGradGradGradGradGradGradGrad
 Berny optimization.
 Internal  Forces:  Max     0.044712896 RMS     0.014277141
 Search for a saddle point.
 Step number   5 out of a maximum of   38
 All quantities printed in internal units (Hartrees-Bohrs-Radians)
 Swaping is turned off.
 Update second derivatives using D2CorX and points    1    2    3    4    5
     Eigenvalues ---   -0.09956   0.00736   0.01042   0.01863   0.01997
     Eigenvalues ---    0.03400   0.03922   0.06849   0.09764   0.09884
     Eigenvalues ---    0.15419   0.16595   0.30750   0.40093   0.40277
     Eigenvalues ---    0.40536   0.40599   0.523861000.000001000.00000
     Eigenvalues --- 1000.000001000.000001000.000001000.000001000.00000
     Eigenvalues --- 1000.000001000.000001000.00000
 Eigenvectors required to have negative eigenvalues:
                          R8        R9        R3        A6        A4
   1                    0.89487   0.27043  -0.19675  -0.14442  -0.09333
                          D2        A13       A3        R5        A9
   1                    0.08974   0.08745  -0.08432  -0.07625   0.07165
 RFO step:  Lambda0=8.221587955D-03 Lambda=-3.00588917D-02.
 Linear search not attempted -- option 19 set.
 Maximum step size (   0.030) exceeded in Quadratic search.
    -- Step size scaled by   0.049
 Iteration  1 RMS(Cart)=  0.00306607 RMS(Int)=  0.00002872
 Iteration  2 RMS(Cart)=  0.00002167 RMS(Int)=  0.00002086
 Iteration  3 RMS(Cart)=  0.00000000 RMS(Int)=  0.00002086
 Variable       Old X    -DE/DX   Delta X   Delta X   Delta X     New X
                                 (Linear)    (Quad)   (Total)
    R1        2.02575   0.00658   0.00000   0.00088   0.00088   2.02664
    R2        2.02510   0.00561   0.00000   0.00072   0.00072   2.02582
    R3        2.74427  -0.04471   0.00000  -0.01051  -0.01051   2.73377
    R4        4.69013   0.00375   0.00000  -0.00172  -0.00172   4.68841
    R5        4.61898   0.00277   0.00000   0.00079   0.00079   4.61977
    R6        2.02536   0.00839   0.00000   0.00075   0.00075   2.02612
    R7        2.02566   0.00946   0.00000   0.00083   0.00083   2.02649
    R8        3.81147  -0.04037   0.00000   0.00754   0.00753   3.81900
    R9        4.31682  -0.00227   0.00000   0.00738   0.00738   4.32420
   R10        1.81691   0.01106   0.00000   0.00065   0.00065   1.81755
    A1        2.08503  -0.00067   0.00000  -0.00166  -0.00167   2.08336
    A2        2.10013   0.00111   0.00000   0.00103   0.00102   2.10116
    A3        1.90610   0.00135   0.00000  -0.00216  -0.00216   1.90394
    A4        1.51367  -0.00028   0.00000  -0.00238  -0.00239   1.51128
    A5        2.09418   0.00021   0.00000   0.00108   0.00107   2.09525
    A6        1.89954   0.00624   0.00000  -0.00337  -0.00337   1.89616
    A7        2.13284  -0.00753   0.00000  -0.00441  -0.00442   2.12843
    A8        1.98157   0.00946   0.00000   0.00542   0.00537   1.98694
    A9        1.98394   0.01034   0.00000   0.00589   0.00585   1.98979
   A10        1.92815  -0.00225   0.00000   0.00454   0.00447   1.93262
   A11        1.98838  -0.01726   0.00000  -0.00866  -0.00866   1.97972
   A12        2.42133  -0.01529   0.00000  -0.00917  -0.00918   2.41215
   A13        1.99175  -0.02393   0.00000  -0.00757  -0.00756   1.98419
   A14        1.72019  -0.00445   0.00000  -0.00527  -0.00528   1.71490
    D1       -2.63516  -0.01124   0.00000  -0.01067  -0.01069  -2.64585
    D2       -0.41143   0.00311   0.00000   0.00572   0.00575  -0.40569
    D3        0.41192  -0.00327   0.00000  -0.00536  -0.00539   0.40653
    D4        2.63564   0.01107   0.00000   0.01103   0.01105   2.64669
         Item               Value     Threshold  Converged?
 Maximum Force            0.044713     0.000450     NO 
 RMS     Force            0.014277     0.000300     NO 
 Maximum Displacement     0.008830     0.001800     NO 
 RMS     Displacement     0.003064     0.001200     NO 
 Predicted change in Energy=-1.045886D-03
 GradGradGradGradGradGradGradGradGradGradGradGradGradGradGradGradGradGrad

                          Input orientation:                          
 ---------------------------------------------------------------------
 Center     Atomic      Atomic             Coordinates (Angstroms)
 Number     Number       Type             X           Y           Z
 ---------------------------------------------------------------------
      1          6           0       -0.470837    0.756538    0.601495
      2          1           0        0.059062   -0.175690    0.584023
      3          1           0       -1.542637    0.752509    0.580312
      4          6           0        0.245826    2.002724    0.763360
      5          1           0       -0.329152    2.775313    1.234597
      6          1           0        1.201708    1.897825    1.237985
      7          8           0        0.353497    2.193097   -1.245700
      8          1           0        0.859350    1.381986   -1.351931
 ---------------------------------------------------------------------
                    Distance matrix (angstroms):
                    1          2          3          4          5
     1  C    0.000000
     2  H    1.072450   0.000000
     3  H    1.072017   1.851219   0.000000
     4  C    1.446648   2.193749   2.189783   0.000000
     5  H    2.120459   3.046699   2.447932   1.072174   0.000000
     6  H    2.122514   2.456170   3.045606   1.072373   1.764520
     7  O    2.480999   3.007612   3.000822   2.020929   2.637586
     8  H    2.444679   2.610504   3.146322   2.288271   3.169231
                    6          7          8
     6  H    0.000000
     7  O    2.641087   0.000000
     8  H    2.662887   0.961807   0.000000
 Stoichiometry    C2H5O(2)
 Framework group  C1[X(C2H5O)]
 Deg. of freedom    18
 Full point group                 C1      NOp   1
 Largest Abelian subgroup         C1      NOp   1
 Largest concise Abelian subgroup C1      NOp   1
                         Standard orientation:                         
 ---------------------------------------------------------------------
 Center     Atomic      Atomic             Coordinates (Angstroms)
 Number     Number       Type             X           Y           Z
 ---------------------------------------------------------------------
      1          6           0       -1.051222   -0.533978   -0.026762
      2          1           0       -1.298976   -1.060280    0.874223
      3          1           0       -1.367968   -0.930273   -0.971136
      4          6           0       -0.393286    0.752922    0.034844
      5          1           0       -0.610664    1.391182   -0.798780
      6          1           0       -0.540169    1.274147    0.960442
      7          8           0        1.401183   -0.166284   -0.103347
      8          1           0        1.275362   -0.658169    0.713533
 ---------------------------------------------------------------------
 Rotational constants (GHZ):     24.4633088      8.9839135      7.3240698
 Standard basis: 6-31+G(d,p) (6D, 7F)
 There are    82 symmetry adapted basis functions of A   symmetry.
 Integral buffers will be    262144 words long.
 Raffenetti 2 integral format.
 Two-electron integral symmetry is turned on.
[...]
   A11        1.66764  -0.00375   0.00000  -0.01003  -0.01002   1.65762
   A12        2.07128  -0.00379   0.00000  -0.01142  -0.01142   2.05986
   A13        1.76352  -0.00479   0.00000  -0.00586  -0.00586   1.75766
   A14        1.59640  -0.00096   0.00000  -0.00069  -0.00069   1.59572
    D1       -2.97033  -0.00309   0.00000  -0.00741  -0.00742  -2.97775
    D2       -0.16695   0.00138   0.00000   0.00678   0.00678  -0.16017
    D3        0.18545  -0.00142   0.00000  -0.00623  -0.00623   0.17922
    D4        2.98884   0.00305   0.00000   0.00797   0.00797   2.99681
         Item               Value     Threshold  Converged?
 Maximum Force            0.006720     0.000450     NO 
 RMS     Force            0.002505     0.000300     NO 
 Maximum Displacement     0.010609     0.001800     NO 
 RMS     Displacement     0.004664     0.001200     NO 
 Predicted change in Energy=-1.830034D-04
 Optimization stopped.
    -- Number of steps exceeded,  NStep=  38
    -- Flag reset to prevent archiving.
                           ----------------------------
                           ! Non-Optimized Parameters !
                           ! (Angstroms and Degrees)  !
 --------------------------                            --------------------------
 ! Name  Definition              Value          Derivative Info.                !
 --------------------------------------------------------------------------------
 ! R1    R(1,2)                  1.0817         -DE/DX =    0.001               !
 ! R2    R(1,3)                  1.08           -DE/DX =    0.0009              !
 ! R3    R(1,4)                  1.3601         -DE/DX =   -0.0067              !
 ! R4    R(1,7)                  2.5507         -DE/DX =    0.0009              !
 ! R5    R(1,8)                  2.5104         -DE/DX =    0.0011              !
 ! R6    R(4,5)                  1.0793         -DE/DX =    0.0013              !
 ! R7    R(4,6)                  1.0802         -DE/DX =    0.0014              !
 ! R8    R(4,7)                  2.1509         -DE/DX =   -0.006               !
 ! R9    R(4,8)                  2.447          -DE/DX =    0.0003              !
 ! R10   R(7,8)                  0.9688         -DE/DX =    0.0018              !
 ! A1    A(2,1,3)              117.7923         -DE/DX =   -0.0001              !
 ! A2    A(2,1,4)              121.2178         -DE/DX =    0.0002              !
 ! A3    A(2,1,7)              108.7831         -DE/DX =    0.0001              !
 ! A4    A(2,1,8)               86.9977         -DE/DX =    0.0003              !
 ! A5    A(3,1,4)              120.9842         -DE/DX =    0.0                 !
 ! A6    A(3,1,7)              102.8322         -DE/DX =    0.0011              !
 ! A7    A(3,1,8)              111.6058         -DE/DX =   -0.0021              !
 ! A8    A(1,4,5)              120.3229         -DE/DX =    0.0011              !
 ! A9    A(1,4,6)              120.5041         -DE/DX =    0.0011              !
 ! A10   A(5,4,6)              116.6635         -DE/DX =   -0.0009              !
 ! A11   A(5,4,7)               94.9745         -DE/DX =   -0.0038              !
 ! A12   A(5,4,8)              118.0211         -DE/DX =   -0.0038              !
 ! A13   A(6,4,7)              100.7063         -DE/DX =   -0.0048              !
 ! A14   A(6,4,8)               91.4279         -DE/DX =   -0.001               !
 ! D1    D(2,1,4,5)           -170.6127         -DE/DX =   -0.0031              !
 ! D2    D(2,1,4,6)             -9.177          -DE/DX =    0.0014              !
 ! D3    D(3,1,4,5)             10.2687         -DE/DX =   -0.0014              !
 ! D4    D(3,1,4,6)            171.7044         -DE/DX =    0.003               !
 --------------------------------------------------------------------------------
 GradGradGradGradGradGradGradGradGradGradGradGradGradGradGradGradGradGrad

                          Input orientation:                          
 ---------------------------------------------------------------------
 Center     Atomic      Atomic             Coordinates (Angstroms)
 Number     Number       Type             X           Y           Z
 ---------------------------------------------------------------------
      1          6           0       -0.459344    0.752405    0.667510
      2          1           0        0.062045   -0.193839    0.616224
      3          1           0       -1.527550    0.748316    0.509115
      4          6           0        0.208830    1.913668    0.907395
      5          1           0       -0.336500    2.822117    1.112217
      6          1           0        1.247471    1.896058    1.203065
      7          8           0        0.388407    2.251251   -1.205789
      8          1           0        0.793457    1.394323   -1.405594
 ---------------------------------------------------------------------
                    Distance matrix (angstroms):
                    1          2          3          4          5
     1  C    0.000000
     2  H    1.081598   0.000000
     3  H    1.079894   1.850930   0.000000
     4  C    1.361078   2.132583   2.128776   0.000000
     5  H    2.120510   3.082343   2.466371   1.079174   0.000000
     6  H    2.123200   2.473315   3.082146   1.080049   1.837064
     7  O    2.544498   3.066710   2.978355   2.147500   2.494900
     8  H    2.505859   2.673008   3.077419   2.441603   3.107213
                    6          7          8
     6  H    0.000000
     7  O    2.582001   0.000000
     8  H    2.694990   0.968665   0.000000
 Stoichiometry    C2H5O(2)
 Framework group  C1[X(C2H5O)]
 Deg. of freedom    18
 Full point group                 C1      NOp   1
 Largest Abelian subgroup         C1      NOp   1
 Largest concise Abelian subgroup C1      NOp   1
                         Standard orientation:                         
 ---------------------------------------------------------------------
 Center     Atomic      Atomic             Coordinates (Angstroms)
 Number     Number       Type             X           Y           Z
 ---------------------------------------------------------------------
      1          6           0       -1.066641   -0.512827   -0.032725
      2          1           0       -1.314527   -1.066652    0.862643
      3          1           0       -1.260580   -0.982521   -0.985586
      4          6           0       -0.513238    0.728736    0.036552
      5          1           0       -0.417503    1.331511   -0.853456
      6          1           0       -0.452078    1.248378    0.981400
      7          8           0        1.449097   -0.135021   -0.085592
      8          1           0        1.331182   -0.746007    0.656772
 ---------------------------------------------------------------------
 Rotational constants (GHZ):     25.4720139      8.4487681      7.0489259

 **********************************************************************

            Population analysis using the SCF density.

 **********************************************************************

 Orbital symmetries:
 Alpha Orbitals:
       Occupied  (A) (A) (A) (A) (A) (A) (A) (A) (A) (A) (A) (A)
                 (A)
       Virtual   (A) (A) (A) (A) (A) (A) (A) (A) (A) (A) (A) (A)
                 (A) (A) (A) (A) (A) (A) (A) (A) (A) (A) (A) (A)
                 (A) (A) (A) (A) (A) (A) (A) (A) (A) (A) (A) (A)
                 (A) (A) (A) (A) (A) (A) (A) (A) (A) (A) (A) (A)
                 (A) (A) (A) (A) (A) (A) (A) (A) (A) (A) (A) (A)
                 (A) (A) (A) (A) (A) (A) (A) (A) (A)
 Beta  Orbitals:
       Occupied  (A) (A) (A) (A) (A) (A) (A) (A) (A) (A) (A) (A)
       Virtual   (A) (A) (A) (A) (A) (A) (A) (A) (A) (A) (A) (A)
                 (A) (A) (A) (A) (A) (A) (A) (A) (A) (A) (A) (A)
                 (A) (A) (A) (A) (A) (A) (A) (A) (A) (A) (A) (A)
                 (A) (A) (A) (A) (A) (A) (A) (A) (A) (A) (A) (A)
                 (A) (A) (A) (A) (A) (A) (A) (A) (A) (A) (A) (A)
                 (A) (A) (A) (A) (A) (A) (A) (A) (A) (A)
 The electronic state is 2-A.
 Alpha  occ. eigenvalues --  -19.70928 -10.61168 -10.60510  -1.09533  -0.89140
 Alpha  occ. eigenvalues --   -0.69683  -0.57305  -0.52210  -0.51082  -0.47091
 Alpha  occ. eigenvalues --   -0.44750  -0.38903  -0.31716
 Alpha virt. eigenvalues --    0.03144   0.05550   0.07420   0.08118   0.09087
 Alpha virt. eigenvalues --    0.12017   0.12553   0.15642   0.17690   0.19348
 Alpha virt. eigenvalues --    0.22558   0.24627   0.26201   0.29472   0.31063
 Alpha virt. eigenvalues --    0.35400   0.37350   0.38859   0.39890   0.61940
 Alpha virt. eigenvalues --    0.67873   0.73855   0.75189   0.80035   0.93905
 Alpha virt. eigenvalues --    0.96610   0.98394   1.05814   1.08360   1.11197
 Alpha virt. eigenvalues --    1.17151   1.20250   1.26036   1.30199   1.31957
 Alpha virt. eigenvalues --    1.43402   1.48924   1.58387   1.60861   1.66059
 Alpha virt. eigenvalues --    1.68396   1.87604   1.88681   2.01760   2.06935
 Alpha virt. eigenvalues --    2.07594   2.13199   2.19652   2.27225   2.29424
 Alpha virt. eigenvalues --    2.46713   2.50684   2.52239   2.55226   2.64521
 Alpha virt. eigenvalues --    2.66515   2.72216   2.74643   2.76946   2.79616
 Alpha virt. eigenvalues --    3.02473   3.24831   3.40740   3.49045   3.53142
 Alpha virt. eigenvalues --    3.78806   4.06783   4.35003   4.56022
  Beta  occ. eigenvalues --  -19.69176 -10.61261 -10.60078  -1.04036  -0.88033
  Beta  occ. eigenvalues --   -0.69174  -0.56960  -0.50839  -0.49429  -0.44616
  Beta  occ. eigenvalues --   -0.36793  -0.35221
  Beta virt. eigenvalues --   -0.06164   0.04581   0.05899   0.07631   0.08567
  Beta virt. eigenvalues --    0.10066   0.12196   0.12808   0.16523   0.18376
  Beta virt. eigenvalues --    0.19587   0.23127   0.24965   0.27342   0.30056
  Beta virt. eigenvalues --    0.31672   0.35456   0.37777   0.39303   0.40351
  Beta virt. eigenvalues --    0.62186   0.68096   0.75094   0.77000   0.80622
  Beta virt. eigenvalues --    0.94871   0.97352   0.98460   1.07285   1.09695
  Beta virt. eigenvalues --    1.11470   1.17638   1.21058   1.30143   1.32063
  Beta virt. eigenvalues --    1.33349   1.44598   1.50127   1.59682   1.61806
  Beta virt. eigenvalues --    1.67183   1.71374   1.90542   1.91982   2.01966
  Beta virt. eigenvalues --    2.08775   2.08958   2.13408   2.21253   2.27838
  Beta virt. eigenvalues --    2.29500   2.47448   2.51658   2.54161   2.56022
  Beta virt. eigenvalues --    2.64680   2.66963   2.72515   2.76208   2.77187
  Beta virt. eigenvalues --    2.79726   3.02786   3.25741   3.41711   3.50449
  Beta virt. eigenvalues --    3.53985   3.79774   4.11350   4.35980   4.56384
          Condensed to atoms (all electrons):
              1          2          3          4          5          6
     1  C    5.280210   0.388495   0.378667   0.274118  -0.015806  -0.015822
     2  H    0.388495   0.513029  -0.028635  -0.028245   0.003455  -0.006412
     3  H    0.378667  -0.028635   0.492694  -0.012652  -0.006263   0.003441
     4  C    0.274118  -0.028245  -0.012652   5.281042   0.386043   0.373619
     5  H   -0.015806   0.003455  -0.006263   0.386043   0.490114  -0.026930
     6  H   -0.015822  -0.006412   0.003441   0.373619  -0.026930   0.511058
     7  O   -0.037033  -0.001776  -0.001191   0.028053  -0.013479  -0.012918
     8  H    0.027956   0.000073  -0.000191  -0.015464   0.001252  -0.000497
              7          8
     1  C   -0.037033   0.027956
     2  H   -0.001776   0.000073
     3  H   -0.001191  -0.000191
     4  C    0.028053  -0.015464
     5  H   -0.013479   0.001252
     6  H   -0.012918  -0.000497
     7  O    8.262853   0.221428
     8  H    0.221428   0.442433
 Mulliken atomic charges:
              1
     1  C   -0.280786
     2  H    0.160017
     3  H    0.174131
     4  C   -0.286514
     5  H    0.181616
     6  H    0.174462
     7  O   -0.445937
     8  H    0.323011
 Sum of Mulliken atomic charges =   0.00000
 Mulliken charges with hydrogens summed into heavy atoms:
              1
     1  C    0.053362
     4  C    0.069564
     7  O   -0.122926
 Sum of Mulliken charges with hydrogens summed into heavy atoms =   0.00000
          Atomic-Atomic Spin Densities.
              1          2          3          4          5          6
     1  C    0.420164  -0.000891  -0.000799   0.070187  -0.001208  -0.002594
     2  H   -0.000891  -0.017912   0.000082  -0.001005   0.000017   0.000076
     3  H   -0.000799   0.000082  -0.017135  -0.001343   0.000113   0.000006
     4  C    0.070187  -0.001005  -0.001343  -0.159391   0.003542   0.004945
     5  H   -0.001208   0.000017   0.000113   0.003542   0.009879   0.000319
     6  H   -0.002594   0.000076   0.000006   0.004945   0.000319   0.006496
     7  O   -0.047537  -0.000199  -0.000346  -0.072173  -0.002809  -0.001491
     8  H   -0.000370   0.000115   0.000028   0.002168  -0.000011   0.000078
              7          8
     1  C   -0.047537  -0.000370
     2  H   -0.000199   0.000115
     3  H   -0.000346   0.000028
     4  C   -0.072173   0.002168
     5  H   -0.002809  -0.000011
     6  H   -0.001491   0.000078
     7  O    0.880630   0.005534
     8  H    0.005534  -0.031603
 Mulliken atomic spin densities:
              1
     1  C    0.436952
     2  H   -0.019715
     3  H   -0.019393
     4  C   -0.153070
     5  H    0.009843
     6  H    0.007835
     7  O    0.761609
     8  H   -0.024060
 Sum of Mulliken atomic spin densities =   1.00000
 Electronic spatial extent (au):  <R**2>=            205.8211
 Charge=              0.0000 electrons
 Dipole moment (field-independent basis, Debye):
    X=             -1.9385    Y=             -0.5067    Z=              1.2654  Tot=              2.3698
 Quadrupole moment (field-independent basis, Debye-Ang):
   XX=            -23.1644   YY=            -17.5543   ZZ=            -17.6380
   XY=             -0.4381   XZ=              1.9341   YZ=             -1.3010
 Traceless Quadrupole moment (field-independent basis, Debye-Ang):
   XX=             -3.7121   YY=              1.8979   ZZ=              1.8142
   XY=             -0.4381   XZ=              1.9341   YZ=             -1.3010
 Octapole moment (field-independent basis, Debye-Ang**2):
  XXX=              4.5194  YYY=              0.0664  ZZZ=              0.9073  XYY=              1.0367
  XXY=             -4.3044  XXZ=              2.6357  XZZ=              0.5400  YZZ=             -0.3755
  YYZ=              0.8619  XYZ=             -1.9155
 Hexadecapole moment (field-independent basis, Debye-Ang**3):
 XXXX=           -175.4446 YYYY=            -69.2759 ZZZZ=            -32.8858 XXXY=             -1.7620
 XXXZ=              3.9503 YYYX=             -1.3133 YYYZ=             -1.9012 ZZZX=              1.9099
 ZZZY=             -0.9951 XXYY=            -37.4993 XXZZ=            -31.3259 YYZZ=            -13.9898
 XXYZ=             -2.8545 YYXZ=              1.3247 ZZXY=              0.1586
 N-N= 6.869610847259D+01 E-N=-7.399807121100D+02  KE= 2.279368898260D+02
                          Isotropic Fermi Contact Couplings
        Atom                 a.u.       MegaHertz       Gauss      10(-4) cm-1
     1  C(13)              0.06790      76.32841      27.23587      25.46042
     2  H(1)              -0.00591     -26.41799      -9.42659      -8.81209
     3  H(1)              -0.00595     -26.60494      -9.49330      -8.87445
     4  C(13)             -0.00392      -4.40591      -1.57214      -1.46965
     5  H(1)               0.00342      15.28862       5.45536       5.09974
     6  H(1)               0.00219       9.77059       3.48639       3.25912
     7  O(17)              0.13622     -82.57428     -29.46455     -27.54381
     8  H(1)              -0.01413     -63.16753     -22.53975     -21.07042
 --------------------------------------------------------
       Center         ----  Spin Dipole Couplings  ----
                      3XX-RR        3YY-RR        3ZZ-RR
 --------------------------------------------------------
     1   Atom        0.363873     -0.146490     -0.217383
     2   Atom        0.002743     -0.012103      0.009360
     3   Atom        0.002408     -0.017078      0.014669
     4   Atom       -0.086923      0.056188      0.030735
     5   Atom        0.001024      0.009910     -0.010934
     6   Atom        0.001195      0.008224     -0.009419
     7   Atom        2.800322     -1.337267     -1.463055
     8   Atom       -0.037025     -0.005176      0.042200
 --------------------------------------------------------
                        XY            XZ            YZ
 --------------------------------------------------------
     1   Atom       -0.196315      0.000978     -0.000430
     2   Atom        0.000411     -0.013699     -0.024945
     3   Atom       -0.001017      0.013402      0.021882
     4   Atom        0.029131     -0.005227      0.003455
     5   Atom       -0.005147      0.006557     -0.003385
     6   Atom       -0.003018     -0.006478      0.004944
     7   Atom       -0.649993      0.034401     -0.021419
     8   Atom        0.000887     -0.009800     -0.123589
 --------------------------------------------------------


 ---------------------------------------------------------------------------------
              Anisotropic Spin Dipole Couplings in Principal Axis System
 ---------------------------------------------------------------------------------

       Atom             a.u.   MegaHertz   Gauss  10(-4) cm-1        Axes

              Baa    -0.2174   -29.171   -10.409    -9.730  0.0056  0.0216  0.9997
     1 C(13)  Bbb    -0.2133   -28.618   -10.212    -9.546  0.3220  0.9465 -0.0223
              Bcc     0.4307    57.789    20.621    19.276  0.9467 -0.3220  0.0016
 
              Baa    -0.0302   -16.124    -5.753    -5.378  0.2290  0.7858  0.5745
     2 H(1)   Bbb    -0.0006    -0.306    -0.109    -0.102  0.8901 -0.4079  0.2032
              Bcc     0.0308    16.430     5.862     5.480 -0.3940 -0.4648  0.7929
 
              Baa    -0.0299   -15.939    -5.687    -5.317  0.2274  0.8452 -0.4836
     3 H(1)   Bbb    -0.0008    -0.407    -0.145    -0.136  0.8940 -0.3781 -0.2403
              Bcc     0.0306    16.346     5.833     5.452  0.3860  0.3777  0.8416
 
              Baa    -0.0929   -12.466    -4.448    -4.158  0.9802 -0.1926  0.0468
     4 C(13)  Bbb     0.0308     4.136     1.476     1.380 -0.0606 -0.0661  0.9960
              Bcc     0.0621     8.330     2.972     2.778  0.1887  0.9790  0.0765
 
              Baa    -0.0139    -7.404    -2.642    -2.470 -0.3887  0.0468  0.9202
     5 H(1)   Bbb     0.0002     0.086     0.031     0.029  0.7929  0.5257  0.3082
              Bcc     0.0137     7.318     2.611     2.441 -0.4693  0.8494 -0.2415
 
              Baa    -0.0130    -6.933    -2.474    -2.313  0.3821 -0.1578  0.9105
     6 H(1)   Bbb     0.0012     0.655     0.234     0.219  0.8124  0.5269 -0.2496
              Bcc     0.0118     6.278     2.240     2.094 -0.4404  0.8351  0.3296
 
              Baa    -1.4709   106.432    37.978    35.502  0.0569  0.4220  0.9048
     7 O(17)  Bbb    -1.4295   103.435    36.908    34.502  0.1408  0.8938 -0.4258
              Bcc     2.9003  -209.867   -74.886   -70.004  0.9884 -0.1517  0.0085
 
              Baa    -0.1078   -57.498   -20.517   -19.179  0.0786  0.7668  0.6371
     8 H(1)   Bbb    -0.0369   -19.714    -7.035    -6.576  0.9959 -0.0891 -0.0157
              Bcc     0.1447    77.213    27.551    25.755 -0.0447 -0.6357  0.7707
 

 ---------------------------------------------------------------------------------



 NO MATTER HOW THIN YOU SLICE IT, IT'S STILL BALONEY

                                   -- ALFRED E. SMITH
 Error termination request processed by link 9999.
 Error termination via Lnk1e in C:\G09W\l9999.exe at Wed Oct 28 22:04:06 2020.
 Job cpu time:  0 days  0 hours  7 minutes  9.0 seconds.
 File lengths (MBytes):  RWF=     15 Int=      0 D2E=      0 Chk=      2 Scr=      1
