 Entering Link 1 = C:\G09W\l1.exe PID=     10068.
  
 Copyright (c) 1988,1990,1992,1993,1995,1998,2003,2009, Gaussian, Inc.
                  All Rights Reserved.
  
 This is part of the Gaussian(R) 09 program.  It is based on
 the Gaussian(R) 03 system (copyright 2003, Gaussian, Inc.),
 the Gaussian(R) 98 system (copyright 1998, Gaussian, Inc.),
 the Gaussian(R) 94 system (copyright 1995, Gaussian, Inc.),
 the Gaussian 92(TM) system (copyright 1992, Gaussian, Inc.),
 the Gaussian 90(TM) system (copyright 1990, Gaussian, Inc.),
 the Gaussian 88(TM) system (copyright 1988, Gaussian, Inc.),
 the Gaussian 86(TM) system (copyright 1986, Carnegie Mellon
 University), and the Gaussian 82(TM) system (copyright 1983,
 Carnegie Mellon University). Gaussian is a federally registered
 trademark of Gaussian, Inc.
  
 This software contains proprietary and confidential information,
 including trade secrets, belonging to Gaussian, Inc.
  
 This software is provided under written license and may be
 used, copied, transmitted, or stored only in accord with that
 written license.
  
 The following legend is applicable only to US Government
 contracts under FAR:
  
                    RESTRICTED RIGHTS LEGEND
  
 Use, reproduction and disclosure by the US Government is
 subject to restrictions as set forth in subparagraphs (a)
 and (c) of the Commercial Computer Software - Restricted
 Rights clause in FAR 52.227-19.
  
 Gaussian, Inc.
 340 Quinnipiac St., Bldg. 40, Wallingford CT 06492
  
  
 ---------------------------------------------------------------
 Warning -- This program may not be used in any manner that
 competes with the business of Gaussian, Inc. or will provide
 assistance to any competitor of Gaussian, Inc.  The licensee
 of this program is prohibited from giving any competitor of
 Gaussian, Inc. access to this program.  By using this program,
 the user acknowledges that Gaussian, Inc. is engaged in the
 business of creating and licensing software in the field of
 computational chemistry and represents and warrants to the
 licensee that it is not a competitor of Gaussian, Inc. and that
 it will not use this program in any manner prohibited above.
 ---------------------------------------------------------------
  

 Cite this work as:
 Gaussian 09, Revision A.02,
 M. J. Frisch, G. W. Trucks, H. B. Schlegel, G. E. Scuseria, 
 M. A. Robb, J. R. Cheeseman, G. Scalmani, V. Barone, B. Mennucci, 
 G. A. Petersson, H. Nakatsuji, M. Caricato, X. Li, H. P. Hratchian, 
 A. F. Izmaylov, J. Bloino, G. Zheng, J. L. Sonnenberg, M. Hada, 
 M. Ehara, K. Toyota, R. Fukuda, J. Hasegawa, M. Ishida, T. Nakajima, 
 Y. Honda, O. Kitao, H. Nakai, T. Vreven, J. A. Montgomery, Jr., 
 J. E. Peralta, F. Ogliaro, M. Bearpark, J. J. Heyd, E. Brothers, 
 K. N. Kudin, V. N. Staroverov, R. Kobayashi, J. Normand, 
 K. Raghavachari, A. Rendell, J. C. Burant, S. S. Iyengar, J. Tomasi, 
 M. Cossi, N. Rega, J. M. Millam, M. Klene, J. E. Knox, J. B. Cross, 
 V. Bakken, C. Adamo, J. Jaramillo, R. Gomperts, R. E. Stratmann, 
 O. Yazyev, A. J. Austin, R. Cammi, C. Pomelli, J. W. Ochterski, 
 R. L. Martin, K. Morokuma, V. G. Zakrzewski, G. A. Voth, 
 P. Salvador, J. J. Dannenberg, S. Dapprich, A. D. Daniels, 
 O. Farkas, J. B. Foresman, J. V. Ortiz, J. Cioslowski, 
 and D. J. Fox, Gaussian, Inc., Wallingford CT, 2009.
 
 ******************************************
 Gaussian 09:  IA32W-G09RevA.02 11-Jun-2009
                09-Feb-2021 
 ******************************************
 %chk=D:\Documents\rayGit\FQ\quimicaComputacional\proyecto\decompositionHydrogenP
 eroxide\descompositionByRadicals\gasPhase\step4\ts\Q2ST\ts\martes\top\test1\ts.c
 hk
 %mem=1500MB
 %nprocshared=4
 Will use up to    4 processors via shared memory.
 ----------------------------------------------------------------------
 # opt=(calcfc,ts,noeigen,maxcycles=100) freq=noraman 6-31+g(d,p) m062x
 ----------------------------------------------------------------------
 1/5=1,6=100,10=4,11=1,14=-1,18=20,26=3,38=1/1,3;
 2/9=110,12=2,17=6,18=5,40=1/2;
 3/5=1,6=6,7=111,11=2,16=1,25=1,30=1,71=2,74=-55/1,2,3;
 4//1;
 5/5=2,38=5/2;
 8/6=4,10=90,11=11/1;
 11/6=1,8=1,9=11,15=111,16=1/1,2,10;
 10/6=1,7=6,13=1/2;
 6/7=2,8=2,9=2,10=2,28=1/1;
 7/10=1,18=20,25=1/1,2,3,16;
 1/5=1,6=100,10=4,11=1,14=-1,18=20/3(2);
 2/9=110/2;
 99//99;
 2/9=110/2;
 3/5=1,6=6,7=111,11=2,16=1,25=1,30=1,71=1,74=-55/1,2,3;
 4/5=5,16=3/1;
 5/5=2,38=5/2;
 7//1,2,3,16;
 1/5=1,6=100,11=1,14=-1,18=20/3(-5);
 2/9=110/2;
 6/7=2,8=2,9=2,10=2,19=2,28=1/1;
 99/9=1/99;
 ------------
 ts OOH vs OH
 ------------
 Symbolic Z-matrix:
 Charge =  0 Multiplicity = 1
 O                    -2.32186   1.39197   0. 
 O                    -1.21364   0.81373   0. 
 H                     0.00022   0.82339   0. 
 O                     0.60383  -0.13458   0. 
 H                     1.42883  -0.56505   0. 
 

 GradGradGradGradGradGradGradGradGradGradGradGradGradGradGradGradGradGrad
 Berny optimization.
 Initialization pass.
                           ----------------------------
                           !    Initial Parameters    !
                           ! (Angstroms and Degrees)  !
 --------------------------                            --------------------------
 ! Name  Definition              Value          Derivative Info.                !
 --------------------------------------------------------------------------------
 ! R1    R(1,2)                  1.25           calculate D2E/DX2 analytically  !
 ! R2    R(2,3)                  1.2139         calculate D2E/DX2 analytically  !
 ! R3    R(3,4)                  1.1323         calculate D2E/DX2 analytically  !
 ! R4    R(4,5)                  0.9306         calculate D2E/DX2 analytically  !
 ! A1    A(1,2,3)              151.9893         calculate D2E/DX2 analytically  !
 ! A2    A(2,3,4)              121.758          calculate D2E/DX2 analytically  !
 ! A3    A(3,4,5)              149.7687         calculate D2E/DX2 analytically  !
 ! D1    D(1,2,3,4)            180.0            calculate D2E/DX2 analytically  !
 ! D2    D(2,3,4,5)            180.0            calculate D2E/DX2 analytically  !
 --------------------------------------------------------------------------------
 Trust Radius=3.00D-01 FncErr=1.00D-07 GrdErr=1.00D-06
 Number of steps in this run= 100 maximum allowed number of steps= 100.
 Search for a saddle point of order  1.
 GradGradGradGradGradGradGradGradGradGradGradGradGradGradGradGradGradGrad

                          Input orientation:                          
 ---------------------------------------------------------------------
 Center     Atomic      Atomic             Coordinates (Angstroms)
 Number     Number       Type             X           Y           Z
 ---------------------------------------------------------------------
      1          8           0       -2.321859    1.391967    0.000000
      2          8           0       -1.213645    0.813728    0.000000
      3          1           0        0.000224    0.823393    0.000000
      4          8           0        0.603827   -0.134585    0.000000
      5          1           0        1.428828   -0.565051    0.000000
 ---------------------------------------------------------------------
                    Distance matrix (angstroms):
                    1          2          3          4          5
     1  O    0.000000
     2  O    1.250000   0.000000
     3  H    2.390679   1.213907   0.000000
     4  O    3.300000   2.050000   1.132280   0.000000
     5  H    4.230553   2.980553   1.992156   0.930553   0.000000
 Stoichiometry    H2O3
 Framework group  CS[SG(H2O3)]
 Deg. of freedom     7
 Full point group                 CS      NOp   2
 Largest Abelian subgroup         CS      NOp   2
 Largest concise Abelian subgroup C1      NOp   1
                         Standard orientation:                         
 ---------------------------------------------------------------------
 Center     Atomic      Atomic             Coordinates (Angstroms)
 Number     Number       Type             X           Y           Z
 ---------------------------------------------------------------------
      1          8           0        0.021927   -1.652010    0.000000
      2          8           0        0.021927   -0.402010    0.000000
      3          1           0       -0.548168    0.669700    0.000000
      4          8           0        0.021927    1.647990    0.000000
      5          1           0        0.021927    2.578543    0.000000
 ---------------------------------------------------------------------
 Rotational constants (GHZ):   1583.7581947      5.2303287      5.2131125
 Standard basis: 6-31+G(d,p) (6D, 7F)
 There are    50 symmetry adapted basis functions of A'  symmetry.
 There are    17 symmetry adapted basis functions of A"  symmetry.
 Integral buffers will be    262144 words long.
 Raffenetti 2 integral format.
 Two-electron integral symmetry is turned on.
    67 basis functions,   110 primitive gaussians,    67 cartesian basis functions
    13 alpha electrons       13 beta electrons
       nuclear repulsion energy        70.1104466263 Hartrees.
 NAtoms=    5 NActive=    5 NUniq=    5 SFac= 7.50D-01 NAtFMM=   80 NAOKFM=F Big=F
 One-electron integrals computed using PRISM.
 NBasis=    67 RedAO= T  NBF=    50    17
 NBsUse=    67 1.00D-06 NBFU=    50    17
 Harris functional with IExCor= 1009 diagonalized for initial guess.
 ExpMin= 8.45D-02 ExpMax= 5.48D+03 ExpMxC= 8.25D+02 IAcc=2 IRadAn=         0 AccDes= 0.00D+00
 HarFok:  IExCor= 1009 AccDes= 0.00D+00 IRadAn=         0 IDoV= 1
 ScaDFX=  1.000000  1.000000  1.000000  1.000000
 FoFCou: FMM=F IPFlag=           0 FMFlag=      100000 FMFlg1=           0
         NFxFlg=           0 DoJE=T BraDBF=F KetDBF=T FulRan=T
         Omega=  0.000000  0.000000  1.000000  0.000000  0.000000 ICntrl=     500 IOpCl=  0
         NMat0=    1 NMatS0=    1 NMatT0=    0 NMatD0=    1 NMtDS0=    0 NMtDT0=    0
         I1Cent=           4 NGrid=           0.
 Petite list used in FoFCou.
 Initial guess orbital symmetries:
       Occupied  (A') (A') (A') (A') (A') (A') (A') (A') (A') (A")
                 (A') (A") (A')
       Virtual   (A") (A') (A') (A') (A") (A') (A') (A') (A") (A')
                 (A') (A") (A') (A') (A') (A') (A') (A") (A') (A')
                 (A') (A") (A') (A') (A") (A') (A') (A") (A') (A')
                 (A") (A') (A") (A') (A') (A") (A') (A') (A") (A')
                 (A') (A") (A') (A') (A") (A') (A") (A') (A') (A')
                 (A') (A') (A') (A')
 The electronic state of the initial guess is 1-A'.
 Requested convergence on RMS density matrix=1.00D-08 within 128 cycles.
 Requested convergence on MAX density matrix=1.00D-06.
 Requested convergence on             energy=1.00D-06.
 No special actions if energy rises.
 Keep R1 ints in memory in canonical form, NReq=3551244.
 Integral accuracy reduced to 1.0D-05 until final iterations.
 Initial convergence to 1.0D-05 achieved.  Increase integral accuracy.
 SCF Done:  E(RM062X) =  -226.509620334     A.U. after   19 cycles
             Convg  =    0.6631D-08             -V/T =  2.0082
 Range of M.O.s used for correlation:     1    67
 NBasis=    67 NAE=    13 NBE=    13 NFC=     0 NFV=     0
 NROrb=     67 NOA=    13 NOB=    13 NVA=    54 NVB=    54

 **** Warning!!: The largest alpha MO coefficient is  0.39824426D+02

 Symmetrizing basis deriv contribution to polar:
 IMax=3 JMax=2 DiffMx= 0.00D+00
 G2DrvN: will do     6 centers at a time, making    1 passes doing MaxLOS=2.
 Calling FoFCou, ICntrl=  3107 FMM=F I1Cent=   0 AccDes= 0.00D+00.
 FoFDir/FoFCou used for L=0 through L=2.
 End of G2Drv Frequency-dependent properties file   721 does not exist.
 End of G2Drv Frequency-dependent properties file   722 does not exist.
          IDoAtm=11111
          Differentiating once with respect to nuclear coordinates.
          Keep R1 ints in memory in canonical form, NReq=3416970.
          There are    18 degrees of freedom in the 1st order CPHF.  IDoFFX=5.
     12 vectors produced by pass  0 Test12= 3.90D-11 5.56D-07 XBig12= 1.57D-01 2.35D-01.
 AX will form    12 AO Fock derivatives at one time.
     12 vectors produced by pass  1 Test12= 3.90D-11 5.56D-07 XBig12= 1.49D-02 5.87D-02.
     12 vectors produced by pass  2 Test12= 3.90D-11 5.56D-07 XBig12= 3.13D-04 5.12D-03.
     12 vectors produced by pass  3 Test12= 3.90D-11 5.56D-07 XBig12= 7.34D-06 6.67D-04.
     12 vectors produced by pass  4 Test12= 3.90D-11 5.56D-07 XBig12= 1.23D-07 7.70D-05.
      8 vectors produced by pass  5 Test12= 3.90D-11 5.56D-07 XBig12= 6.31D-10 5.96D-06.
 Inverted reduced A of dimension    68 with in-core refinement.
 End of Minotr Frequency-dependent properties file   721 does not exist.
 End of Minotr Frequency-dependent properties file   722 does not exist.

 **********************************************************************

            Population analysis using the SCF density.

 **********************************************************************

 Orbital symmetries:
       Occupied  (A') (A') (A') (A') (A') (A') (A') (A') (A") (A')
                 (A') (A') (A")
       Virtual   (A") (A') (A') (A') (A") (A') (A') (A') (A") (A')
                 (A') (A") (A') (A') (A') (A') (A') (A") (A') (A')
                 (A') (A") (A') (A') (A') (A") (A') (A") (A') (A")
                 (A') (A') (A") (A') (A') (A") (A') (A') (A") (A')
                 (A') (A") (A') (A') (A") (A') (A') (A") (A') (A')
                 (A') (A') (A') (A')
 The electronic state is 1-A'.
 Alpha  occ. eigenvalues --  -19.85557 -19.84794 -19.61486  -1.42850  -1.09611
 Alpha  occ. eigenvalues --   -0.98739  -0.72389  -0.64176  -0.61707  -0.54218
 Alpha  occ. eigenvalues --   -0.41747  -0.36407  -0.36265
 Alpha virt. eigenvalues --   -0.17293   0.06709   0.08205   0.12491   0.13751
 Alpha virt. eigenvalues --    0.15151   0.18987   0.20115   0.20952   0.23925
 Alpha virt. eigenvalues --    0.25748   0.26366   0.32623   0.36959   0.41737
 Alpha virt. eigenvalues --    0.49656   0.86473   1.07616   1.09257   1.10629
 Alpha virt. eigenvalues --    1.12683   1.13154   1.15898   1.21658   1.26534
 Alpha virt. eigenvalues --    1.26571   1.33155   1.41812   1.54886   1.56084
 Alpha virt. eigenvalues --    1.56399   1.58640   1.63857   1.64701   1.81793
 Alpha virt. eigenvalues --    1.82436   1.83456   1.90371   1.92045   2.10145
 Alpha virt. eigenvalues --    2.24299   2.32599   2.48188   2.59489   2.61884
 Alpha virt. eigenvalues --    2.78562   2.89447   2.91382   3.29666   3.57194
 Alpha virt. eigenvalues --    3.79359   3.89647   4.18741   4.45645
          Condensed to atoms (all electrons):
              1          2          3          4          5
     1  O    8.000096   0.128738  -0.030320  -0.052521   0.001253
     2  O    0.128738   7.815785   0.036166  -0.044514   0.015277
     3  H   -0.030320   0.036166   0.306220   0.246032  -0.012121
     4  O   -0.052521  -0.044514   0.246032   8.455490   0.268678
     5  H    0.001253   0.015277  -0.012121   0.268678   0.309077
 Mulliken atomic charges:
              1
     1  O   -0.047245
     2  O    0.048549
     3  H    0.454023
     4  O   -0.873164
     5  H    0.417837
 Sum of Mulliken atomic charges =   0.00000
 Mulliken charges with hydrogens summed into heavy atoms:
              1
     1  O   -0.047245
     2  O    0.048549
     4  O   -0.001304
 Sum of Mulliken charges with hydrogens summed into heavy atoms =   0.00000
 APT atomic charges:
              1
     1  O    0.366065
     2  O   -0.384007
     3  H    0.315428
     4  O   -1.162809
     5  H    0.865324
 Sum of APT charges=   0.00000
 APT Atomic charges with hydrogens summed into heavy atoms:
              1
     1  O    0.366065
     2  O   -0.384007
     3  H    0.000000
     4  O    0.017943
     5  H    0.000000
 Sum of APT charges=   0.00000
 Electronic spatial extent (au):  <R**2>=            223.3336
 Charge=              0.0000 electrons
 Dipole moment (field-independent basis, Debye):
    X=             -1.1373    Y=             -0.6854    Z=              0.0000  Tot=              1.3279
 Quadrupole moment (field-independent basis, Debye-Ang):
   XX=            -18.0570   YY=            -14.0163   ZZ=            -17.2888
   XY=             -0.5934   XZ=              0.0000   YZ=              0.0000
 Traceless Quadrupole moment (field-independent basis, Debye-Ang):
   XX=             -1.6030   YY=              2.4377   ZZ=             -0.8347
   XY=             -0.5934   XZ=              0.0000   YZ=              0.0000
 Octapole moment (field-independent basis, Debye-Ang**2):
  XXX=             -0.7249  YYY=             14.3967  ZZZ=              0.0000  XYY=              0.5497
  XXY=             -1.2539  XXZ=              0.0000  XZZ=             -0.1128  YZZ=             -3.6193
  YYZ=              0.0000  XYZ=              0.0000
 Hexadecapole moment (field-independent basis, Debye-Ang**3):
 XXXX=            -16.2111 YYYY=           -154.2408 ZZZZ=            -14.5965 XXXY=              0.4552
 XXXZ=              0.0000 YYYX=              2.7469 YYYZ=              0.0000 ZZZX=              0.0000
 ZZZY=              0.0000 XXYY=            -42.9146 XXZZ=             -5.1718 YYZZ=            -40.1263
 XXYZ=              0.0000 YYXZ=              0.0000 ZZXY=              0.1606
 N-N= 7.011044662631D+01 E-N=-6.744588587420D+02  KE= 2.246723630057D+02
 Symmetry A'   KE= 2.159979607826D+02
 Symmetry A"   KE= 8.674402223151D+00
  Exact polarizability:   0.000   0.000   0.000   0.000   0.000   0.000
 Approx polarizability:  11.588   0.509  67.473   0.000   0.000  12.278
 Calling FoFJK, ICntrl=    100147 FMM=F ISym2X=1 I1Cent= 0 IOpClX= 0 NMat=1 NMatS=1 NMatT=0.
 ***** Axes restored to original set *****
 -------------------------------------------------------------------
 Center     Atomic                   Forces (Hartrees/Bohr)
 Number     Number              X              Y              Z
 -------------------------------------------------------------------
      1        8           0.068270091   -0.017435863    0.000000000
      2        8          -0.142673732    0.024604185    0.000000000
      3        1           0.090641137   -0.045209678    0.000000000
      4        8          -0.052700124    0.030476281    0.000000000
      5        1           0.036462628    0.007565074    0.000000000
 -------------------------------------------------------------------
 Cartesian Forces:  Max     0.142673732 RMS     0.052458597

 GradGradGradGradGradGradGradGradGradGradGradGradGradGradGradGradGradGrad
 Berny optimization.
 Internal  Forces:  Max     0.074370556 RMS     0.045947729
 Search for a saddle point.
 Step number   1 out of a maximum of  100
 All quantities printed in internal units (Hartrees-Bohrs-Radians)
 Swaping is turned off.
 Second derivative matrix not updated -- analytic derivatives used.
 The second derivative matrix:
                          R1        R2        R3        R4        A1
           R1           0.60322
           R2           0.03589   0.16640
           R3           0.00757   0.15021   0.21416
           R4          -0.00670   0.01005  -0.01037   0.69173
           A1           0.00011  -0.04197   0.03071  -0.00022   0.02492
           A2           0.02698   0.08945   0.09237   0.01102  -0.02431
           A3          -0.00188   0.02638  -0.00594   0.01559   0.02015
           D1           0.00000   0.00000   0.00000   0.00000   0.00000
           D2           0.00000   0.00000   0.00000   0.00000   0.00000
                          A2        A3        D1        D2
           A2           0.18744
           A3          -0.01246   0.00259
           D1           0.00000   0.00000   0.00004
           D2           0.00000   0.00000   0.00580   0.01168
     Eigenvalues ---   -0.04274  -0.00236   0.01408   0.01844   0.07707
     Eigenvalues ---    0.12526   0.40776   0.61162   0.69303
 Eigenvectors required to have negative eigenvalues:
                          A1        A3        R2        R3        R1
   1                    0.60050  -0.57041   0.44237  -0.34328  -0.02234
                          R4        A2        D1        D2
   1                    0.00117   0.00096   0.00000   0.00000
 RFO step:  Lambda0=3.248093031D-02 Lambda=-6.96337912D-02.
 Linear search not attempted -- option 19 set.
 Maximum step size (   0.300) exceeded in Quadratic search.
    -- Step size scaled by   0.255
 Iteration  1 RMS(Cart)=  0.11389011 RMS(Int)=  0.02661666
 Iteration  2 RMS(Cart)=  0.02474195 RMS(Int)=  0.00064647
 Iteration  3 RMS(Cart)=  0.00075411 RMS(Int)=  0.00000056
 Iteration  4 RMS(Cart)=  0.00000063 RMS(Int)=  0.00000000
 ClnCor:  largest displacement from symmetrization is 1.32D-01 for atom     2.
          Exceeds limit of 1.00D-01 so symmetrization was rejected.
 Variable       Old X    -DE/DX   Delta X   Delta X   Delta X     New X
                                 (Linear)    (Quad)   (Total)
    R1        2.36216  -0.06859   0.00000  -0.02639  -0.02639   2.33577
    R2        2.29395   0.07437   0.00000  -0.01005  -0.01005   2.28390
    R3        2.13970  -0.04087   0.00000   0.00099   0.00099   2.14069
    R4        1.75849   0.02883   0.00000   0.00768   0.00768   1.76617
    A1        2.65271  -0.03798   0.00000  -0.21739  -0.21739   2.43532
    A2        2.12508   0.05564   0.00000   0.04303   0.04303   2.16811
    A3        2.61396  -0.04153   0.00000   0.05799   0.05799   2.67195
    D1        3.14159   0.00000   0.00000   0.17699   0.17699  -2.96461
    D2        3.14159   0.00000   0.00000  -0.07310  -0.07310   3.06849
         Item               Value     Threshold  Converged?
 Maximum Force            0.074371     0.000450     NO 
 RMS     Force            0.045948     0.000300     NO 
 Maximum Displacement     0.160861     0.001800     NO 
 RMS     Displacement     0.122781     0.001200     NO 
 Predicted change in Energy=-8.737758D-03
 GradGradGradGradGradGradGradGradGradGradGradGradGradGradGradGradGradGrad

                          Input orientation:                          
 ---------------------------------------------------------------------
 Center     Atomic      Atomic             Coordinates (Angstroms)
 Number     Number       Type             X           Y           Z
 ---------------------------------------------------------------------
      1          8           0       -2.251156    1.465981   -0.056581
      2          8           0       -1.267216    0.728604    0.069613
      3          1           0       -0.061502    0.785842    0.009106
      4          8           0        0.620399   -0.118712    0.015559
      5          1           0        1.456850   -0.532262   -0.037697
 ---------------------------------------------------------------------
                    Distance matrix (angstroms):
                    1          2          3          4          5
     1  O    0.000000
     2  O    1.236037   0.000000
     3  H    2.293794   1.208588   0.000000
     4  O    3.280592   2.069772   1.132805   0.000000
     5  H    4.212201   3.003637   2.011213   0.934617   0.000000
 Stoichiometry    H2O3
 Framework group  C1[X(H2O3)]
 Deg. of freedom     9
 Full point group                 C1      NOp   1
 Omega: Change in point group or standard orientation.

 Old FWG=CS   [SG(H2O3)]
 New FWG=C01  [X(H2O3)]
 Largest Abelian subgroup         C1      NOp   1
 Largest concise Abelian subgroup C1      NOp   1
                         Standard orientation:                         
 ---------------------------------------------------------------------
 Center     Atomic      Atomic             Coordinates (Angstroms)
 Number     Number       Type             X           Y           Z
 ---------------------------------------------------------------------
      1          8           0       -1.631984    0.072788   -0.026915
      2          8           0       -0.416207   -0.142244    0.031675
      3          1           0        0.622631    0.469402    0.117631
      4          8           0        1.647871    0.005109   -0.011070
      5          1           0        2.579935    0.045376   -0.067148
 ---------------------------------------------------------------------
 Rotational constants (GHZ):    750.2265283      5.2782389      5.2460781
 Standard basis: 6-31+G(d,p) (6D, 7F)
 There are    67 symmetry adapted basis functions of A   symmetry.
 Integral buffers will be    262144 words long.
 Raffenetti 2 integral format.
 Two-electron integral symmetry is turned on.
    67 basis functions,   110 primitive gaussians,    67 cartesian basis functions
    13 alpha electrons       13 beta electrons
       nuclear repulsion energy        70.3789742828 Hartrees.
 NAtoms=    5 NActive=    5 NUniq=    5 SFac= 7.50D-01 NAtFMM=   80 NAOKFM=F Big=F
 One-electron integrals computed using PRISM.
 NBasis=    67 RedAO= T  NBF=    67
 NBsUse=    67 1.00D-06 NBFU=    67
 Initial guess read from the read-write file.
 B after Tr=     0.000000    0.000000    0.000000
         Rot=    1.000000    0.000000    0.000000    0.000000 Ang=   0.00 deg.
 Initial guess orbital symmetries:
       Occupied  (A) (A) (A) (A) (A) (A) (A) (A) (A) (A) (A) (A)
                 (A)
       Virtual   (A) (A) (A) (A) (A) (A) (A) (A) (A) (A) (A) (A)
                 (A) (A) (A) (A) (A) (A) (A) (A) (A) (A) (A) (A)
                 (A) (A) (A) (A) (A) (A) (A) (A) (A) (A) (A) (A)
                 (A) (A) (A) (A) (A) (A) (A) (A) (A) (A) (A) (A)
                 (A) (A) (A) (A) (A) (A)
 Harris functional with IExCor= 1009 diagonalized for initial guess.
 ExpMin= 8.45D-02 ExpMax= 5.48D+03 ExpMxC= 8.25D+02 IAcc=2 IRadAn=         0 AccDes= 0.00D+00
 HarFok:  IExCor= 1009 AccDes= 0.00D+00 IRadAn=         0 IDoV= 1
 ScaDFX=  1.000000  1.000000  1.000000  1.000000
 FoFCou: FMM=F IPFlag=           0 FMFlag=      100000 FMFlg1=           0
         NFxFlg=           0 DoJE=T BraDBF=F KetDBF=T FulRan=T
         Omega=  0.000000  0.000000  1.000000  0.000000  0.000000 ICntrl=     500 IOpCl=  0
         NMat0=    1 NMatS0=    1 NMatT0=    0 NMatD0=    1 NMtDS0=    0 NMtDT0=    0
         I1Cent=           4 NGrid=           0.
 Petite list used in FoFCou.
 Requested convergence on RMS density matrix=1.00D-08 within 128 cycles.
 Requested convergence on MAX density matrix=1.00D-06.
 Requested convergence on             energy=1.00D-06.
 No special actions if energy rises.
 Keep R1 ints in memory in canonical form, NReq=3551234.
 Integral accuracy reduced to 1.0D-05 until final iterations.
 Initial convergence to 1.0D-05 achieved.  Increase integral accuracy.
 SCF Done:  E(RM062X) =  -226.518017820     A.U. after   24 cycles
             Convg  =    0.6191D-08             -V/T =  2.0081
 Calling FoFJK, ICntrl=      2127 FMM=F ISym2X=0 I1Cent= 0 IOpClX= 0 NMat=1 NMatS=1 NMatT=0.
 ***** Axes restored to original set *****
 -------------------------------------------------------------------
 Center     Atomic                   Forces (Hartrees/Bohr)
 Number     Number              X              Y              Z
 -------------------------------------------------------------------
      1        8           0.048450906   -0.021836381    0.002215428
      2        8          -0.111186433    0.027130198    0.002720828
      3        1           0.079745198   -0.035707270   -0.005370868
      4        8          -0.046027652    0.021953734    0.004895396
      5        1           0.029017981    0.008459720   -0.004460783
 -------------------------------------------------------------------
 Cartesian Forces:  Max     0.111186433 RMS     0.042548980

 GradGradGradGradGradGradGradGradGradGradGradGradGradGradGradGradGradGrad
 Berny optimization.
 Internal  Forces:  Max     0.062555813 RMS     0.037335736
 Search for a saddle point.
 Step number   2 out of a maximum of  100
 All quantities printed in internal units (Hartrees-Bohrs-Radians)
 Swaping is turned off.
 Update second derivatives using D2CorX and points    1    2
 The second derivative matrix:
                          R1        R2        R3        R4        A1
           R1           0.60444
           R2           0.03618   0.16646
           R3           0.00869   0.15051   0.21501
           R4          -0.00648   0.01011  -0.01026   0.69173
           A1           0.00556  -0.04078   0.03636   0.00107   0.04655
           A2           0.02767   0.08968   0.09262   0.01095  -0.01967
           A3          -0.00233   0.02632  -0.00668   0.01535   0.01940
           D1          -0.00132  -0.00016  -0.00220  -0.00073  -0.00195
           D2           0.00052   0.00006   0.00089   0.00030   0.00069
                          A2        A3        D1        D2
           A2           0.18693
           A3          -0.01347   0.00214
           D1          -0.00305  -0.00142  -0.00441
           D2           0.00126   0.00060   0.00768   0.01089
     Eigenvalues ---   -0.03778  -0.00782   0.01408   0.02214   0.08774
     Eigenvalues ---    0.12740   0.40775   0.61324   0.69299
 Eigenvectors required to have negative eigenvalues:
                          A3        A1        R2        R3        A2
   1                    0.62687  -0.51526  -0.46198   0.35486   0.02773
                          R1        D1        D2        R4
   1                    0.02682   0.02386  -0.01112  -0.00118
 RFO step:  Lambda0=3.423626558D-02 Lambda=-4.47676234D-02.
 Linear search not attempted -- option 19 set.
 Maximum step size (   0.300) exceeded in Quadratic search.
    -- Step size scaled by   0.264
 Iteration  1 RMS(Cart)=  0.11442358 RMS(Int)=  0.02517881
 Iteration  2 RMS(Cart)=  0.02099775 RMS(Int)=  0.00052488
 Iteration  3 RMS(Cart)=  0.00039492 RMS(Int)=  0.00000052
 Iteration  4 RMS(Cart)=  0.00000035 RMS(Int)=  0.00000000
 Variable       Old X    -DE/DX   Delta X   Delta X   Delta X     New X
                                 (Linear)    (Quad)   (Total)
    R1        2.33577  -0.05181   0.00000  -0.01900  -0.01900   2.31677
    R2        2.28390   0.06256   0.00000  -0.02994  -0.02994   2.25396
    R3        2.14069  -0.03450   0.00000   0.01127   0.01127   2.15196
    R4        1.76617   0.02248   0.00000   0.00588   0.00588   1.77205
    A1        2.43532  -0.02805   0.00000  -0.17927  -0.17927   2.25605
    A2        2.16811   0.04619   0.00000   0.05801   0.05801   2.22612
    A3        2.67195  -0.03647   0.00000   0.10407   0.10407   2.77602
    D1       -2.96461   0.00110   0.00000   0.18953   0.18953  -2.77508
    D2        3.06849  -0.00049   0.00000  -0.07952  -0.07952   2.98897
         Item               Value     Threshold  Converged?
 Maximum Force            0.062556     0.000450     NO 
 RMS     Force            0.037336     0.000300     NO 
 Maximum Displacement     0.181558     0.001800     NO 
 RMS     Displacement     0.117839     0.001200     NO 
 Predicted change in Energy=-2.634598D-03
 GradGradGradGradGradGradGradGradGradGradGradGradGradGradGradGradGradGrad

                          Input orientation:                          
 ---------------------------------------------------------------------
 Center     Atomic      Atomic             Coordinates (Angstroms)
 Number     Number       Type             X           Y           Z
 ---------------------------------------------------------------------
      1          8           0       -2.174066    1.489973   -0.140077
      2          8           0       -1.303585    0.682632    0.165689
      3          1           0       -0.120169    0.765487    0.042001
      4          8           0        0.636480   -0.085253    0.019345
      5          1           0        1.458715   -0.523386   -0.086959
 ---------------------------------------------------------------------
                    Distance matrix (angstroms):
                    1          2          3          4          5
     1  O    0.000000
     2  O    1.225982   0.000000
     3  H    2.185526   1.192743   0.000000
     4  O    3.225821   2.091629   1.138767   0.000000
     5  H    4.153738   3.024667   2.042229   0.937727   0.000000
 Stoichiometry    H2O3
 Framework group  C1[X(H2O3)]
 Deg. of freedom     9
 Full point group                 C1      NOp   1
 Largest Abelian subgroup         C1      NOp   1
 Largest concise Abelian subgroup C1      NOp   1
                         Standard orientation:                         
 ---------------------------------------------------------------------
 Center     Atomic      Atomic             Coordinates (Angstroms)
 Number     Number       Type             X           Y           Z
 ---------------------------------------------------------------------
      1          8           0        1.589823   -0.154682   -0.027103
      2          8           0        0.435652    0.256195    0.018738
      3          1           0       -0.568501   -0.339416    0.262787
      4          8           0       -1.634066   -0.044406   -0.009847
      5          1           0       -2.562773   -0.117444   -0.117093
 ---------------------------------------------------------------------
 Rotational constants (GHZ):    299.2628317      5.4326746      5.3468633
 Standard basis: 6-31+G(d,p) (6D, 7F)
 There are    67 symmetry adapted basis functions of A   symmetry.
 Integral buffers will be    262144 words long.
 Raffenetti 2 integral format.
 Two-electron integral symmetry is turned on.
    67 basis functions,   110 primitive gaussians,    67 cartesian basis functions
    13 alpha electrons       13 beta electrons
       nuclear repulsion energy        70.7117153971 Hartrees.
 NAtoms=    5 NActive=    5 NUniq=    5 SFac= 7.50D-01 NAtFMM=   80 NAOKFM=F Big=F
 One-electron integrals computed using PRISM.
 NBasis=    67 RedAO= T  NBF=    67
 NBsUse=    67 1.00D-06 NBFU=    67
 Initial guess read from the read-write file.
 B after Tr=     0.000000    0.000000    0.000000
         Rot=    1.000000    0.000000    0.000000    0.000000 Ang=   0.00 deg.
 Initial guess orbital symmetries:
       Occupied  (A) (A) (A) (A) (A) (A) (A) (A) (A) (A) (A) (A)
                 (A)
       Virtual   (A) (A) (A) (A) (A) (A) (A) (A) (A) (A) (A) (A)
                 (A) (A) (A) (A) (A) (A) (A) (A) (A) (A) (A) (A)
                 (A) (A) (A) (A) (A) (A) (A) (A) (A) (A) (A) (A)
                 (A) (A) (A) (A) (A) (A) (A) (A) (A) (A) (A) (A)
                 (A) (A) (A) (A) (A) (A)
 Harris functional with IExCor= 1009 diagonalized for initial guess.
 ExpMin= 8.45D-02 ExpMax= 5.48D+03 ExpMxC= 8.25D+02 IAcc=2 IRadAn=         0 AccDes= 0.00D+00
 HarFok:  IExCor= 1009 AccDes= 0.00D+00 IRadAn=         0 IDoV= 1
 ScaDFX=  1.000000  1.000000  1.000000  1.000000
 FoFCou: FMM=F IPFlag=           0 FMFlag=      100000 FMFlg1=           0
         NFxFlg=           0 DoJE=T BraDBF=F KetDBF=T FulRan=T
         Omega=  0.000000  0.000000  1.000000  0.000000  0.000000 ICntrl=     500 IOpCl=  0
         NMat0=    1 NMatS0=    1 NMatT0=    0 NMatD0=    1 NMtDS0=    0 NMtDT0=    0
         I1Cent=           4 NGrid=           0.
 Petite list used in FoFCou.
 Requested convergence on RMS density matrix=1.00D-08 within 128 cycles.
 Requested convergence on MAX density matrix=1.00D-06.
 Requested convergence on             energy=1.00D-06.
 No special actions if energy rises.
 Keep R1 ints in memory in canonical form, NReq=3551234.
 Integral accuracy reduced to 1.0D-05 until final iterations.
 Initial convergence to 1.0D-05 achieved.  Increase integral accuracy.
 SCF Done:  E(RM062X) =  -226.520297922     A.U. after   29 cycles
             Convg  =    0.4410D-08             -V/T =  2.0080
 Calling FoFJK, ICntrl=      2127 FMM=F ISym2X=0 I1Cent= 0 IOpClX= 0 NMat=1 NMatS=1 NMatT=0.
 ***** Axes restored to original set *****
 -------------------------------------------------------------------
 Center     Atomic                   Forces (Hartrees/Bohr)
 Number     Number              X              Y              Z
 -------------------------------------------------------------------
      1        8           0.030878816   -0.020238544    0.005541760
      2        8          -0.084396949    0.027416340    0.001452118
      3        1           0.069571557   -0.031729908   -0.008704652
      4        8          -0.038681845    0.017995267    0.009522748
      5        1           0.022628421    0.006556845   -0.007811974
 -------------------------------------------------------------------
 Cartesian Forces:  Max     0.084396949 RMS     0.034370571

 GradGradGradGradGradGradGradGradGradGradGradGradGradGradGradGradGradGrad
 Berny optimization.
 Internal  Forces:  Max     0.053323511 RMS     0.029964412
 Search for a saddle point.
 Step number   3 out of a maximum of  100
 All quantities printed in internal units (Hartrees-Bohrs-Radians)
 Swaping is turned off.
 Update second derivatives using D2CorX and points    1    2    3
 The second derivative matrix:
                          R1        R2        R3        R4        A1
           R1           0.60705
           R2           0.03836   0.16826
           R3           0.00911   0.15090   0.21501
           R4          -0.00599   0.01056  -0.01024   0.69177
           A1           0.01407  -0.03407   0.03839   0.00324   0.06770
           A2           0.02866   0.09072   0.09244   0.01085  -0.01304
           A3          -0.00404   0.02517  -0.00739   0.01466   0.01815
           D1          -0.00580  -0.00339  -0.00376  -0.00227  -0.00831
           D2           0.00239   0.00140   0.00154   0.00094   0.00331
                          A2        A3        D1        D2
           A2           0.18555
           A3          -0.01635   0.00041
           D1          -0.00900  -0.00389  -0.00702
           D2           0.00374   0.00165   0.00880   0.01041
     Eigenvalues ---   -0.03129  -0.01313   0.01408   0.02777   0.09534
     Eigenvalues ---    0.12837   0.40792   0.61710   0.69297
 Eigenvectors required to have negative eigenvalues:
                          A3        R2        A1        R3        A2
   1                    0.71356  -0.45149  -0.41136   0.33411   0.07116
                          R1        D1        R4        D2
   1                    0.03270  -0.00360  -0.00211  -0.00017
 RFO step:  Lambda0=3.432008236D-02 Lambda=-2.87102729D-02.
 Linear search not attempted -- option 19 set.
 Maximum step size (   0.300) exceeded in Quadratic search.
    -- Step size scaled by   0.266
 Iteration  1 RMS(Cart)=  0.08983484 RMS(Int)=  0.02083206
 Iteration  2 RMS(Cart)=  0.01210417 RMS(Int)=  0.00114485
 Iteration  3 RMS(Cart)=  0.00109691 RMS(Int)=  0.00000236
 Iteration  4 RMS(Cart)=  0.00000147 RMS(Int)=  0.00000000
 Iteration  5 RMS(Cart)=  0.00000000 RMS(Int)=  0.00000000
 Variable       Old X    -DE/DX   Delta X   Delta X   Delta X     New X
                                 (Linear)    (Quad)   (Total)
    R1        2.31677  -0.03663   0.00000  -0.01137  -0.01137   2.30540
    R2        2.25396   0.05332   0.00000  -0.02727  -0.02727   2.22669
    R3        2.15196  -0.02905   0.00000  -0.00476  -0.00476   2.14720
    R4        1.77205   0.01766   0.00000   0.00277   0.00277   1.77482
    A1        2.25605  -0.01641   0.00000  -0.10615  -0.10615   2.14990
    A2        2.22612   0.03895   0.00000   0.08463   0.08463   2.31075
    A3        2.77602  -0.03076   0.00000   0.18656   0.18656   2.96258
    D1       -2.77508   0.00242   0.00000   0.17434   0.17434  -2.60074
    D2        2.98897  -0.00106   0.00000  -0.07395  -0.07395   2.91502
         Item               Value     Threshold  Converged?
 Maximum Force            0.053324     0.000450     NO 
 RMS     Force            0.029964     0.000300     NO 
 Maximum Displacement     0.137270     0.001800     NO 
 RMS     Displacement     0.098589     0.001200     NO 
 Predicted change in Energy= 1.018907D-03
 GradGradGradGradGradGradGradGradGradGradGradGradGradGradGradGradGradGrad

                          Input orientation:                          
 ---------------------------------------------------------------------
 Center     Atomic      Atomic             Coordinates (Angstroms)
 Number     Number       Type             X           Y           Z
 ---------------------------------------------------------------------
      1          8           0       -2.117023    1.479731   -0.209377
      2          8           0       -1.324765    0.667207    0.238329
      3          1           0       -0.159083    0.753592    0.089517
      4          8           0        0.662120   -0.026906    0.002889
      5          1           0        1.436127   -0.544171   -0.121358
 ---------------------------------------------------------------------
                    Distance matrix (angstroms):
                    1          2          3          4          5
     1  O    0.000000
     2  O    1.219963   0.000000
     3  H    2.109536   1.178313   0.000000
     4  O    3.168383   2.117767   1.136247   0.000000
     5  H    4.090086   3.036336   2.067209   0.939195   0.000000
 Stoichiometry    H2O3
 Framework group  C1[X(H2O3)]
 Deg. of freedom     9
 Full point group                 C1      NOp   1
 Largest Abelian subgroup         C1      NOp   1
 Largest concise Abelian subgroup C1      NOp   1
                         Standard orientation:                         
 ---------------------------------------------------------------------
 Center     Atomic      Atomic             Coordinates (Angstroms)
 Number     Number       Type             X           Y           Z
 ---------------------------------------------------------------------
      1          8           0        1.546129   -0.214884   -0.022592
      2          8           0        0.457569    0.335257    0.003718
      3          1           0       -0.535964   -0.215592    0.316576
      4          8           0       -1.619251   -0.079176    0.002033
      5          1           0       -2.539610   -0.113987   -0.181854
 ---------------------------------------------------------------------
 Rotational constants (GHZ):    178.3309671      5.5985056      5.4445514
 Standard basis: 6-31+G(d,p) (6D, 7F)
 There are    67 symmetry adapted basis functions of A   symmetry.
 Integral buffers will be    262144 words long.
 Raffenetti 2 integral format.
 Two-electron integral symmetry is turned on.
    67 basis functions,   110 primitive gaussians,    67 cartesian basis functions
    13 alpha electrons       13 beta electrons
       nuclear repulsion energy        70.9602678379 Hartrees.
 NAtoms=    5 NActive=    5 NUniq=    5 SFac= 7.50D-01 NAtFMM=   80 NAOKFM=F Big=F
 One-electron integrals computed using PRISM.
 NBasis=    67 RedAO= T  NBF=    67
 NBsUse=    67 1.00D-06 NBFU=    67
 Initial guess read from the read-write file.
 B after Tr=     0.000000    0.000000    0.000000
         Rot=    1.000000    0.000000    0.000000    0.000000 Ang=   0.00 deg.
 Initial guess orbital symmetries:
       Occupied  (A) (A) (A) (A) (A) (A) (A) (A) (A) (A) (A) (A)
                 (A)
       Virtual   (A) (A) (A) (A) (A) (A) (A) (A) (A) (A) (A) (A)
                 (A) (A) (A) (A) (A) (A) (A) (A) (A) (A) (A) (A)
                 (A) (A) (A) (A) (A) (A) (A) (A) (A) (A) (A) (A)
                 (A) (A) (A) (A) (A) (A) (A) (A) (A) (A) (A) (A)
                 (A) (A) (A) (A) (A) (A)
 Harris functional with IExCor= 1009 diagonalized for initial guess.
 ExpMin= 8.45D-02 ExpMax= 5.48D+03 ExpMxC= 8.25D+02 IAcc=2 IRadAn=         0 AccDes= 0.00D+00
 HarFok:  IExCor= 1009 AccDes= 0.00D+00 IRadAn=         0 IDoV= 1
 ScaDFX=  1.000000  1.000000  1.000000  1.000000
 FoFCou: FMM=F IPFlag=           0 FMFlag=      100000 FMFlg1=           0
         NFxFlg=           0 DoJE=T BraDBF=F KetDBF=T FulRan=T
         Omega=  0.000000  0.000000  1.000000  0.000000  0.000000 ICntrl=     500 IOpCl=  0
         NMat0=    1 NMatS0=    1 NMatT0=    0 NMatD0=    1 NMtDS0=    0 NMtDT0=    0
         I1Cent=           4 NGrid=           0.
 Petite list used in FoFCou.
 Requested convergence on RMS density matrix=1.00D-08 within 128 cycles.
 Requested convergence on MAX density matrix=1.00D-06.
 Requested convergence on             energy=1.00D-06.
 No special actions if energy rises.
 Keep R1 ints in memory in canonical form, NReq=3551234.
 Integral accuracy reduced to 1.0D-05 until final iterations.
 Initial convergence to 1.0D-05 achieved.  Increase integral accuracy.
 SCF Done:  E(RM062X) =  -226.519555266     A.U. after   27 cycles
             Convg  =    0.1751D-08             -V/T =  2.0080
 Calling FoFJK, ICntrl=      2127 FMM=F ISym2X=0 I1Cent= 0 IOpClX= 0 NMat=1 NMatS=1 NMatT=0.
 ***** Axes restored to original set *****
 -------------------------------------------------------------------
 Center     Atomic                   Forces (Hartrees/Bohr)
 Number     Number              X              Y              Z
 -------------------------------------------------------------------
      1        8           0.019182222   -0.016184505    0.006015780
      2        8          -0.066532489    0.024341082    0.000594046
      3        1           0.061103964   -0.029637117   -0.008737632
      4        8          -0.030417594    0.020350977    0.009588733
      5        1           0.016663897    0.001129564   -0.007460928
 -------------------------------------------------------------------
 Cartesian Forces:  Max     0.066532489 RMS     0.028448622

 GradGradGradGradGradGradGradGradGradGradGradGradGradGradGradGradGradGrad
 Berny optimization.
 Internal  Forces:  Max     0.047077818 RMS     0.024012436
 Search for a saddle point.
 Step number   4 out of a maximum of  100
 All quantities printed in internal units (Hartrees-Bohrs-Radians)
 Swaping is turned off.
 Update second derivatives using D2CorX and points    2    3    4
 The second derivative matrix:
                          R1        R2        R3        R4        A1
           R1           0.60731
           R2           0.03895   0.16944
           R3           0.00911   0.15095   0.21500
           R4          -0.00610   0.01046  -0.01029   0.69162
           A1           0.01704  -0.02925   0.03903   0.00433   0.07392
           A2           0.02673   0.08781   0.09194   0.00981  -0.01343
           A3          -0.00821   0.01907  -0.00853   0.01220   0.01986
           D1          -0.01011  -0.01019  -0.00475  -0.00411  -0.01446
           D2           0.00417   0.00432   0.00192   0.00158   0.00726
                          A2        A3        D1        D2
           A2           0.18293
           A3          -0.02400  -0.02067
           D1          -0.01069  -0.01150  -0.00257
           D2           0.00334   0.00230   0.00477   0.01291
     Eigenvalues ---   -0.04163  -0.01402   0.01424   0.02816   0.09518
     Eigenvalues ---    0.13139   0.40642   0.61743   0.69271
 Eigenvectors required to have negative eigenvalues:
                          A3        R2        A1        R3        D1
   1                    0.86121  -0.31912  -0.27721   0.21897   0.13332
                          A2        R1        R4        D2
   1                    0.11349   0.03162  -0.00557  -0.00279
 RFO step:  Lambda0=1.756147715D-02 Lambda=-3.68746525D-02.
 Linear search not attempted -- option 19 set.
 Maximum step size (   0.300) exceeded in Quadratic search.
    -- Step size scaled by   0.292
 New curvilinear step failed, DQL= 2.54D+00 SP=-1.51D-02.
 Iteration  1 RMS(Cart)=  0.00704329 RMS(Int)=  0.08100697
 Iteration  2 RMS(Cart)=  0.00014905 RMS(Int)=  0.08081591
 Iteration  3 RMS(Cart)=  0.00014512 RMS(Int)=  0.08062987
 Iteration  4 RMS(Cart)=  0.00014134 RMS(Int)=  0.08044867
 Iteration  5 RMS(Cart)=  0.00013768 RMS(Int)=  0.08027214
 Iteration  6 RMS(Cart)=  0.00013415 RMS(Int)=  0.08010013
 Iteration  7 RMS(Cart)=  0.00013074 RMS(Int)=  0.07993248
 Iteration  8 RMS(Cart)=  0.00012744 RMS(Int)=  0.07976906
 Iteration  9 RMS(Cart)=  0.00012425 RMS(Int)=  0.07960972
 Iteration 10 RMS(Cart)=  0.00012116 RMS(Int)=  0.07945434
 Iteration 11 RMS(Cart)=  0.00011817 RMS(Int)=  0.07930278
 Iteration 12 RMS(Cart)=  0.00011527 RMS(Int)=  0.07915492
 Iteration 13 RMS(Cart)=  0.00011247 RMS(Int)=  0.07901066
 Iteration 14 RMS(Cart)=  0.00010975 RMS(Int)=  0.07886987
 Iteration 15 RMS(Cart)=  0.00010712 RMS(Int)=  0.07873245
 Iteration 16 RMS(Cart)=  0.00010457 RMS(Int)=  0.07859830
 Iteration 17 RMS(Cart)=  0.00010209 RMS(Int)=  0.07846732
 Iteration 18 RMS(Cart)=  0.00009969 RMS(Int)=  0.07833942
 Iteration 19 RMS(Cart)=  0.00009736 RMS(Int)=  0.07821450
 Iteration 20 RMS(Cart)=  0.00009510 RMS(Int)=  0.07809247
 Iteration 21 RMS(Cart)=  0.00009290 RMS(Int)=  0.07797326
 Iteration 22 RMS(Cart)=  0.00009077 RMS(Int)=  0.07785678
 Iteration 23 RMS(Cart)=  0.00008870 RMS(Int)=  0.07774295
 Iteration 24 RMS(Cart)=  0.00008668 RMS(Int)=  0.07763171
 Iteration 25 RMS(Cart)=  0.00008473 RMS(Int)=  0.07752297
 Iteration 26 RMS(Cart)=  0.00008283 RMS(Int)=  0.07741666
 Iteration 27 RMS(Cart)=  0.00008098 RMS(Int)=  0.07731273
 Iteration 28 RMS(Cart)=  0.00007918 RMS(Int)=  0.07721109
 Iteration 29 RMS(Cart)=  0.00007743 RMS(Int)=  0.07711170
 Iteration 30 RMS(Cart)=  0.00007573 RMS(Int)=  0.07701450
 Iteration 31 RMS(Cart)=  0.00007407 RMS(Int)=  0.07691941
 Iteration 32 RMS(Cart)=  0.00007246 RMS(Int)=  0.07682639
 Iteration 33 RMS(Cart)=  0.00007089 RMS(Int)=  0.07673538
 Iteration 34 RMS(Cart)=  0.00006936 RMS(Int)=  0.07664634
 Iteration 35 RMS(Cart)=  0.00006787 RMS(Int)=  0.07655920
 Iteration 36 RMS(Cart)=  0.00006642 RMS(Int)=  0.07647392
 Iteration 37 RMS(Cart)=  0.00006501 RMS(Int)=  0.07639045
 Iteration 38 RMS(Cart)=  0.00006363 RMS(Int)=  0.07630875
 Iteration 39 RMS(Cart)=  0.00006229 RMS(Int)=  0.07622876
 Iteration 40 RMS(Cart)=  0.00006098 RMS(Int)=  0.07615046
 Iteration 41 RMS(Cart)=  0.00005971 RMS(Int)=  0.07607379
 Iteration 42 RMS(Cart)=  0.00005846 RMS(Int)=  0.07599872
 Iteration 43 RMS(Cart)=  0.00005725 RMS(Int)=  0.07592520
 Iteration 44 RMS(Cart)=  0.00005607 RMS(Int)=  0.07585320
 Iteration 45 RMS(Cart)=  0.00005491 RMS(Int)=  0.07578268
 Iteration 46 RMS(Cart)=  0.00005379 RMS(Int)=  0.07571360
 Iteration 47 RMS(Cart)=  0.00005269 RMS(Int)=  0.07564594
 Iteration 48 RMS(Cart)=  0.00005161 RMS(Int)=  0.07557965
 Iteration 49 RMS(Cart)=  0.00005057 RMS(Int)=  0.07551471
 Iteration 50 RMS(Cart)=  0.00004954 RMS(Int)=  0.07545108
 Iteration 51 RMS(Cart)=  0.00004854 RMS(Int)=  0.07538873
 Iteration 52 RMS(Cart)=  0.00004757 RMS(Int)=  0.07532763
 Iteration 53 RMS(Cart)=  0.00004662 RMS(Int)=  0.07526775
 Iteration 54 RMS(Cart)=  0.00004569 RMS(Int)=  0.07520907
 Iteration 55 RMS(Cart)=  0.00004478 RMS(Int)=  0.07515155
 Iteration 56 RMS(Cart)=  0.00004389 RMS(Int)=  0.07509517
 Iteration 57 RMS(Cart)=  0.00004302 RMS(Int)=  0.07503991
 Iteration 58 RMS(Cart)=  0.00004217 RMS(Int)=  0.07498574
 Iteration 59 RMS(Cart)=  0.00004134 RMS(Int)=  0.07493263
 Iteration 60 RMS(Cart)=  0.00004053 RMS(Int)=  0.07488055
 Iteration 61 RMS(Cart)=  0.00003974 RMS(Int)=  0.07482950
 Iteration 62 RMS(Cart)=  0.00003896 RMS(Int)=  0.07477945
 Iteration 63 RMS(Cart)=  0.00003820 RMS(Int)=  0.07473038
 Iteration 64 RMS(Cart)=  0.00003746 RMS(Int)=  0.07468225
 Iteration 65 RMS(Cart)=  0.00003674 RMS(Int)=  0.07463506
 Iteration 66 RMS(Cart)=  0.00003603 RMS(Int)=  0.07458877
 Iteration 67 RMS(Cart)=  0.00003534 RMS(Int)=  0.07454337
 Iteration 68 RMS(Cart)=  0.00003466 RMS(Int)=  0.07449884
 Iteration 69 RMS(Cart)=  0.00003399 RMS(Int)=  0.07445517
 Iteration 70 RMS(Cart)=  0.00003335 RMS(Int)=  0.07441232
 Iteration 71 RMS(Cart)=  0.00003271 RMS(Int)=  0.07437029
 Iteration 72 RMS(Cart)=  0.00003209 RMS(Int)=  0.07432906
 Iteration 73 RMS(Cart)=  0.00003148 RMS(Int)=  0.07428861
 Iteration 74 RMS(Cart)=  0.00003089 RMS(Int)=  0.07424893
 Iteration 75 RMS(Cart)=  0.00003030 RMS(Int)=  0.07420999
 Iteration 76 RMS(Cart)=  0.00002973 RMS(Int)=  0.07417179
 Iteration 77 RMS(Cart)=  0.00002917 RMS(Int)=  0.07413430
 Iteration 78 RMS(Cart)=  0.00002863 RMS(Int)=  0.07409752
 Iteration 79 RMS(Cart)=  0.00002809 RMS(Int)=  0.07406142
 Iteration 80 RMS(Cart)=  0.00002757 RMS(Int)=  0.07402600
 Iteration 81 RMS(Cart)=  0.00002705 RMS(Int)=  0.07399124
 Iteration 82 RMS(Cart)=  0.00002655 RMS(Int)=  0.07395712
 Iteration 83 RMS(Cart)=  0.00002606 RMS(Int)=  0.07392364
 Iteration 84 RMS(Cart)=  0.00002557 RMS(Int)=  0.07389078
 Iteration 85 RMS(Cart)=  0.00002510 RMS(Int)=  0.07385852
 Iteration 86 RMS(Cart)=  0.00002464 RMS(Int)=  0.07382686
 Iteration 87 RMS(Cart)=  0.00002418 RMS(Int)=  0.07379579
 Iteration 88 RMS(Cart)=  0.00002374 RMS(Int)=  0.07376528
 Iteration 89 RMS(Cart)=  0.00002330 RMS(Int)=  0.07373534
 Iteration 90 RMS(Cart)=  0.00002287 RMS(Int)=  0.07370594
 Iteration 91 RMS(Cart)=  0.00002245 RMS(Int)=  0.07367708
 Iteration 92 RMS(Cart)=  0.00002204 RMS(Int)=  0.07364875
 Iteration 93 RMS(Cart)=  0.00002164 RMS(Int)=  0.07362094
 Iteration 94 RMS(Cart)=  0.00002125 RMS(Int)=  0.07359363
 Iteration 95 RMS(Cart)=  0.00002086 RMS(Int)=  0.07356682
 Iteration 96 RMS(Cart)=  0.00002048 RMS(Int)=  0.07354050
 Iteration 97 RMS(Cart)=  0.00002011 RMS(Int)=  0.07351465
 Iteration 98 RMS(Cart)=  0.00001975 RMS(Int)=  0.07348928
 Iteration 99 RMS(Cart)=  0.00001939 RMS(Int)=  0.07346436
 Iteration100 RMS(Cart)=  0.00001904 RMS(Int)=  0.07343989
 New curvilinear step not converged.
 Iteration  1 RMS(Cart)=  0.01287678 RMS(Int)=  0.06358307
 Iteration  2 RMS(Cart)=  0.01598493 RMS(Int)=  0.04317991
 Iteration  3 RMS(Cart)=  0.02220946 RMS(Int)=  0.01612544
 Iteration  4 RMS(Cart)=  0.00895218 RMS(Int)=  0.00280021
 Iteration  5 RMS(Cart)=  0.00171150 RMS(Int)=  0.00038161
 Iteration  6 RMS(Cart)=  0.00018614 RMS(Int)=  0.00000338
 Iteration  7 RMS(Cart)=  0.00000200 RMS(Int)=  0.00000000
 Iteration  8 RMS(Cart)=  0.00000000 RMS(Int)=  0.00000000
 Variable       Old X    -DE/DX   Delta X   Delta X   Delta X     New X
                                 (Linear)    (Quad)   (Total)
    R1        2.30540  -0.02545   0.00000  -0.01263  -0.01011   2.29529
    R2        2.22669   0.04708   0.00000   0.07381   0.05905   2.28573
    R3        2.14720  -0.02485   0.00000  -0.08678  -0.06942   2.07777
    R4        1.77482   0.01410   0.00000  -0.00029  -0.00023   1.77459
    A1        2.14990  -0.00851   0.00000   0.00609   0.00487   2.15477
    A2        2.31075   0.03175   0.00000   0.08572   0.06857   2.37933
    A3        2.96258  -0.02024   0.00000   0.19887   0.15910   3.12168
    D1       -2.60074   0.00433   0.00000   0.16906   0.13525  -2.46549
    D2        2.91502  -0.00071   0.00000  -0.03671  -0.02937   2.88566
         Item               Value     Threshold  Converged?
 Maximum Force            0.047078     0.000450     NO 
 RMS     Force            0.024012     0.000300     NO 
 Maximum Displacement     0.098765     0.001800     NO 
 RMS     Displacement     0.061758     0.001200     NO 
 Predicted change in Energy=-4.427280D-03
 GradGradGradGradGradGradGradGradGradGradGradGradGradGradGradGradGradGrad

                          Input orientation:                          
 ---------------------------------------------------------------------
 Center     Atomic      Atomic             Coordinates (Angstroms)
 Number     Number       Type             X           Y           Z
 ---------------------------------------------------------------------
      1          8           0       -2.112612    1.463955   -0.240581
      2          8           0       -1.339798    0.671284    0.259141
      3          1           0       -0.139112    0.737963    0.128983
      4          8           0        0.686376    0.025357   -0.011321
      5          1           0        1.402522   -0.569106   -0.136223
 ---------------------------------------------------------------------
                    Distance matrix (angstroms):
                    1          2          3          4          5
     1  O    0.000000
     2  O    1.214616   0.000000
     3  H    2.135028   1.209559   0.000000
     4  O    3.155385   2.143769   1.099510   0.000000
     5  H    4.062068   3.035654   2.038480   0.939070   0.000000
 Stoichiometry    H2O3
 Framework group  C1[X(H2O3)]
 Deg. of freedom     9
 Full point group                 C1      NOp   1
 Largest Abelian subgroup         C1      NOp   1
 Largest concise Abelian subgroup C1      NOp   1
                         Standard orientation:                         
 ---------------------------------------------------------------------
 Center     Atomic      Atomic             Coordinates (Angstroms)
 Number     Number       Type             X           Y           Z
 ---------------------------------------------------------------------
      1          8           0        1.532116   -0.235888   -0.022793
      2          8           0        0.474227    0.360487   -0.000438
      3          1           0       -0.570527   -0.147188    0.336889
      4          8           0       -1.620028   -0.097409    0.012863
      5          1           0       -2.519989   -0.070326   -0.253950
 ---------------------------------------------------------------------
 Rotational constants (GHZ):    151.6103938      5.6245252      5.4452679
 Standard basis: 6-31+G(d,p) (6D, 7F)
 There are    67 symmetry adapted basis functions of A   symmetry.
 Integral buffers will be    262144 words long.
 Raffenetti 2 integral format.
 Two-electron integral symmetry is turned on.
    67 basis functions,   110 primitive gaussians,    67 cartesian basis functions
    13 alpha electrons       13 beta electrons
       nuclear repulsion energy        70.9519152954 Hartrees.
 NAtoms=    5 NActive=    5 NUniq=    5 SFac= 7.50D-01 NAtFMM=   80 NAOKFM=F Big=F
 One-electron integrals computed using PRISM.
 NBasis=    67 RedAO= T  NBF=    67
 NBsUse=    67 1.00D-06 NBFU=    67
 Initial guess read from the read-write file.
 B after Tr=     0.000000    0.000000    0.000000
         Rot=    1.000000    0.000000    0.000000    0.000000 Ang=   0.00 deg.
 Initial guess orbital symmetries:
       Occupied  (A) (A) (A) (A) (A) (A) (A) (A) (A) (A) (A) (A)
                 (A)
       Virtual   (A) (A) (A) (A) (A) (A) (A) (A) (A) (A) (A) (A)
                 (A) (A) (A) (A) (A) (A) (A) (A) (A) (A) (A) (A)
                 (A) (A) (A) (A) (A) (A) (A) (A) (A) (A) (A) (A)
                 (A) (A) (A) (A) (A) (A) (A) (A) (A) (A) (A) (A)
                 (A) (A) (A) (A) (A) (A)
 Harris functional with IExCor= 1009 diagonalized for initial guess.
 ExpMin= 8.45D-02 ExpMax= 5.48D+03 ExpMxC= 8.25D+02 IAcc=2 IRadAn=         0 AccDes= 0.00D+00
 HarFok:  IExCor= 1009 AccDes= 0.00D+00 IRadAn=         0 IDoV= 1
 ScaDFX=  1.000000  1.000000  1.000000  1.000000
 FoFCou: FMM=F IPFlag=           0 FMFlag=      100000 FMFlg1=           0
         NFxFlg=           0 DoJE=T BraDBF=F KetDBF=T FulRan=T
         Omega=  0.000000  0.000000  1.000000  0.000000  0.000000 ICntrl=     500 IOpCl=  0
         NMat0=    1 NMatS0=    1 NMatT0=    0 NMatD0=    1 NMtDS0=    0 NMtDT0=    0
         I1Cent=           4 NGrid=           0.
 Petite list used in FoFCou.
 Requested convergence on RMS density matrix=1.00D-08 within 128 cycles.
 Requested convergence on MAX density matrix=1.00D-06.
 Requested convergence on             energy=1.00D-06.
 No special actions if energy rises.
 Keep R1 ints in memory in canonical form, NReq=3551234.
 Integral accuracy reduced to 1.0D-05 until final iterations.
 Initial convergence to 1.0D-05 achieved.  Increase integral accuracy.
 SCF Done:  E(RM062X) =  -226.524464857     A.U. after   25 cycles
             Convg  =    0.2600D-08             -V/T =  2.0079
 Calling FoFJK, ICntrl=      2127 FMM=F ISym2X=0 I1Cent= 0 IOpClX= 0 NMat=1 NMatS=1 NMatT=0.
 ***** Axes restored to original set *****
 -------------------------------------------------------------------
 Center     Atomic                   Forces (Hartrees/Bohr)
 Number     Number              X              Y              Z
 -------------------------------------------------------------------
      1        8           0.015077235   -0.012728308    0.004572679
      2        8          -0.060470009    0.020570828    0.001844520
      3        1           0.056513219   -0.029890826   -0.007955247
      4        8          -0.022011962    0.025539141    0.005869987
      5        1           0.010891517   -0.003490835   -0.004331939
 -------------------------------------------------------------------
 Cartesian Forces:  Max     0.060470009 RMS     0.025774308

 GradGradGradGradGradGradGradGradGradGradGradGradGradGradGradGradGradGrad
 Berny optimization.
 Internal  Forces:  Max     0.045364383 RMS     0.021126850
 Search for a saddle point.
 Step number   5 out of a maximum of  100
 All quantities printed in internal units (Hartrees-Bohrs-Radians)
 Swaping is turned off.
 Update second derivatives using D2CorX and points    3    4    5
 The second derivative matrix:
                          R1        R2        R3        R4        A1
           R1           0.60740
           R2           0.03911   0.16016
           R3           0.00950   0.15351   0.21632
           R4          -0.00608   0.01006  -0.01012   0.69160
           A1           0.01686  -0.02308   0.03693   0.00458   0.07022
           A2           0.02638   0.08158   0.09163   0.00949  -0.00913
           A3          -0.00869  -0.00032  -0.00679   0.01128   0.03290
           D1          -0.01127  -0.01476  -0.00910  -0.00446  -0.01071
           D2           0.00458   0.00418   0.00375   0.00163   0.00716
                          A2        A3        D1        D2
           A2           0.18094
           A3          -0.03300  -0.05375
           D1          -0.00786  -0.01033   0.01122
           D2           0.00135  -0.00146  -0.00045   0.01458
     Eigenvalues ---   -0.06891  -0.00242   0.01427   0.02162   0.09012
     Eigenvalues ---    0.13073   0.40317   0.61750   0.69262
 Eigenvectors required to have negative eigenvalues:
                          A3        A1        A2        R2        D1
   1                    0.94251  -0.25368   0.12589  -0.12174   0.08934
                          R3        D2        R1        R4
   1                    0.08164   0.03817   0.02055  -0.01072
 RFO step:  Lambda0=1.506155625D-03 Lambda=-4.28171820D-02.
 Linear search not attempted -- option 19 set.
 Maximum step size (   0.300) exceeded in Quadratic search.
    -- Step size scaled by   0.271
 Iteration  1 RMS(Cart)=  0.00724598 RMS(Int)=  0.09016486
 New curvilinear step failed, DQL= 3.02D+00 SP=-3.07D-03.
 Iteration  1 RMS(Cart)=  0.00652138 RMS(Int)=  0.08111960
 New curvilinear step failed, DQL= 3.02D+00 SP=-6.30D-03.
 Iteration  1 RMS(Cart)=  0.00579678 RMS(Int)=  0.07208526
 New curvilinear step failed, DQL= 3.03D+00 SP=-1.00D-02.
 Iteration  1 RMS(Cart)=  0.00507218 RMS(Int)=  0.06305927
 New curvilinear step failed, DQL= 3.04D+00 SP=-1.41D-02.
 Iteration  1 RMS(Cart)=  0.00434759 RMS(Int)=  0.05403976
 New curvilinear step failed, DQL= 3.05D+00 SP=-1.86D-02.
 New curvilinear step failed, DQL= 3.03D+00 SP=-7.36D-03.
 New curvilinear step failed, DQL= 3.02D+00 SP=-1.58D-02.
 New curvilinear step failed, DQL= 2.96D+00 SP=-2.37D-02.
 Iteration  1 RMS(Cart)=  0.00338131 RMS(Int)=  0.01535847
 Iteration  2 RMS(Cart)=  0.00431212 RMS(Int)=  0.00950212
 Iteration  3 RMS(Cart)=  0.00561444 RMS(Int)=  0.00320948
 Iteration  4 RMS(Cart)=  0.00095074 RMS(Int)=  0.00029668
 Iteration  5 RMS(Cart)=  0.00021345 RMS(Int)=  0.00000696
 Iteration  6 RMS(Cart)=  0.00000004 RMS(Int)=  0.00000000
 Variable       Old X    -DE/DX   Delta X   Delta X   Delta X     New X
                                 (Linear)    (Quad)   (Total)
    R1        2.29529  -0.01981   0.00000  -0.01796  -0.00359   2.29170
    R2        2.28573   0.04536   0.00000   0.18558   0.03712   2.32285
    R3        2.07777  -0.02285   0.00000  -0.15978  -0.03196   2.04582
    R4        1.77459   0.01109   0.00000  -0.00253  -0.00051   1.77408
    A1        2.15477  -0.00770   0.00000   0.07316   0.01463   2.16940
    A2        2.37933   0.02755   0.00000   0.05451   0.01090   2.39023
    A3        3.12168  -0.00877   0.00000   0.08188   0.01638   3.13805
    D1       -2.46549   0.00516   0.00000   0.12008   0.02402  -2.44147
    D2        2.88566  -0.00006   0.00000  -0.01597  -0.00319   2.88246
         Item               Value     Threshold  Converged?
 Maximum Force            0.045364     0.000450     NO 
 RMS     Force            0.021127     0.000300     NO 
 Maximum Displacement     0.029011     0.001800     NO 
 RMS     Displacement     0.014471     0.001200     NO 
 Predicted change in Energy=-2.636724D-03
 GradGradGradGradGradGradGradGradGradGradGradGradGradGradGradGradGradGrad

                          Input orientation:                          
 ---------------------------------------------------------------------
 Center     Atomic      Atomic             Coordinates (Angstroms)
 Number     Number       Type             X           Y           Z
 ---------------------------------------------------------------------
      1          8           0       -2.119928    1.462118   -0.243509
      2          8           0       -1.345444    0.675420    0.258445
      3          1           0       -0.123761    0.731561    0.134875
      4          8           0        0.689594    0.032168   -0.011160
      5          1           0        1.396913   -0.571815   -0.138650
 ---------------------------------------------------------------------
                    Distance matrix (angstroms):
                    1          2          3          4          5
     1  O    0.000000
     2  O    1.212715   0.000000
     3  H    2.159067   1.229200   0.000000
     4  O    3.161037   2.151241   1.082600   0.000000
     5  H    4.063995   3.038717   2.021399   0.938802   0.000000
 Stoichiometry    H2O3
 Framework group  C1[X(H2O3)]
 Deg. of freedom     9
 Full point group                 C1      NOp   1
 Largest Abelian subgroup         C1      NOp   1
 Largest concise Abelian subgroup C1      NOp   1
                         Standard orientation:                         
 ---------------------------------------------------------------------
 Center     Atomic      Atomic             Coordinates (Angstroms)
 Number     Number       Type             X           Y           Z
 ---------------------------------------------------------------------
      1          8           0        1.534202   -0.236112   -0.022902
      2          8           0        0.478260    0.359848   -0.000624
      3          1           0       -0.591973   -0.139698    0.339942
      4          8           0       -1.623605   -0.098168    0.014314
      5          1           0       -2.518884   -0.064853   -0.266248
 ---------------------------------------------------------------------
 Rotational constants (GHZ):    151.4713082      5.6011121      5.4242005
 Standard basis: 6-31+G(d,p) (6D, 7F)
 There are    67 symmetry adapted basis functions of A   symmetry.
 Integral buffers will be    262144 words long.
 Raffenetti 2 integral format.
 Two-electron integral symmetry is turned on.
    67 basis functions,   110 primitive gaussians,    67 cartesian basis functions
    13 alpha electrons       13 beta electrons
       nuclear repulsion energy        70.9052820046 Hartrees.
 NAtoms=    5 NActive=    5 NUniq=    5 SFac= 7.50D-01 NAtFMM=   80 NAOKFM=F Big=F
 One-electron integrals computed using PRISM.
 NBasis=    67 RedAO= T  NBF=    67
 NBsUse=    67 1.00D-06 NBFU=    67
 Initial guess read from the read-write file.
 B after Tr=     0.000000    0.000000    0.000000
         Rot=    1.000000    0.000000    0.000000    0.000000 Ang=   0.00 deg.
 Initial guess orbital symmetries:
       Occupied  (A) (A) (A) (A) (A) (A) (A) (A) (A) (A) (A) (A)
                 (A)
       Virtual   (A) (A) (A) (A) (A) (A) (A) (A) (A) (A) (A) (A)
                 (A) (A) (A) (A) (A) (A) (A) (A) (A) (A) (A) (A)
                 (A) (A) (A) (A) (A) (A) (A) (A) (A) (A) (A) (A)
                 (A) (A) (A) (A) (A) (A) (A) (A) (A) (A) (A) (A)
                 (A) (A) (A) (A) (A) (A)
 Harris functional with IExCor= 1009 diagonalized for initial guess.
 ExpMin= 8.45D-02 ExpMax= 5.48D+03 ExpMxC= 8.25D+02 IAcc=2 IRadAn=         0 AccDes= 0.00D+00
 HarFok:  IExCor= 1009 AccDes= 0.00D+00 IRadAn=         0 IDoV= 1
 ScaDFX=  1.000000  1.000000  1.000000  1.000000
 FoFCou: FMM=F IPFlag=           0 FMFlag=      100000 FMFlg1=           0
         NFxFlg=           0 DoJE=T BraDBF=F KetDBF=T FulRan=T
         Omega=  0.000000  0.000000  1.000000  0.000000  0.000000 ICntrl=     500 IOpCl=  0
         NMat0=    1 NMatS0=    1 NMatT0=    0 NMatD0=    1 NMtDS0=    0 NMtDT0=    0
         I1Cent=           4 NGrid=           0.
 Petite list used in FoFCou.
 Requested convergence on RMS density matrix=1.00D-08 within 128 cycles.
 Requested convergence on MAX density matrix=1.00D-06.
 Requested convergence on             energy=1.00D-06.
 No special actions if energy rises.
 Keep R1 ints in memory in canonical form, NReq=3551234.
 Integral accuracy reduced to 1.0D-05 until final iterations.
 Initial convergence to 1.0D-05 achieved.  Increase integral accuracy.
 SCF Done:  E(RM062X) =  -226.527087294     A.U. after   24 cycles
             Convg  =    0.2830D-08             -V/T =  2.0079
 Calling FoFJK, ICntrl=      2127 FMM=F ISym2X=0 I1Cent= 0 IOpClX= 0 NMat=1 NMatS=1 NMatT=0.
 ***** Axes restored to original set *****
 -------------------------------------------------------------------
 Center     Atomic                   Forces (Hartrees/Bohr)
 Number     Number              X              Y              Z
 -------------------------------------------------------------------
      1        8           0.014258307   -0.011584699    0.004065080
      2        8          -0.059275351    0.019375130    0.002399632
      3        1           0.054713364   -0.029185778   -0.007865481
      4        8          -0.019620066    0.025081500    0.005095903
      5        1           0.009923745   -0.003686152   -0.003695134
 -------------------------------------------------------------------
 Cartesian Forces:  Max     0.059275351 RMS     0.024928829

 GradGradGradGradGradGradGradGradGradGradGradGradGradGradGradGradGradGrad
 Berny optimization.
 Internal  Forces:  Max     0.045072200 RMS     0.020546818
 Search for a saddle point.
 Step number   6 out of a maximum of  100
 All quantities printed in internal units (Hartrees-Bohrs-Radians)
 Swaping is turned off.
 Update second derivatives using D2CorX and points    3    4    5    6
 The second derivative matrix:
                          R1        R2        R3        R4        A1
           R1           0.60883
           R2           0.03525   0.14187
           R3           0.01619   0.15027   0.24043
           R4          -0.00627   0.01131  -0.01132   0.69162
           A1           0.01332  -0.01712   0.02117   0.00495   0.08048
           A2           0.02557   0.07336   0.09332   0.00991  -0.00820
           A3          -0.01100  -0.01188  -0.00763   0.01221   0.03503
           D1          -0.01566  -0.01590  -0.02336  -0.00354   0.00049
           D2           0.00512   0.00371   0.00585   0.00151   0.00530
                          A2        A3        D1        D2
           A2           0.17718
           A3          -0.03849  -0.06014
           D1          -0.01118  -0.01316   0.01700
           D2           0.00190  -0.00106  -0.00067   0.01424
     Eigenvalues ---   -0.07616   0.01360   0.01651   0.02113   0.09010
     Eigenvalues ---    0.12976   0.40467   0.61909   0.69280
 Eigenvectors required to have negative eigenvalues:
                          A3        A1        D1        A2        D2
   1                    0.95378  -0.21046   0.15616   0.14310   0.02067
                          R1        R4        R2        R3
   1                    0.01766  -0.01454  -0.01030   0.00947
 RFO step:  Lambda0=4.704451537D-05 Lambda=-3.92951703D-02.
 Linear search not attempted -- option 19 set.
 Maximum step size (   0.300) exceeded in Quadratic search.
    -- Step size scaled by   0.402
 Iteration  1 RMS(Cart)=  0.00622483 RMS(Int)=  0.09084742
 Iteration  2 RMS(Cart)=  0.00040175 RMS(Int)=  0.09026764
 Iteration  3 RMS(Cart)=  0.00039876 RMS(Int)=  0.08969294
 Iteration  4 RMS(Cart)=  0.00039585 RMS(Int)=  0.08912323
 Iteration  5 RMS(Cart)=  0.00039301 RMS(Int)=  0.08855840
 Iteration  6 RMS(Cart)=  0.00039024 RMS(Int)=  0.08799835
 Iteration  7 RMS(Cart)=  0.00038754 RMS(Int)=  0.08744297
 Iteration  8 RMS(Cart)=  0.00038490 RMS(Int)=  0.08689217
 Iteration  9 RMS(Cart)=  0.00038232 RMS(Int)=  0.08634587
 Iteration 10 RMS(Cart)=  0.00037979 RMS(Int)=  0.08580396
 Iteration 11 RMS(Cart)=  0.00037733 RMS(Int)=  0.08526635
 Iteration 12 RMS(Cart)=  0.00037415 RMS(Int)=  0.08473396
 Iteration 13 RMS(Cart)=  0.00036674 RMS(Int)=  0.08421216
 Iteration 14 RMS(Cart)=  0.00035957 RMS(Int)=  0.08370060
 Iteration 15 RMS(Cart)=  0.00035264 RMS(Int)=  0.08319895
 Iteration 16 RMS(Cart)=  0.00034593 RMS(Int)=  0.08270688
 Iteration 17 RMS(Cart)=  0.00033943 RMS(Int)=  0.08222410
 Iteration 18 RMS(Cart)=  0.00033313 RMS(Int)=  0.08175030
 Iteration 19 RMS(Cart)=  0.00032703 RMS(Int)=  0.08128522
 Iteration 20 RMS(Cart)=  0.00032111 RMS(Int)=  0.08082859
 Iteration 21 RMS(Cart)=  0.00031537 RMS(Int)=  0.08038015
 Iteration 22 RMS(Cart)=  0.00030980 RMS(Int)=  0.07993966
 Iteration 23 RMS(Cart)=  0.00030440 RMS(Int)=  0.07950689
 Iteration 24 RMS(Cart)=  0.00029915 RMS(Int)=  0.07908161
 Iteration 25 RMS(Cart)=  0.00029405 RMS(Int)=  0.07866360
 Iteration 26 RMS(Cart)=  0.00028909 RMS(Int)=  0.07825267
 Iteration 27 RMS(Cart)=  0.00028428 RMS(Int)=  0.07784860
 Iteration 28 RMS(Cart)=  0.00027959 RMS(Int)=  0.07745122
 Iteration 29 RMS(Cart)=  0.00027503 RMS(Int)=  0.07706035
 Iteration 30 RMS(Cart)=  0.00027060 RMS(Int)=  0.07667579
 Iteration 31 RMS(Cart)=  0.00026628 RMS(Int)=  0.07629739
 Iteration 32 RMS(Cart)=  0.00026208 RMS(Int)=  0.07592499
 Iteration 33 RMS(Cart)=  0.00025799 RMS(Int)=  0.07555842
 Iteration 34 RMS(Cart)=  0.00025400 RMS(Int)=  0.07519755
 Iteration 35 RMS(Cart)=  0.00025011 RMS(Int)=  0.07484221
 Iteration 36 RMS(Cart)=  0.00024632 RMS(Int)=  0.07449228
 Iteration 37 RMS(Cart)=  0.00024263 RMS(Int)=  0.07414761
 Iteration 38 RMS(Cart)=  0.00023902 RMS(Int)=  0.07380808
 Iteration 39 RMS(Cart)=  0.00023551 RMS(Int)=  0.07347357
 Iteration 40 RMS(Cart)=  0.00023207 RMS(Int)=  0.07314395
 Iteration 41 RMS(Cart)=  0.00022872 RMS(Int)=  0.07281910
 Iteration 42 RMS(Cart)=  0.00022545 RMS(Int)=  0.07249892
 Iteration 43 RMS(Cart)=  0.00022225 RMS(Int)=  0.07218330
 Iteration 44 RMS(Cart)=  0.00021913 RMS(Int)=  0.07187212
 Iteration 45 RMS(Cart)=  0.00021608 RMS(Int)=  0.07156529
 Iteration 46 RMS(Cart)=  0.00021309 RMS(Int)=  0.07126272
 Iteration 47 RMS(Cart)=  0.00021018 RMS(Int)=  0.07096430
 Iteration 48 RMS(Cart)=  0.00020732 RMS(Int)=  0.07066995
 Iteration 49 RMS(Cart)=  0.00020453 RMS(Int)=  0.07037958
 Iteration 50 RMS(Cart)=  0.00020180 RMS(Int)=  0.07009309
 Iteration 51 RMS(Cart)=  0.00019912 RMS(Int)=  0.06981042
 Iteration 52 RMS(Cart)=  0.00019650 RMS(Int)=  0.06953148
 Iteration 53 RMS(Cart)=  0.00019394 RMS(Int)=  0.06925619
 Iteration 54 RMS(Cart)=  0.00019142 RMS(Int)=  0.06898449
 Iteration 55 RMS(Cart)=  0.00018896 RMS(Int)=  0.06871629
 Iteration 56 RMS(Cart)=  0.00018654 RMS(Int)=  0.06845154
 Iteration 57 RMS(Cart)=  0.00018417 RMS(Int)=  0.06819016
 Iteration 58 RMS(Cart)=  0.00018185 RMS(Int)=  0.06793209
 Iteration 59 RMS(Cart)=  0.00017956 RMS(Int)=  0.06767727
 Iteration 60 RMS(Cart)=  0.00017732 RMS(Int)=  0.06742565
 Iteration 61 RMS(Cart)=  0.00017512 RMS(Int)=  0.06717716
 Iteration 62 RMS(Cart)=  0.00017295 RMS(Int)=  0.06693176
 Iteration 63 RMS(Cart)=  0.00017082 RMS(Int)=  0.06668939
 Iteration 64 RMS(Cart)=  0.00016872 RMS(Int)=  0.06645002
 Iteration 65 RMS(Cart)=  0.00016664 RMS(Int)=  0.06621360
 Iteration 66 RMS(Cart)=  0.00016459 RMS(Int)=  0.06598010
 Iteration 67 RMS(Cart)=  0.00016257 RMS(Int)=  0.06574949
 Iteration 68 RMS(Cart)=  0.00016055 RMS(Int)=  0.06552176
 Iteration 69 RMS(Cart)=  0.00015854 RMS(Int)=  0.06529690
 Iteration 70 RMS(Cart)=  0.00015651 RMS(Int)=  0.06507494
 Iteration 71 RMS(Cart)=  0.00015444 RMS(Int)=  0.06485595
 Iteration 72 RMS(Cart)=  0.00015226 RMS(Int)=  0.06464014
 Iteration 73 RMS(Cart)=  0.00014977 RMS(Int)=  0.06442840
 Iteration 74 RMS(Cart)=  0.00014448 RMS(Int)=  1.04853970
 New curvilinear step failed, DQL= 3.15D+00 SP=-6.76D-01.
 Iteration  1 RMS(Cart)=  0.00605716 RMS(Int)=  0.08124386
 Iteration  2 RMS(Cart)=  0.00032518 RMS(Int)=  0.08077947
 Iteration  3 RMS(Cart)=  0.00031930 RMS(Int)=  0.08032352
 Iteration  4 RMS(Cart)=  0.00031359 RMS(Int)=  0.07987574
 Iteration  5 RMS(Cart)=  0.00030806 RMS(Int)=  0.07943590
 Iteration  6 RMS(Cart)=  0.00030268 RMS(Int)=  0.07900376
 Iteration  7 RMS(Cart)=  0.00029747 RMS(Int)=  0.07857909
 Iteration  8 RMS(Cart)=  0.00029241 RMS(Int)=  0.07816168
 Iteration  9 RMS(Cart)=  0.00028749 RMS(Int)=  0.07775132
 Iteration 10 RMS(Cart)=  0.00028271 RMS(Int)=  0.07734780
 Iteration 11 RMS(Cart)=  0.00027806 RMS(Int)=  0.07695095
 Iteration 12 RMS(Cart)=  0.00027354 RMS(Int)=  0.07656057
 Iteration 13 RMS(Cart)=  0.00026914 RMS(Int)=  0.07617648
 Iteration 14 RMS(Cart)=  0.00026486 RMS(Int)=  0.07579853
 Iteration 15 RMS(Cart)=  0.00026070 RMS(Int)=  0.07542654
 Iteration 16 RMS(Cart)=  0.00025664 RMS(Int)=  0.07506036
 Iteration 17 RMS(Cart)=  0.00025269 RMS(Int)=  0.07469983
 Iteration 18 RMS(Cart)=  0.00024884 RMS(Int)=  0.07434481
 Iteration 19 RMS(Cart)=  0.00024509 RMS(Int)=  0.07399517
 Iteration 20 RMS(Cart)=  0.00024144 RMS(Int)=  0.07365075
 Iteration 21 RMS(Cart)=  0.00023787 RMS(Int)=  0.07331144
 Iteration 22 RMS(Cart)=  0.00023440 RMS(Int)=  0.07297711
 Iteration 23 RMS(Cart)=  0.00023100 RMS(Int)=  0.07264763
 Iteration 24 RMS(Cart)=  0.00022769 RMS(Int)=  0.07232289
 Iteration 25 RMS(Cart)=  0.00022446 RMS(Int)=  0.07200277
 Iteration 26 RMS(Cart)=  0.00022131 RMS(Int)=  0.07168717
 Iteration 27 RMS(Cart)=  0.00021823 RMS(Int)=  0.07137597
 Iteration 28 RMS(Cart)=  0.00021522 RMS(Int)=  0.07106908
 Iteration 29 RMS(Cart)=  0.00021228 RMS(Int)=  0.07076640
 Iteration 30 RMS(Cart)=  0.00020941 RMS(Int)=  0.07046782
 Iteration 31 RMS(Cart)=  0.00020660 RMS(Int)=  0.07017326
 Iteration 32 RMS(Cart)=  0.00020385 RMS(Int)=  0.06988263
 Iteration 33 RMS(Cart)=  0.00020117 RMS(Int)=  0.06959584
 Iteration 34 RMS(Cart)=  0.00019854 RMS(Int)=  0.06931280
 Iteration 35 RMS(Cart)=  0.00019598 RMS(Int)=  0.06903344
 Iteration 36 RMS(Cart)=  0.00019346 RMS(Int)=  0.06875767
 Iteration 37 RMS(Cart)=  0.00019100 RMS(Int)=  0.06848542
 Iteration 38 RMS(Cart)=  0.00018860 RMS(Int)=  0.06821661
 Iteration 39 RMS(Cart)=  0.00018624 RMS(Int)=  0.06795117
 Iteration 40 RMS(Cart)=  0.00018393 RMS(Int)=  0.06768903
 Iteration 41 RMS(Cart)=  0.00018167 RMS(Int)=  0.06743012
 Iteration 42 RMS(Cart)=  0.00017946 RMS(Int)=  0.06717438
 Iteration 43 RMS(Cart)=  0.00017729 RMS(Int)=  0.06692173
 Iteration 44 RMS(Cart)=  0.00017516 RMS(Int)=  0.06667213
 Iteration 45 RMS(Cart)=  0.00017308 RMS(Int)=  0.06642551
 Iteration 46 RMS(Cart)=  0.00017104 RMS(Int)=  0.06618180
 Iteration 47 RMS(Cart)=  0.00016903 RMS(Int)=  0.06594096
 Iteration 48 RMS(Cart)=  0.00016707 RMS(Int)=  0.06570292
 Iteration 49 RMS(Cart)=  0.00016514 RMS(Int)=  0.06546764
 Iteration 50 RMS(Cart)=  0.00016326 RMS(Int)=  0.06523505
 Iteration 51 RMS(Cart)=  0.00016140 RMS(Int)=  0.06500511
 Iteration 52 RMS(Cart)=  0.00015958 RMS(Int)=  0.06477777
 Iteration 53 RMS(Cart)=  0.00015780 RMS(Int)=  0.06455298
 Iteration 54 RMS(Cart)=  0.00015605 RMS(Int)=  0.06433069
 Iteration 55 RMS(Cart)=  0.00015433 RMS(Int)=  0.06411086
 Iteration 56 RMS(Cart)=  0.00015264 RMS(Int)=  0.06389344
 Iteration 57 RMS(Cart)=  0.00015098 RMS(Int)=  0.06367839
 Iteration 58 RMS(Cart)=  0.00014936 RMS(Int)=  0.06346566
 Iteration 59 RMS(Cart)=  0.00014776 RMS(Int)=  0.06325522
 Iteration 60 RMS(Cart)=  0.00014619 RMS(Int)=  0.06304701
[...]
      3 vectors produced by pass  7 Test12= 3.90D-15 5.56D-09 XBig12= 5.43D-13 1.27D-07.
      1 vectors produced by pass  8 Test12= 3.90D-15 5.56D-09 XBig12= 1.49D-15 7.38D-09.
 Inverted reduced A of dimension   102 with in-core refinement.
 Isotropic polarizability for W=    0.000000       15.49 Bohr**3.
 End of Minotr Frequency-dependent properties file   721 does not exist.
 End of Minotr Frequency-dependent properties file   722 does not exist.

 **********************************************************************

            Population analysis using the SCF density.

 **********************************************************************

 Orbital symmetries:
       Occupied  (A) (A) (A) (A) (A) (A) (A) (A) (A) (A) (A) (A)
                 (A)
       Virtual   (A) (A) (A) (A) (A) (A) (A) (A) (A) (A) (A) (A)
                 (A) (A) (A) (A) (A) (A) (A) (A) (A) (A) (A) (A)
                 (A) (A) (A) (A) (A) (A) (A) (A) (A) (A) (A) (A)
                 (A) (A) (A) (A) (A) (A) (A) (A) (A) (A) (A) (A)
                 (A) (A) (A) (A) (A) (A)
 The electronic state is 1-A.
 Alpha  occ. eigenvalues --  -19.84130 -19.83806 -19.60962  -1.46160  -1.09857
 Alpha  occ. eigenvalues --   -0.94207  -0.68736  -0.64924  -0.64238  -0.62716
 Alpha  occ. eigenvalues --   -0.37614  -0.37609  -0.36764
 Alpha virt. eigenvalues --   -0.14194   0.07263   0.09605   0.10481   0.13063
 Alpha virt. eigenvalues --    0.15553   0.18236   0.20300   0.21022   0.21795
 Alpha virt. eigenvalues --    0.22696   0.25569   0.31923   0.33815   0.34892
 Alpha virt. eigenvalues --    0.43148   0.93999   1.03359   1.10128   1.11208
 Alpha virt. eigenvalues --    1.13290   1.16441   1.17246   1.21807   1.22223
 Alpha virt. eigenvalues --    1.22616   1.36650   1.39555   1.50452   1.51290
 Alpha virt. eigenvalues --    1.53115   1.54852   1.56048   1.58664   1.63179
 Alpha virt. eigenvalues --    1.85536   1.87207   1.87503   1.96158   2.03487
 Alpha virt. eigenvalues --    2.31068   2.31459   2.54285   2.60446   2.61779
 Alpha virt. eigenvalues --    2.68431   2.94289   3.06974   3.09802   3.40859
 Alpha virt. eigenvalues --    3.73426   3.80742   4.12477   5.61440
          Condensed to atoms (all electrons):
              1          2          3          4          5
     1  O    7.624721   0.344682  -0.010071   0.008282  -0.000031
     2  O    0.344682   7.648411   0.027489  -0.006191   0.001090
     3  H   -0.010071   0.027489   0.251418   0.296997  -0.017149
     4  O    0.008282  -0.006191   0.296997   8.283203   0.320458
     5  H   -0.000031   0.001090  -0.017149   0.320458   0.261135
 Mulliken atomic charges:
              1
     1  O    0.032418
     2  O   -0.015482
     3  H    0.451316
     4  O   -0.902749
     5  H    0.434497
 Sum of Mulliken atomic charges =   0.00000
 Mulliken charges with hydrogens summed into heavy atoms:
              1
     1  O    0.032418
     2  O   -0.015482
     4  O   -0.016936
 Sum of Mulliken charges with hydrogens summed into heavy atoms =   0.00000
 APT atomic charges:
              1
     1  O    0.033341
     2  O   -0.044975
     3  H    0.625584
     4  O   -1.143605
     5  H    0.529654
 Sum of APT charges=   0.00000
 APT Atomic charges with hydrogens summed into heavy atoms:
              1
     1  O    0.033341
     2  O   -0.044975
     3  H    0.000000
     4  O    0.011634
     5  H    0.000000
 Sum of APT charges=   0.00000
 Electronic spatial extent (au):  <R**2>=            275.9989
 Charge=              0.0000 electrons
 Dipole moment (field-independent basis, Debye):
    X=              0.4253    Y=             -0.0747    Z=             -0.0019  Tot=              0.4318
 Quadrupole moment (field-independent basis, Debye-Ang):
   XX=            -13.5549   YY=            -18.1977   ZZ=            -17.1036
   XY=              1.0913   XZ=              0.1411   YZ=              0.0536
 Traceless Quadrupole moment (field-independent basis, Debye-Ang):
   XX=              2.7305   YY=             -1.9123   ZZ=             -0.8182
   XY=              1.0913   XZ=              0.1411   YZ=              0.0536
 Octapole moment (field-independent basis, Debye-Ang**2):
  XXX=            -21.9357  YYY=              0.0787  ZZZ=             -0.0092  XYY=              1.5899
  XXY=             -6.1252  XXZ=             -0.3110  XZZ=              4.2377  YZZ=              0.1041
  YYZ=             -0.0044  XYZ=             -0.0283
 Hexadecapole moment (field-independent basis, Debye-Ang**3):
 XXXX=           -172.2934 YYYY=            -32.6130 ZZZZ=            -14.2035 XXXY=             17.5871
 XXXZ=              1.4956 YYYX=             -0.6660 YYYZ=              0.0692 ZZZX=              0.0865
 ZZZY=              0.0290 XXYY=            -50.4779 XXZZ=            -48.0400 YYZZ=             -7.4284
 XXYZ=              0.1790 YYXZ=              0.0499 ZZXY=             -0.1624
 N-N= 6.513927561534D+01 E-N=-6.646340480669D+02  KE= 2.247336733624D+02
  Exact polarizability:  18.565  -2.633  16.582  -0.009  -0.014  11.334
 Approx polarizability:  18.665  -4.874  20.694   0.046   0.002  11.907
 Calling FoFJK, ICntrl=    100127 FMM=F ISym2X=0 I1Cent= 0 IOpClX= 0 NMat=1 NMatS=1 NMatT=0.
 Full mass-weighted force constant matrix:
 Low frequencies ----1559.5816-1551.7562  -25.6439  -14.6838   -0.0013   -0.0006
 Low frequencies ---   -0.0006   32.1978   93.0243
 ******    2 imaginary frequencies (negative Signs) ****** 
 Diagonal vibrational polarizability:
        4.1444183       5.7840862       6.1247098
 Harmonic frequencies (cm**-1), IR intensities (KM/Mole), Raman scattering
 activities (A**4/AMU), depolarization ratios for plane and unpolarized
 incident light, reduced masses (AMU), force constants (mDyne/A),
 and normal coordinates:
                     1                      2                      3
                     A                      A                      A
 Frequencies -- -1559.5757             -1551.7561                87.1481
 Red. masses --     1.1263                 1.1294                 5.5219
 Frc consts  --     1.6141                 1.6023                 0.0247
 IR Inten    --   544.3361               507.7585                 0.1300
  Atom  AN      X      Y      Z        X      Y      Z        X      Y      Z
     1   8     0.00   0.00   0.00     0.00   0.00   0.00     0.40   0.10   0.00
     2   8     0.00   0.00   0.00     0.00   0.00   0.00    -0.05  -0.17   0.00
     3   1    -0.02   0.03   0.70    -0.18   0.66  -0.04    -0.18  -0.42  -0.03
     4   8     0.00   0.00  -0.09     0.02  -0.09   0.00    -0.31   0.06   0.00
     5   1    -0.02   0.03   0.71    -0.19   0.70  -0.04    -0.44   0.54   0.02
                     4                      5                      6
                     A                      A                      A
 Frequencies --   184.9096               257.8001               362.8791
 Red. masses --     5.8810                 1.0344                 1.2039
 Frc consts  --     0.1185                 0.0405                 0.0934
 IR Inten    --     2.2181                 0.3078                 0.6673
  Atom  AN      X      Y      Z        X      Y      Z        X      Y      Z
     1   8    -0.04  -0.09   0.00     0.00   0.00   0.00    -0.06  -0.01   0.00
     2   8     0.41   0.19   0.00     0.00   0.00   0.03     0.06   0.06   0.00
     3   1    -0.45   0.37   0.02     0.02  -0.01  -0.74     0.19  -0.74   0.02
     4   8    -0.33  -0.09   0.00     0.00   0.00  -0.03     0.00  -0.04   0.00
     5   1    -0.20  -0.54  -0.01    -0.02   0.01   0.67    -0.17   0.61  -0.02
                     7                      8                      9
                     A                      A                      A
 Frequencies --  1770.9695              3971.4271              4410.8127
 Red. masses --    15.9820                 1.0122                 1.1213
 Frc consts  --    29.5327                 9.4063                12.8537
 IR Inten    --     0.2501               239.3050              1068.5288
  Atom  AN      X      Y      Z        X      Y      Z        X      Y      Z
     1   8    -0.37   0.60   0.00     0.00   0.00   0.00     0.00   0.00   0.00
     2   8     0.37  -0.60   0.00     0.00   0.00   0.00     0.00   0.00   0.00
     3   1     0.02  -0.02   0.00     0.80   0.21   0.02    -0.52  -0.14  -0.01
     4   8     0.00   0.00   0.00    -0.02   0.00   0.00     0.08   0.02   0.00
     5   1    -0.01   0.01   0.00    -0.54  -0.15  -0.01    -0.81  -0.22  -0.02

 -------------------
 - Thermochemistry -
 -------------------
 Temperature   298.150 Kelvin.  Pressure   1.00000 Atm.
 Atom     1 has atomic number  8 and mass  15.99491
 Atom     2 has atomic number  8 and mass  15.99491
 Atom     3 has atomic number  1 and mass   1.00783
 Atom     4 has atomic number  8 and mass  15.99491
 Atom     5 has atomic number  1 and mass   1.00783
 Molecular mass:    50.00039 amu.
 Principal axes and moments of inertia in atomic units:
                           1         2         3
     Eigenvalues --    30.90776 415.07886 445.98123
           X            0.99998   0.00650   0.00025
           Y           -0.00650   0.99998   0.00103
           Z           -0.00024  -0.00104   1.00000
 This molecule is an asymmetric top.
 Rotational symmetry number  1.
 Rotational temperatures (Kelvin)      2.80233     0.20867     0.19421
 Rotational constants (GHZ):          58.39120     4.34795     4.04668
    2 imaginary frequencies ignored.
 Zero-point vibrational energy      66069.4 (Joules/Mol)
                                   15.79097 (Kcal/Mol)
 Warning -- explicit consideration of   4 degrees of freedom as
           vibrations may cause significant error
 Vibrational temperatures:    125.39   266.04   370.92   522.10  2548.03
          (Kelvin)           5713.99  6346.17
 
 Zero-point correction=                           0.025165 (Hartree/Particle)
 Thermal correction to Energy=                    0.030166
 Thermal correction to Enthalpy=                  0.031110
 Thermal correction to Gibbs Free Energy=        -0.002010
 Sum of electronic and zero-point Energies=           -226.533863
 Sum of electronic and thermal Energies=              -226.528862
 Sum of electronic and thermal Enthalpies=            -226.527917
 Sum of electronic and thermal Free Energies=         -226.561037
 
                     E (Thermal)             CV                S
                      KCal/Mol        Cal/Mol-Kelvin    Cal/Mol-Kelvin
 Total                   18.929             13.107             69.706
 Electronic               0.000              0.000              0.000
 Translational            0.889              2.981             37.652
 Rotational               0.889              2.981             23.263
 Vibrational             17.152              7.145              8.791
 Vibration     1          0.601              1.958              3.723
 Vibration     2          0.631              1.860              2.278
 Vibration     3          0.667              1.750              1.677
 Vibration     4          0.737              1.549              1.110
                       Q            Log10(Q)             Ln(Q)
 Total Bot       0.840315D+01          0.924442          2.128606
 Total V=0       0.315712D+13         12.499292         28.780682
 Vib (Bot)       0.223318D-10        -10.651077        -24.525012
 Vib (Bot)    1  0.236042D+01          0.372988          0.858838
 Vib (Bot)    2  0.108435D+01          0.035169          0.080979
 Vib (Bot)    3  0.754232D+00         -0.122495         -0.282055
 Vib (Bot)    4  0.504130D+00         -0.297457         -0.684921
 Vib (V=0)       0.839020D+01          0.923772          2.127065
 Vib (V=0)    1  0.291279D+01          0.464309          1.069112
 Vib (V=0)    2  0.169407D+01          0.228932          0.527136
 Vib (V=0)    3  0.140491D+01          0.147649          0.339975
 Vib (V=0)    4  0.121003D+01          0.082797          0.190648
 Electronic      0.100000D+01          0.000000          0.000000
 Translational   0.138968D+08          7.142915         16.447170
 Rotational      0.270772D+05          4.432604         10.206447
 ***** Axes restored to original set *****
 -------------------------------------------------------------------
 Center     Atomic                   Forces (Hartrees/Bohr)
 Number     Number              X              Y              Z
 -------------------------------------------------------------------
      1        8           0.000097904   -0.000244614    0.000343443
      2        8          -0.000166002    0.000368269   -0.000457593
      3        1           0.000188101   -0.000242518    0.000319734
      4        8          -0.000150847    0.000086997   -0.000194076
      5        1           0.000030844    0.000031865   -0.000011509
 -------------------------------------------------------------------
 Cartesian Forces:  Max     0.000457593 RMS     0.000234728

 GradGradGradGradGradGradGradGradGradGradGradGradGradGradGradGradGradGrad
 Berny optimization.
 Internal  Forces:  Max     0.000433072 RMS     0.000208305
 Search for a saddle point.
 Step number   1 out of a maximum of    2
 All quantities printed in internal units (Hartrees-Bohrs-Radians)
 Swaping is turned off.
 Second derivative matrix not updated -- analytic derivatives used.
 The second derivative matrix:
                          R1        R2        R3        R4        A1
           R1           0.95123
           R2           0.00710   0.00945
           R3           0.00152   0.01291   0.62088
           R4          -0.00006  -0.00024  -0.02336   0.65645
           A1           0.01158  -0.00089  -0.00166  -0.00036   0.03112
           A2          -0.00163   0.00010   0.00010  -0.00024  -0.00130
           A3          -0.00022   0.00056  -0.00027   0.00001  -0.00010
           D1           0.00008   0.00001  -0.00002   0.00001   0.00003
           D2           0.00273  -0.00059  -0.01454  -0.00730  -0.00077
                          A2        A3        D1        D2
           A2           0.00845
           A3          -0.00348   1.65846
           D1           0.00030  -0.00042   0.00008
           D2          -0.00005  -0.00591   0.00000   0.00050
     Eigenvalues ---    0.00010   0.02200   0.03494   0.41205   0.66758
     Eigenvalues ---    0.91339   1.64034   2.82236   3.10456
 Eigenvectors required to have negative eigenvalues:
                          D1        A2        A1        R2        R3
   1                    0.99981   0.01656   0.00792  -0.00620   0.00055
                          A3        R4        D2        R1
   1                    0.00027   0.00026  -0.00017   0.00010
 Eigenvalue     1 is   1.02D-04 should be less than     0.000000 Eigenvector:
                          D1        A2        A1        R2        R3
   1                    0.99981   0.01656   0.00792  -0.00620   0.00055
                          A3        R4        D2        R1
   1                    0.00027   0.00026  -0.00017   0.00010
 Angle between quadratic step and forces=  85.18 degrees.
 Linear search not attempted -- option 19 set.
 SLEqS1 Cycle:    23 Max:0.849104E-02 RMS: 1611.20     Conv:0.405678E-02
 Iteration  1 RMS(Cart)=  0.00667557 RMS(Int)=  0.01068055
 Iteration  2 RMS(Cart)=  0.00227974 RMS(Int)=  0.00554549
 Iteration  3 RMS(Cart)=  0.00107468 RMS(Int)=  0.00117516
 SLEqS1 Cycle:    15 Max:0.192951E-02 RMS: 185.734     Conv:0.498904E-03
 Iteration  4 RMS(Cart)=  0.00032667 RMS(Int)=  0.00098562
 SLEqS1 Cycle:    47 Max:0.145765E-02 RMS: 21.9985     Conv:0.590812E-04
 Iteration  5 RMS(Cart)=  0.00044002 RMS(Int)=  0.00073929
 SLEqS1 Cycle:    15 Max:0.121702E-02 RMS: 15.7962     Conv:0.424184E-04
 Iteration  6 RMS(Cart)=  0.00000000 RMS(Int)=  0.00073928
 Variable       Old X    -DE/DX   Delta X   Delta X   Delta X     New X
                                 (Linear)    (Quad)   (Total)
    R1        2.25997  -0.00043   0.00000  -0.00062  -0.00082   2.25915
    R2        3.64178   0.00008   0.00000   0.00620   0.00633   3.64810
    R3        1.78753  -0.00010   0.00000   0.00000   0.00003   1.78756
    R4        1.77317   0.00002   0.00000   0.00019   0.00003   1.77319
    A1        1.91461   0.00007   0.00000   0.00825   0.00859   1.92320
    A2        3.07096  -0.00042   0.00000  -0.01577  -0.01360   3.05736
    A3        3.14159  -0.00008   0.00000  -0.00012   0.00000   3.14159
    D1       -0.45893   0.00002   0.00000  -0.11070  -0.11073  -0.56966
    D2        2.20092   0.00000   0.00000  -0.00037  -0.00037   2.20055
         Item               Value     Threshold  Converged?
 Maximum Force            0.000433     0.000450     YES
 RMS     Force            0.000208     0.000300     YES
 Maximum Displacement     0.013873     0.001800     NO 
 RMS     Displacement     0.008976     0.001200     NO 
 Predicted change in Energy=-1.799688D-06
 GradGradGradGradGradGradGradGradGradGradGradGradGradGradGradGradGradGrad

 1|1|UNPC-DESKTOP-319GPER|Freq|RM062X|6-31+G(d,p)|H2O3|SAGAD|09-Feb-202
 1|0||#N Geom=AllCheck Guess=TCheck SCRF=Check GenChk RM062X/6-31+G(d,p
 ) Freq||ts OOH vs OH||0,1|O,-2.1668609284,1.5877364327,-0.4268214116|O
 ,-1.808656029,0.9382177487,0.5112899102|H,-0.0323547453,0.26197711,0.1
 929427519|O,0.8265982969,-0.0663801969,-0.0287500429|H,1.6786485758,-0
 .3920986744,-0.2486612075||Version=IA32W-G09RevA.02|State=1-A|HF=-226.
 5590275|RMSD=8.729e-011|RMSF=2.347e-004|ZeroPoint=0.0251645|Thermal=0.
 0301658|Dipole=-0.1449328,0.0839294,-0.0285442|DipoleDeriv=0.0139169,-
 0.0046922,0.0216968,0.0195161,0.0302913,-0.0241007,-0.0256948,-0.00195
 82,0.0558148,-0.1095916,0.072548,-0.0295932,0.0314367,-0.017121,0.0216
 483,0.0457137,-0.013573,-0.0082112,0.8757717,-0.1965339,0.0083216,-0.1
 475772,0.5478147,0.0116761,-0.0885584,0.0581133,0.4531669,-1.3376554,0
 .1485515,0.0047144,0.1130477,-1.0808935,-0.0126848,0.0819618,-0.050334
 2,-1.0122663,0.5575584,-0.0198733,-0.0051396,-0.0164233,0.5199085,0.00
 34611,-0.0134223,0.0077522,0.5114959|Polar=16.46232,-3.1347393,14.3000
 617,1.3005084,-2.858349,15.7184793|PG=C01 [X(H2O3)]|NImag=2||0.0934940
 7,-0.15811608,0.28183309,0.22349579,-0.40374035,0.58322389,-0.09408411
 ,0.15856421,-0.22435348,0.10296280,0.15652247,-0.28145027,0.40327743,-
 0.15962359,0.28352748,-0.22032151,0.40145055,-0.58220680,0.21965296,-0
 .40112881,0.58416364,0.00102081,-0.00179164,0.00342544,0.00162836,0.00
 023177,-0.00442988,0.49091216,0.00216448,-0.00007248,-0.00003895,-0.00
 380838,-0.00148007,0.00132219,-0.20312467,0.03942815,-0.00446437,0.003
 68066,-0.00227099,0.00299063,-0.00224255,-0.00099447,-0.13705752,0.051
 27832,-0.00127042,-0.00039208,0.00123474,-0.00226184,-0.01076982,0.002
 75484,0.00456210,-0.50524802,0.22544958,0.15260273,1.06243814,-0.00022
 321,-0.00035522,0.00052872,0.00432580,-0.00137631,-0.00151242,0.225288
 73,-0.00336939,-0.05824854,-0.46952126,0.01450082,0.00071309,-0.000958
 52,0.00106977,0.00229876,-0.00026814,-0.00175537,0.15187021,-0.0580083
 5,0.04352465,-0.31734817,0.12138504,-0.08342553,-0.00003870,0.00010877
 ,-0.00030591,0.00026277,0.00011452,0.00053634,0.01168669,-0.02068100,-
 0.01407147,-0.54602822,0.24012994,0.16246611,0.53411747,-0.00034765,0.
 00004488,-0.00002685,0.00054196,0.00077917,-0.00013151,-0.02060419,-0.
 03450622,0.00553212,0.24008211,-0.00939991,-0.06215003,-0.21967224,0.0
 4308207,0.00057701,-0.00043233,0.00018413,-0.00058887,0.00036207,0.000
 79300,-0.01380823,0.00544678,-0.03898877,0.16244517,-0.06215279,0.0405
 8647,-0.14862508,0.05677627,-0.00257484||-0.00009790,0.00024461,-0.000
 34344,0.00016600,-0.00036827,0.00045759,-0.00018810,0.00024252,-0.0003
 1973,0.00015085,-0.00008700,0.00019408,-0.00003084,-0.00003187,0.00001
 151|||@


 A leading authority is anyone who has guessed right more than once.
 -- Frank A. Clark
 Job cpu time:  0 days  0 hours  0 minutes 11.0 seconds.
 File lengths (MBytes):  RWF=      6 Int=      0 D2E=      0 Chk=      1 Scr=      1
 Normal termination of Gaussian 09 at Tue Feb 09 15:43:13 2021.
