 Entering Link 1 = C:\G09W\l1.exe PID=     16112.
  
 Copyright (c) 1988,1990,1992,1993,1995,1998,2003,2009, Gaussian, Inc.
                  All Rights Reserved.
  
 This is part of the Gaussian(R) 09 program.  It is based on
 the Gaussian(R) 03 system (copyright 2003, Gaussian, Inc.),
 the Gaussian(R) 98 system (copyright 1998, Gaussian, Inc.),
 the Gaussian(R) 94 system (copyright 1995, Gaussian, Inc.),
 the Gaussian 92(TM) system (copyright 1992, Gaussian, Inc.),
 the Gaussian 90(TM) system (copyright 1990, Gaussian, Inc.),
 the Gaussian 88(TM) system (copyright 1988, Gaussian, Inc.),
 the Gaussian 86(TM) system (copyright 1986, Carnegie Mellon
 University), and the Gaussian 82(TM) system (copyright 1983,
 Carnegie Mellon University). Gaussian is a federally registered
 trademark of Gaussian, Inc.
  
 This software contains proprietary and confidential information,
 including trade secrets, belonging to Gaussian, Inc.
  
 This software is provided under written license and may be
 used, copied, transmitted, or stored only in accord with that
 written license.
  
 The following legend is applicable only to US Government
 contracts under FAR:
  
                    RESTRICTED RIGHTS LEGEND
  
 Use, reproduction and disclosure by the US Government is
 subject to restrictions as set forth in subparagraphs (a)
 and (c) of the Commercial Computer Software - Restricted
 Rights clause in FAR 52.227-19.
  
 Gaussian, Inc.
 340 Quinnipiac St., Bldg. 40, Wallingford CT 06492
  
  
 ---------------------------------------------------------------
 Warning -- This program may not be used in any manner that
 competes with the business of Gaussian, Inc. or will provide
 assistance to any competitor of Gaussian, Inc.  The licensee
 of this program is prohibited from giving any competitor of
 Gaussian, Inc. access to this program.  By using this program,
 the user acknowledges that Gaussian, Inc. is engaged in the
 business of creating and licensing software in the field of
 computational chemistry and represents and warrants to the
 licensee that it is not a competitor of Gaussian, Inc. and that
 it will not use this program in any manner prohibited above.
 ---------------------------------------------------------------
  

 Cite this work as:
 Gaussian 09, Revision A.02,
 M. J. Frisch, G. W. Trucks, H. B. Schlegel, G. E. Scuseria, 
 M. A. Robb, J. R. Cheeseman, G. Scalmani, V. Barone, B. Mennucci, 
 G. A. Petersson, H. Nakatsuji, M. Caricato, X. Li, H. P. Hratchian, 
 A. F. Izmaylov, J. Bloino, G. Zheng, J. L. Sonnenberg, M. Hada, 
 M. Ehara, K. Toyota, R. Fukuda, J. Hasegawa, M. Ishida, T. Nakajima, 
 Y. Honda, O. Kitao, H. Nakai, T. Vreven, J. A. Montgomery, Jr., 
 J. E. Peralta, F. Ogliaro, M. Bearpark, J. J. Heyd, E. Brothers, 
 K. N. Kudin, V. N. Staroverov, R. Kobayashi, J. Normand, 
 K. Raghavachari, A. Rendell, J. C. Burant, S. S. Iyengar, J. Tomasi, 
 M. Cossi, N. Rega, J. M. Millam, M. Klene, J. E. Knox, J. B. Cross, 
 V. Bakken, C. Adamo, J. Jaramillo, R. Gomperts, R. E. Stratmann, 
 O. Yazyev, A. J. Austin, R. Cammi, C. Pomelli, J. W. Ochterski, 
 R. L. Martin, K. Morokuma, V. G. Zakrzewski, G. A. Voth, 
 P. Salvador, J. J. Dannenberg, S. Dapprich, A. D. Daniels, 
 O. Farkas, J. B. Foresman, J. V. Ortiz, J. Cioslowski, 
 and D. J. Fox, Gaussian, Inc., Wallingford CT, 2009.
 
 ******************************************
 Gaussian 09:  IA32W-G09RevA.02 11-Jun-2009
                08-Feb-2021 
 ******************************************
 %chk=D:\Documents\rayGit\FQ\quimicaComputacional\proyecto\decompositionHydrogenP
 eroxide\descompositionByRadicals\gasPhase\step4\ts\tsm062x.chk
 %mem=1500MB
 %nprocshared=4
 Will use up to    4 processors via shared memory.
 ----------------------------------------------------------------------
 # opt=(calcfc,ts,noeigen,maxcycles=100) freq=noraman 6-31+g(d,p) m062x
 ----------------------------------------------------------------------
 1/5=1,6=100,10=4,11=1,14=-1,18=20,26=3,38=1/1,3;
 2/9=110,12=2,17=6,18=5,40=1/2;
 3/5=1,6=6,7=111,11=2,16=1,25=1,30=1,71=2,74=-55/1,2,3;
 4//1;
 5/5=2,38=5/2;
 8/6=4,10=90,11=11/1;
 11/6=1,8=1,9=11,15=111,16=1/1,2,10;
 10/6=1,7=6,13=1/2;
 6/7=2,8=2,9=2,10=2,28=1/1;
 7/10=1,18=20,25=1/1,2,3,16;
 1/5=1,6=100,10=4,11=1,14=-1,18=20/3(2);
 2/9=110/2;
 99//99;
 2/9=110/2;
 3/5=1,6=6,7=111,11=2,16=1,25=1,30=1,71=1,74=-55/1,2,3;
 4/5=5,16=3/1;
 5/5=2,38=5/2;
 7//1,2,3,16;
 1/5=1,6=100,11=1,14=-1,18=20/3(-5);
 2/9=110/2;
 6/7=2,8=2,9=2,10=2,19=2,28=1/1;
 99/9=1/99;
 ---
 ts2
 ---
 Symbolic Z-matrix:
 Charge =  0 Multiplicity = 1
 O                    -1.20732   0.34506   0. 
 H                    -1.64127   1.5705    0. 
 O                     0.11268   0.34506   0. 
 O                    -2.07522   2.79593   0. 
 H                    -3.03522   2.79545   0. 
 

 GradGradGradGradGradGradGradGradGradGradGradGradGradGradGradGradGradGrad
 Berny optimization.
 Initialization pass.
                           ----------------------------
                           !    Initial Parameters    !
                           ! (Angstroms and Degrees)  !
 --------------------------                            --------------------------
 ! Name  Definition              Value          Derivative Info.                !
 --------------------------------------------------------------------------------
 ! R1    R(1,2)                  1.3            calculate D2E/DX2 analytically  !
 ! R2    R(1,3)                  1.32           calculate D2E/DX2 analytically  !
 ! R3    R(2,4)                  1.3            calculate D2E/DX2 analytically  !
 ! R4    R(4,5)                  0.96           calculate D2E/DX2 analytically  !
 ! A1    A(2,1,3)              109.5            calculate D2E/DX2 analytically  !
 ! A2    A(2,4,5)              109.4712         calculate D2E/DX2 analytically  !
 ! A3    L(1,2,4,3,-1)         180.0            calculate D2E/DX2 analytically  !
 ! A4    L(1,2,4,3,-2)         180.0            calculate D2E/DX2 analytically  !
 ! D1    D(3,1,4,5)            180.0            calculate D2E/DX2 analytically  !
 --------------------------------------------------------------------------------
 Trust Radius=3.00D-01 FncErr=1.00D-07 GrdErr=1.00D-06
 Number of steps in this run= 100 maximum allowed number of steps= 100.
 Search for a saddle point of order  1.
 GradGradGradGradGradGradGradGradGradGradGradGradGradGradGradGradGradGrad

                          Input orientation:                          
 ---------------------------------------------------------------------
 Center     Atomic      Atomic             Coordinates (Angstroms)
 Number     Number       Type             X           Y           Z
 ---------------------------------------------------------------------
      1          8           0       -1.207323    0.345064    0.000000
      2          1           0       -1.641272    1.570498    0.000000
      3          8           0        0.112677    0.345064    0.000000
      4          8           0       -2.075221    2.795932    0.000000
      5          1           0       -3.035221    2.795450    0.000000
 ---------------------------------------------------------------------
                    Distance matrix (angstroms):
                    1          2          3          4          5
     1  O    0.000000
     2  H    1.300000   0.000000
     3  O    1.320000   2.139632   0.000000
     4  O    2.600000   1.300000   3.285369   0.000000
     5  H    3.057057   1.855694   3.989192   0.960000   0.000000
 Stoichiometry    H2O3
 Framework group  CS[SG(H2O3)]
 Deg. of freedom     7
 Full point group                 CS      NOp   2
 Largest Abelian subgroup         CS      NOp   2
 Largest concise Abelian subgroup C1      NOp   1
                         Standard orientation:                         
 ---------------------------------------------------------------------
 Center     Atomic      Atomic             Coordinates (Angstroms)
 Number     Number       Type             X           Y           Z
 ---------------------------------------------------------------------
      1          8           0       -0.770185   -0.459820    0.000000
      2          1           0        0.000000    0.587469    0.000000
      3          8           0       -0.028827   -1.551969    0.000000
      4          8           0        0.770185    1.634758    0.000000
      5          1           0        0.230617    2.428777    0.000000
 ---------------------------------------------------------------------
 Rotational constants (GHZ):     50.6785222      5.0620793      4.6023669
 Standard basis: 6-31+G(d,p) (6D, 7F)
 There are    50 symmetry adapted basis functions of A'  symmetry.
 There are    17 symmetry adapted basis functions of A"  symmetry.
 Integral buffers will be    262144 words long.
 Raffenetti 2 integral format.
 Two-electron integral symmetry is turned on.
    67 basis functions,   110 primitive gaussians,    67 cartesian basis functions
    13 alpha electrons       13 beta electrons
       nuclear repulsion energy        64.6240324450 Hartrees.
 NAtoms=    5 NActive=    5 NUniq=    5 SFac= 7.50D-01 NAtFMM=   80 NAOKFM=F Big=F
 One-electron integrals computed using PRISM.
 NBasis=    67 RedAO= T  NBF=    50    17
 NBsUse=    67 1.00D-06 NBFU=    50    17
 Harris functional with IExCor= 1009 diagonalized for initial guess.
 ExpMin= 8.45D-02 ExpMax= 5.48D+03 ExpMxC= 8.25D+02 IAcc=2 IRadAn=         0 AccDes= 0.00D+00
 HarFok:  IExCor= 1009 AccDes= 0.00D+00 IRadAn=         0 IDoV= 1
 ScaDFX=  1.000000  1.000000  1.000000  1.000000
 FoFCou: FMM=F IPFlag=           0 FMFlag=      100000 FMFlg1=           0
         NFxFlg=           0 DoJE=T BraDBF=F KetDBF=T FulRan=T
         Omega=  0.000000  0.000000  1.000000  0.000000  0.000000 ICntrl=     500 IOpCl=  0
         NMat0=    1 NMatS0=    1 NMatT0=    0 NMatD0=    1 NMtDS0=    0 NMtDT0=    0
         I1Cent=           4 NGrid=           0.
 Petite list used in FoFCou.
 Initial guess orbital symmetries:
       Occupied  (A') (A') (A') (A') (A') (A') (A') (A') (A') (A")
                 (A') (A") (A')
       Virtual   (A") (A') (A') (A') (A") (A') (A') (A') (A") (A')
                 (A') (A') (A") (A') (A') (A') (A') (A') (A') (A")
                 (A") (A') (A') (A') (A') (A") (A') (A') (A') (A")
                 (A') (A") (A") (A') (A') (A') (A") (A') (A") (A')
                 (A') (A') (A") (A") (A') (A') (A") (A') (A') (A')
                 (A') (A') (A') (A')
 The electronic state of the initial guess is 1-A'.
 Requested convergence on RMS density matrix=1.00D-08 within 128 cycles.
 Requested convergence on MAX density matrix=1.00D-06.
 Requested convergence on             energy=1.00D-06.
 No special actions if energy rises.
 Keep R1 ints in memory in canonical form, NReq=3551244.
 Integral accuracy reduced to 1.0D-05 until final iterations.
 Initial convergence to 1.0D-05 achieved.  Increase integral accuracy.
 SCF Done:  E(RM062X) =  -226.519807870     A.U. after   23 cycles
             Convg  =    0.2629D-08             -V/T =  2.0104
 Range of M.O.s used for correlation:     1    67
 NBasis=    67 NAE=    13 NBE=    13 NFC=     0 NFV=     0
 NROrb=     67 NOA=    13 NOB=    13 NVA=    54 NVB=    54

 **** Warning!!: The largest alpha MO coefficient is  0.12634398D+02

 Symmetrizing basis deriv contribution to polar:
 IMax=3 JMax=2 DiffMx= 0.00D+00
 G2DrvN: will do     6 centers at a time, making    1 passes doing MaxLOS=2.
 Calling FoFCou, ICntrl=  3107 FMM=F I1Cent=   0 AccDes= 0.00D+00.
 FoFDir/FoFCou used for L=0 through L=2.
 End of G2Drv Frequency-dependent properties file   721 does not exist.
 End of G2Drv Frequency-dependent properties file   722 does not exist.
          IDoAtm=11111
          Differentiating once with respect to nuclear coordinates.
          Keep R1 ints in memory in canonical form, NReq=3416970.
          There are    18 degrees of freedom in the 1st order CPHF.  IDoFFX=5.
     12 vectors produced by pass  0 Test12= 3.90D-11 5.56D-07 XBig12= 1.52D-01 3.01D-01.
 AX will form    12 AO Fock derivatives at one time.
     12 vectors produced by pass  1 Test12= 3.90D-11 5.56D-07 XBig12= 1.87D-02 6.81D-02.
     12 vectors produced by pass  2 Test12= 3.90D-11 5.56D-07 XBig12= 1.16D-03 9.62D-03.
     12 vectors produced by pass  3 Test12= 3.90D-11 5.56D-07 XBig12= 2.40D-05 1.25D-03.
     12 vectors produced by pass  4 Test12= 3.90D-11 5.56D-07 XBig12= 2.90D-07 1.18D-04.
      7 vectors produced by pass  5 Test12= 3.90D-11 5.56D-07 XBig12= 1.91D-09 7.62D-06.
      1 vectors produced by pass  6 Test12= 3.90D-11 5.56D-07 XBig12= 9.01D-12 9.50D-07.
 Inverted reduced A of dimension    68 with in-core refinement.
 End of Minotr Frequency-dependent properties file   721 does not exist.
 End of Minotr Frequency-dependent properties file   722 does not exist.

 **********************************************************************

            Population analysis using the SCF density.

 **********************************************************************

 Orbital symmetries:
       Occupied  (A') (A') (A') (A') (A') (A') (A') (A') (A") (A')
                 (A') (A') (A")
       Virtual   (A") (A') (A') (A') (A") (A') (A') (A') (A") (A')
                 (A") (A') (A') (A') (A') (A') (A') (A') (A") (A')
                 (A') (A") (A') (A') (A") (A') (A') (A') (A") (A')
                 (A') (A") (A') (A") (A') (A") (A') (A') (A") (A')
                 (A') (A") (A') (A") (A') (A') (A") (A') (A') (A')
                 (A') (A') (A') (A')
 The electronic state is 1-A'.
 Alpha  occ. eigenvalues --  -19.89355 -19.88649 -19.61905  -1.41010  -1.05833
 Alpha  occ. eigenvalues --   -1.02299  -0.69834  -0.65788  -0.61834  -0.51884
 Alpha  occ. eigenvalues --   -0.45966  -0.37771  -0.34342
 Alpha virt. eigenvalues --   -0.22173   0.04360   0.07189   0.11903   0.12562
 Alpha virt. eigenvalues --    0.15310   0.17174   0.17746   0.19636   0.21700
 Alpha virt. eigenvalues --    0.23206   0.24870   0.26925   0.28111   0.32550
 Alpha virt. eigenvalues --    0.35743   0.97893   1.02943   1.06275   1.06626
 Alpha virt. eigenvalues --    1.09706   1.13447   1.13802   1.21204   1.23295
 Alpha virt. eigenvalues --    1.23558   1.27650   1.31727   1.43259   1.44826
 Alpha virt. eigenvalues --    1.46785   1.50509   1.59497   1.64087   1.64499
 Alpha virt. eigenvalues --    1.75206   1.75290   1.84080   1.87818   2.15271
 Alpha virt. eigenvalues --    2.20984   2.42961   2.46821   2.48984   2.53154
 Alpha virt. eigenvalues --    2.60435   2.71646   2.89199   2.98870   3.35533
 Alpha virt. eigenvalues --    3.58365   3.75707   4.10442   4.13659
          Condensed to atoms (all electrons):
              1          2          3          4          5
     1  O    7.826769  -0.035411   0.271743  -0.048840   0.002878
     2  H   -0.035411   0.352493   0.018391   0.230600  -0.018775
     3  O    0.271743   0.018391   7.621210   0.020079   0.000951
     4  O   -0.048840   0.230600   0.020079   8.389559   0.267379
     5  H    0.002878  -0.018775   0.000951   0.267379   0.391980
 Mulliken atomic charges:
              1
     1  O   -0.017139
     2  H    0.452702
     3  O    0.067625
     4  O   -0.858776
     5  H    0.355587
 Sum of Mulliken atomic charges =   0.00000
 Mulliken charges with hydrogens summed into heavy atoms:
              1
     1  O   -0.017139
     3  O    0.067625
     4  O   -0.050487
 Sum of Mulliken charges with hydrogens summed into heavy atoms =   0.00000
 APT atomic charges:
              1
     1  O   -0.078881
     2  H    0.360731
     3  O    0.154969
     4  O   -1.104497
     5  H    0.667678
 Sum of APT charges=   0.00000
 APT Atomic charges with hydrogens summed into heavy atoms:
              1
     1  O   -0.078881
     2  H    0.000000
     3  O    0.154969
     4  O   -0.076087
     5  H    0.000000
 Sum of APT charges=   0.00000
 Electronic spatial extent (au):  <R**2>=            247.9524
 Charge=              0.0000 electrons
 Dipole moment (field-independent basis, Debye):
    X=             -2.6833    Y=             -1.7144    Z=              0.0000  Tot=              3.1842
 Quadrupole moment (field-independent basis, Debye-Ang):
   XX=            -20.7531   YY=            -15.9205   ZZ=            -17.5980
   XY=             -4.4219   XZ=              0.0000   YZ=              0.0000
 Traceless Quadrupole moment (field-independent basis, Debye-Ang):
   XX=             -2.6625   YY=              2.1700   ZZ=              0.4925
   XY=             -4.4219   XZ=              0.0000   YZ=              0.0000
 Octapole moment (field-independent basis, Debye-Ang**2):
  XXX=             -5.0272  YYY=              4.5282  ZZZ=              0.0000  XYY=             -6.0321
  XXY=             -5.4524  XXZ=              0.0000  XZZ=             -1.8665  YZZ=             -4.0150
  YYZ=              0.0000  XYZ=              0.0000
 Hexadecapole moment (field-independent basis, Debye-Ang**3):
 XXXX=            -60.5347 YYYY=           -170.8106 ZZZZ=            -15.1558 XXXY=            -36.5247
 XXXZ=              0.0000 YYYX=            -41.0771 YYYZ=              0.0000 ZZZX=              0.0000
 ZZZY=              0.0000 XXYY=            -52.3652 XXZZ=            -12.2423 YYZZ=            -38.7997
 XXYZ=              0.0000 YYXZ=              0.0000 ZZXY=            -11.4079
 N-N= 6.462403244496D+01 E-N=-6.629531192861D+02  KE= 2.241968892263D+02
 Symmetry A'   KE= 2.154522470371D+02
 Symmetry A"   KE= 8.744642189107D+00
  Exact polarizability:   0.000   0.000   0.000   0.000   0.000   0.000
 Approx polarizability:  28.171  10.996  75.521   0.000   0.000  13.863
 Calling FoFJK, ICntrl=    100147 FMM=F ISym2X=1 I1Cent= 0 IOpClX= 0 NMat=1 NMatS=1 NMatT=0.
 ***** Axes restored to original set *****
 -------------------------------------------------------------------
 Center     Atomic                   Forces (Hartrees/Bohr)
 Number     Number              X              Y              Z
 -------------------------------------------------------------------
      1        8           0.141152819   -0.012692720    0.000000000
      2        1          -0.038320190    0.095736323    0.000000000
      3        8          -0.136480872    0.000887585    0.000000000
      4        8           0.037921386   -0.080696860    0.000000000
      5        1          -0.004273143   -0.003234329    0.000000000
 -------------------------------------------------------------------
 Cartesian Forces:  Max     0.141152819 RMS     0.061819984

 GradGradGradGradGradGradGradGradGradGradGradGradGradGradGradGradGradGrad
 Berny optimization.
 Internal  Forces:  Max     0.136487873 RMS     0.054792499
 Search for a saddle point.
 Step number   1 out of a maximum of  100
 All quantities printed in internal units (Hartrees-Bohrs-Radians)
 Swaping is turned off.
 Second derivative matrix not updated -- analytic derivatives used.
 The second derivative matrix:
                          R1        R2        R3        R4        A1
           R1           0.02706
           R2           0.04273   0.33201
           R3           0.07906  -0.01383   0.03417
           R4           0.00285  -0.00475  -0.00500   0.56730
           A1          -0.00059   0.02006   0.00509  -0.00073   0.07652
           A2           0.02274  -0.00665   0.00883   0.01477  -0.00507
           A3           0.00179  -0.00927  -0.00106  -0.00057  -0.01467
           A4           0.00000   0.00000   0.00000   0.00000   0.00000
           D1           0.00000   0.00000   0.00000   0.00000   0.00000
                          A2        A3        A4        D1
           A2           0.08845
           A3           0.00704   0.02293
           A4           0.00000   0.00000  -0.07271
           D1           0.00000   0.00000  -0.03057  -0.01140
     Eigenvalues ---   -0.08534  -0.05403   0.00124   0.01868   0.06979
     Eigenvalues ---    0.08326   0.12312   0.33970   0.56790
 Eigenvectors required to have negative eigenvalues:
                          A4        D1        R1        A3        R3
   1                    0.92416   0.38201   0.00000   0.00000   0.00000
                          R2        A1        A2        R4
   1                    0.00000   0.00000   0.00000   0.00000
 RFO step:  Lambda0=7.771561172D-16 Lambda=-1.35176878D-01.
 Linear search not attempted -- option 19 set.
 Maximum step size (   0.300) exceeded in Quadratic search.
    -- Step size scaled by   0.284
 Iteration  1 RMS(Cart)=  0.06375132 RMS(Int)=  0.00999432
 Iteration  2 RMS(Cart)=  0.01034937 RMS(Int)=  0.00001022
 Iteration  3 RMS(Cart)=  0.00000973 RMS(Int)=  0.00000000
 Iteration  4 RMS(Cart)=  0.00000000 RMS(Int)=  0.00000000
 ClnCor:  largest displacement from symmetrization is 3.61D-08 for atom     2.
 Variable       Old X    -DE/DX   Delta X   Delta X   Delta X     New X
                                 (Linear)    (Quad)   (Total)
    R1        2.45664   0.01269   0.00000   0.15970   0.15970   2.61634
    R2        2.49444  -0.13649   0.00000  -0.10507  -0.10507   2.38937
    R3        2.45664  -0.09034   0.00000  -0.22993  -0.22993   2.22671
    R4        1.81414   0.00427   0.00000  -0.00091  -0.00091   1.81323
    A1        1.91114  -0.00219   0.00000   0.01147   0.01147   1.92261
    A2        1.91063  -0.00585   0.00000  -0.01659  -0.01659   1.89404
    A3        3.14159  -0.00329   0.00000  -0.01344  -0.01344   3.12816
    A4        3.14159   0.00000   0.00000   0.00000   0.00000   3.14159
    D1        3.14159   0.00000   0.00000   0.00000   0.00000   3.14159
         Item               Value     Threshold  Converged?
 Maximum Force            0.136488     0.000450     NO 
 RMS     Force            0.054792     0.000300     NO 
 Maximum Displacement     0.147974     0.001800     NO 
 RMS     Displacement     0.071375     0.001200     NO 
 Predicted change in Energy=-3.820006D-02
 GradGradGradGradGradGradGradGradGradGradGradGradGradGradGradGradGradGrad

                          Input orientation:                          
 ---------------------------------------------------------------------
 Center     Atomic      Atomic             Coordinates (Angstroms)
 Number     Number       Type             X           Y           Z
 ---------------------------------------------------------------------
      1          8           0       -1.190341    0.348009    0.000000
      2          1           0       -1.664471    1.648803    0.000000
      3          8           0        0.074057    0.345123    0.000000
      4          8           0       -2.053082    2.761201    0.000000
      5          1           0       -3.012522    2.748873    0.000000
 ---------------------------------------------------------------------
                    Distance matrix (angstroms):
                    1          2          3          4          5
     1  O    0.000000
     2  H    1.384508   0.000000
     3  O    1.264401   2.173030   0.000000
     4  O    2.562775   1.178324   3.219030   0.000000
     5  H    3.014050   1.739942   3.912159   0.959519   0.000000
 Stoichiometry    H2O3
 Framework group  CS[SG(H2O3)]
 Deg. of freedom     7
 Full point group                 CS      NOp   2
 Largest Abelian subgroup         CS      NOp   2
 Largest concise Abelian subgroup C1      NOp   1
                         Standard orientation:                         
 ---------------------------------------------------------------------
 Center     Atomic      Atomic             Coordinates (Angstroms)
 Number     Number       Type             X           Y           Z
 ---------------------------------------------------------------------
      1          8           0        0.706507   -0.532498    0.000000
      2          1           0        0.000000    0.658178    0.000000
      3          8           0       -0.091936   -1.512906    0.000000
      4          8           0       -0.614853    1.663367    0.000000
      5          1           0        0.002251    2.398119    0.000000
 ---------------------------------------------------------------------
 Rotational constants (GHZ):     54.7560929      5.2433007      4.7850927
 Standard basis: 6-31+G(d,p) (6D, 7F)
 There are    50 symmetry adapted basis functions of A'  symmetry.
 There are    17 symmetry adapted basis functions of A"  symmetry.
 Integral buffers will be    262144 words long.
 Raffenetti 2 integral format.
 Two-electron integral symmetry is turned on.
    67 basis functions,   110 primitive gaussians,    67 cartesian basis functions
    13 alpha electrons       13 beta electrons
       nuclear repulsion energy        66.3228038691 Hartrees.
 NAtoms=    5 NActive=    5 NUniq=    5 SFac= 7.50D-01 NAtFMM=   80 NAOKFM=F Big=F
 One-electron integrals computed using PRISM.
 NBasis=    67 RedAO= T  NBF=    50    17
 NBsUse=    67 1.00D-06 NBFU=    50    17
 Initial guess read from the read-write file.
 B after Tr=     0.000000    0.000000    0.000000
         Rot=    1.000000    0.000000    0.000000    0.000000 Ang=   0.00 deg.
 Initial guess orbital symmetries:
       Occupied  (A') (A') (A') (A') (A') (A') (A') (A') (A") (A')
                 (A') (A') (A")
       Virtual   (A") (A') (A') (A') (A") (A') (A') (A') (A") (A')
                 (A") (A') (A') (A') (A') (A') (A') (A') (A") (A')
                 (A') (A") (A') (A') (A") (A') (A') (A') (A") (A')
                 (A') (A") (A') (A") (A') (A") (A') (A') (A") (A')
                 (A') (A") (A') (A") (A') (A') (A") (A') (A') (A')
                 (A') (A') (A') (A')
 Harris functional with IExCor= 1009 diagonalized for initial guess.
 ExpMin= 8.45D-02 ExpMax= 5.48D+03 ExpMxC= 8.25D+02 IAcc=2 IRadAn=         0 AccDes= 0.00D+00
 HarFok:  IExCor= 1009 AccDes= 0.00D+00 IRadAn=         0 IDoV= 1
 ScaDFX=  1.000000  1.000000  1.000000  1.000000
 FoFCou: FMM=F IPFlag=           0 FMFlag=      100000 FMFlg1=           0
         NFxFlg=           0 DoJE=T BraDBF=F KetDBF=T FulRan=T
         Omega=  0.000000  0.000000  1.000000  0.000000  0.000000 ICntrl=     500 IOpCl=  0
         NMat0=    1 NMatS0=    1 NMatT0=    0 NMatD0=    1 NMtDS0=    0 NMtDT0=    0
         I1Cent=           4 NGrid=           0.
 Petite list used in FoFCou.
 Requested convergence on RMS density matrix=1.00D-08 within 128 cycles.
 Requested convergence on MAX density matrix=1.00D-06.
 Requested convergence on             energy=1.00D-06.
 No special actions if energy rises.
 Keep R1 ints in memory in canonical form, NReq=3551244.
 Integral accuracy reduced to 1.0D-05 until final iterations.
 Initial convergence to 1.0D-05 achieved.  Increase integral accuracy.
 SCF Done:  E(RM062X) =  -226.556212160     A.U. after   21 cycles
             Convg  =    0.2605D-08             -V/T =  2.0096
 Calling FoFJK, ICntrl=      2127 FMM=F ISym2X=1 I1Cent= 0 IOpClX= 0 NMat=1 NMatS=1 NMatT=0.
 ***** Axes restored to original set *****
 -------------------------------------------------------------------
 Center     Atomic                   Forces (Hartrees/Bohr)
 Number     Number              X              Y              Z
 -------------------------------------------------------------------
      1        8           0.106126321   -0.023361206    0.000000000
      2        1          -0.041033307    0.101176345    0.000000000
      3        8          -0.096752002    0.000772959    0.000000000
      4        8           0.034857108   -0.075767916    0.000000000
      5        1          -0.003198119   -0.002820182    0.000000000
 -------------------------------------------------------------------
 Cartesian Forces:  Max     0.106126321 RMS     0.051681364

 GradGradGradGradGradGradGradGradGradGradGradGradGradGradGradGradGradGrad
 Berny optimization.
 Internal  Forces:  Max     0.096772604 RMS     0.043684493
 Search for a saddle point.
 Step number   2 out of a maximum of  100
 All quantities printed in internal units (Hartrees-Bohrs-Radians)
 Swaping is turned off.
 Update second derivatives using D2CorX and points    1    2
 The second derivative matrix:
                          R1        R2        R3        R4        A1
           R1           0.03567
           R2           0.02229   0.37151
           R3           0.06417   0.01998   0.05964
           R4           0.00245  -0.00402  -0.00435   0.56731
           A1           0.00110   0.01670   0.00228  -0.00080   0.07680
           A2           0.02075  -0.00261   0.01215   0.01484  -0.00541
           A3           0.00153  -0.00836  -0.00055  -0.00055  -0.01474
           A4           0.00000   0.00000   0.00000   0.00000   0.00000
           D1           0.00000   0.00000   0.00000   0.00000   0.00000
                          A2        A3        A4        D1
           A2           0.08886
           A3           0.00713   0.02293
           A4           0.00000   0.00000  -0.07271
           D1           0.00000   0.00000  -0.03057  -0.01140
     Eigenvalues ---   -0.08534  -0.01839   0.00124   0.01867   0.07055
     Eigenvalues ---    0.08327   0.12471   0.37600   0.56791
 Eigenvectors required to have negative eigenvalues:
                          A4        D1        A3        R1        A1
   1                    0.92416   0.38201   0.00000   0.00000   0.00000
                          R3        A2        R2        R4
   1                    0.00000   0.00000   0.00000   0.00000
 RFO step:  Lambda0=0.000000000D+00 Lambda=-9.76749660D-02.
 Linear search not attempted -- option 19 set.
 Maximum step size (   0.300) exceeded in Quadratic search.
    -- Step size scaled by   0.288
 Iteration  1 RMS(Cart)=  0.05926192 RMS(Int)=  0.00942598
 Iteration  2 RMS(Cart)=  0.00961762 RMS(Int)=  0.00000795
 Iteration  3 RMS(Cart)=  0.00000680 RMS(Int)=  0.00000000
 Iteration  4 RMS(Cart)=  0.00000000 RMS(Int)=  0.00000000
 ClnCor:  largest displacement from symmetrization is 9.84D-09 for atom     2.
 Variable       Old X    -DE/DX   Delta X   Delta X   Delta X     New X
                                 (Linear)    (Quad)   (Total)
    R1        2.61634   0.02445   0.00000   0.18438   0.18438   2.80072
    R2        2.38937  -0.09677   0.00000  -0.05898  -0.05898   2.33039
    R3        2.22671  -0.08462   0.00000  -0.22816  -0.22816   1.99855
    R4        1.81323   0.00322   0.00000  -0.00085  -0.00085   1.81238
    A1        1.92261  -0.00126   0.00000   0.00359   0.00359   1.92619
    A2        1.89404  -0.00500   0.00000  -0.01410  -0.01410   1.87994
    A3        3.12816  -0.00394   0.00000  -0.01597  -0.01597   3.11219
    A4        3.14159   0.00000   0.00000   0.00000   0.00000   3.14159
    D1        3.14159   0.00000   0.00000   0.00000   0.00000   3.14159
         Item               Value     Threshold  Converged?
 Maximum Force            0.096773     0.000450     NO 
 RMS     Force            0.043684     0.000300     NO 
 Maximum Displacement     0.150664     0.001800     NO 
 RMS     Displacement     0.065580     0.001200     NO 
 Predicted change in Energy=-2.953886D-02
 GradGradGradGradGradGradGradGradGradGradGradGradGradGradGradGradGradGrad

                          Input orientation:                          
 ---------------------------------------------------------------------
 Center     Atomic      Atomic             Coordinates (Angstroms)
 Number     Number       Type             X           Y           Z
 ---------------------------------------------------------------------
      1          8           0       -1.177922    0.339615    0.000000
      2          1           0       -1.695096    1.728530    0.000000
      3          8           0        0.055265    0.340914    0.000000
      4          8           0       -2.034846    2.730058    0.000000
      5          1           0       -2.993762    2.712890    0.000000
 ---------------------------------------------------------------------
                    Distance matrix (angstroms):
                    1          2          3          4          5
     1  O    0.000000
     2  H    1.482078   0.000000
     3  O    1.233188   2.233661   0.000000
     4  O    2.539397   1.057586   3.174362   0.000000
     5  H    2.988262   1.629570   3.863009   0.959070   0.000000
 Stoichiometry    H2O3
 Framework group  CS[SG(H2O3)]
 Deg. of freedom     7
 Full point group                 CS      NOp   2
 Largest Abelian subgroup         CS      NOp   2
 Largest concise Abelian subgroup C1      NOp   1
                         Standard orientation:                         
 ---------------------------------------------------------------------
 Center     Atomic      Atomic             Coordinates (Angstroms)
 Number     Number       Type             X           Y           Z
 ---------------------------------------------------------------------
      1          8           0        0.660811   -0.582666    0.000000
      2          1           0        0.000000    0.743940    0.000000
      3          8           0       -0.182709   -1.482236    0.000000
      4          8           0       -0.499170    1.676312    0.000000
      5          1           0        0.168543    2.364771    0.000000
 ---------------------------------------------------------------------
 Rotational constants (GHZ):     56.9459315      5.3661844      4.9040602
 Standard basis: 6-31+G(d,p) (6D, 7F)
 There are    50 symmetry adapted basis functions of A'  symmetry.
 There are    17 symmetry adapted basis functions of A"  symmetry.
 Integral buffers will be    262144 words long.
 Raffenetti 2 integral format.
 Two-electron integral symmetry is turned on.
    67 basis functions,   110 primitive gaussians,    67 cartesian basis functions
    13 alpha electrons       13 beta electrons
       nuclear repulsion energy        67.4750126276 Hartrees.
 NAtoms=    5 NActive=    5 NUniq=    5 SFac= 7.50D-01 NAtFMM=   80 NAOKFM=F Big=F
 One-electron integrals computed using PRISM.
 NBasis=    67 RedAO= T  NBF=    50    17
 NBsUse=    67 1.00D-06 NBFU=    50    17
 Initial guess read from the read-write file.
 B after Tr=     0.000000    0.000000    0.000000
         Rot=    1.000000    0.000000    0.000000    0.000000 Ang=   0.00 deg.
 Initial guess orbital symmetries:
       Occupied  (A') (A') (A') (A') (A') (A') (A') (A') (A") (A')
                 (A') (A') (A")
       Virtual   (A") (A') (A') (A') (A") (A') (A') (A") (A') (A')
                 (A") (A') (A') (A') (A') (A') (A') (A') (A') (A")
                 (A') (A') (A") (A') (A") (A') (A') (A') (A") (A')
                 (A') (A") (A') (A") (A') (A') (A") (A') (A") (A')
                 (A') (A') (A") (A') (A") (A') (A") (A') (A') (A')
                 (A') (A') (A') (A')
 Harris functional with IExCor= 1009 diagonalized for initial guess.
 ExpMin= 8.45D-02 ExpMax= 5.48D+03 ExpMxC= 8.25D+02 IAcc=2 IRadAn=         0 AccDes= 0.00D+00
 HarFok:  IExCor= 1009 AccDes= 0.00D+00 IRadAn=         0 IDoV= 1
 ScaDFX=  1.000000  1.000000  1.000000  1.000000
 FoFCou: FMM=F IPFlag=           0 FMFlag=      100000 FMFlg1=           0
         NFxFlg=           0 DoJE=T BraDBF=F KetDBF=T FulRan=T
         Omega=  0.000000  0.000000  1.000000  0.000000  0.000000 ICntrl=     500 IOpCl=  0
         NMat0=    1 NMatS0=    1 NMatT0=    0 NMatD0=    1 NMtDS0=    0 NMtDT0=    0
         I1Cent=           4 NGrid=           0.
 Petite list used in FoFCou.
 Requested convergence on RMS density matrix=1.00D-08 within 128 cycles.
 Requested convergence on MAX density matrix=1.00D-06.
 Requested convergence on             energy=1.00D-06.
 No special actions if energy rises.
 Keep R1 ints in memory in canonical form, NReq=3551244.
 Integral accuracy reduced to 1.0D-05 until final iterations.
 Initial convergence to 1.0D-05 achieved.  Increase integral accuracy.
 SCF Done:  E(RM062X) =  -226.581832996     A.U. after   17 cycles
             Convg  =    0.6140D-08             -V/T =  2.0087
 Calling FoFJK, ICntrl=      2127 FMM=F ISym2X=1 I1Cent= 0 IOpClX= 0 NMat=1 NMatS=1 NMatT=0.
 ***** Axes restored to original set *****
 -------------------------------------------------------------------
 Center     Atomic                   Forces (Hartrees/Bohr)
 Number     Number              X              Y              Z
 -------------------------------------------------------------------
      1        8           0.069660600   -0.024930582    0.000000000
      2        1          -0.028302714    0.070777084    0.000000000
      3        8          -0.059734147    0.000487602    0.000000000
      4        8           0.021024287   -0.045243978    0.000000000
      5        1          -0.002648026   -0.001090125    0.000000000
 -------------------------------------------------------------------
 Cartesian Forces:  Max     0.070777084 RMS     0.034010015

 GradGradGradGradGradGradGradGradGradGradGradGradGradGradGradGradGradGrad
 Berny optimization.
 Internal  Forces:  Max     0.059752170 RMS     0.027418086
 Search for a saddle point.
 Step number   3 out of a maximum of  100
 All quantities printed in internal units (Hartrees-Bohrs-Radians)
 Swaping is turned off.
 Update second derivatives using D2CorX and points    1    2    3
 The second derivative matrix:
                          R1        R2        R3        R4        A1
           R1           0.03938
           R2           0.00859   0.39345
           R3           0.03694   0.06810   0.16345
           R4           0.00203  -0.00340  -0.00297   0.56733
           A1           0.00168   0.01567   0.00004  -0.00083   0.07685
           A2           0.01806   0.00177   0.02172   0.01497  -0.00561
           A3           0.00081  -0.00663   0.00303  -0.00050  -0.01481
           A4           0.00000   0.00000   0.00000   0.00000   0.00000
           D1           0.00000   0.00000   0.00000   0.00000   0.00000
                          A2        A3        A4        D1
           A2           0.08973
           A3           0.00747   0.02304
           A4           0.00000   0.00000  -0.07271
           D1           0.00000   0.00000  -0.03057  -0.01140
     Eigenvalues ---   -0.08534   0.00124   0.01864   0.02659   0.07594
     Eigenvalues ---    0.08682   0.16345   0.41388   0.56791
 Eigenvectors required to have negative eigenvalues:
                          A4        D1        A3        R1        A1
   1                    0.92416   0.38201   0.00000   0.00000   0.00000
                          R3        A2        R2        R4
   1                    0.00000   0.00000   0.00000   0.00000
 RFO step:  Lambda0=6.938893904D-18 Lambda=-3.55113298D-02.
 Linear search not attempted -- option 19 set.
 Maximum step size (   0.300) exceeded in Quadratic search.
    -- Step size scaled by   0.483
 Iteration  1 RMS(Cart)=  0.05120523 RMS(Int)=  0.01783338
 Iteration  2 RMS(Cart)=  0.01922514 RMS(Int)=  0.00002437
 Iteration  3 RMS(Cart)=  0.00002791 RMS(Int)=  0.00000000
 Iteration  4 RMS(Cart)=  0.00000000 RMS(Int)=  0.00000000
 ClnCor:  largest displacement from symmetrization is 1.06D-08 for atom     2.
 Variable       Old X    -DE/DX   Delta X   Delta X   Delta X     New X
                                 (Linear)    (Quad)   (Total)
    R1        2.80072   0.02639   0.00000   0.25361   0.25361   3.05433
    R2        2.33039  -0.05975   0.00000  -0.04884  -0.04884   2.28155
    R3        1.99855  -0.04977   0.00000  -0.14906  -0.14906   1.84949
    R4        1.81238   0.00265   0.00000   0.00062   0.00062   1.81300
    A1        1.92619  -0.00123   0.00000  -0.00667  -0.00667   1.91953
    A2        1.87994  -0.00185   0.00000  -0.01588  -0.01588   1.86407
    A3        3.11219  -0.00326   0.00000  -0.02791  -0.02791   3.08428
    A4        3.14159   0.00000   0.00000   0.00000   0.00000   3.14159
    D1        3.14159   0.00000   0.00000   0.00000   0.00000   3.14159
         Item               Value     Threshold  Converged?
 Maximum Force            0.059752     0.000450     NO 
 RMS     Force            0.027418     0.000300     NO 
 Maximum Displacement     0.133121     0.001800     NO 
 RMS     Displacement     0.063113     0.001200     NO 
 Predicted change in Energy=-1.461111D-02
 GradGradGradGradGradGradGradGradGradGradGradGradGradGradGradGradGradGrad

                          Input orientation:                          
 ---------------------------------------------------------------------
 Center     Atomic      Atomic             Coordinates (Angstroms)
 Number     Number       Type             X           Y           Z
 ---------------------------------------------------------------------
      1          8           0       -1.145549    0.293070    0.000000
      2          1           0       -1.732597    1.798975    0.000000
      3          8           0        0.061477    0.320810    0.000000
      4          8           0       -2.035253    2.729709    0.000000
      5          1           0       -2.994438    2.709444    0.000000
 ---------------------------------------------------------------------
                    Distance matrix (angstroms):
                    1          2          3          4          5
     1  O    0.000000
     2  H    1.616284   0.000000
     3  O    1.207344   2.324580   0.000000
     4  O    2.593990   0.978707   3.193599   0.000000
     5  H    3.042574   1.556020   3.878684   0.959399   0.000000
 Stoichiometry    H2O3
 Framework group  CS[SG(H2O3)]
 Deg. of freedom     7
 Full point group                 CS      NOp   2
 Largest Abelian subgroup         CS      NOp   2
 Largest concise Abelian subgroup C1      NOp   1
                         Standard orientation:                         
 ---------------------------------------------------------------------
 Center     Atomic      Atomic             Coordinates (Angstroms)
 Number     Number       Type             X           Y           Z
 ---------------------------------------------------------------------
      1          8           0        0.642518   -0.643194    0.000000
      2          1           0        0.000000    0.839892    0.000000
      3          8           0       -0.234641   -1.472815    0.000000
      4          8           0       -0.439868    1.714183    0.000000
      5          1           0        0.255931    2.374720    0.000000
 ---------------------------------------------------------------------
 Rotational constants (GHZ):     57.3877806      5.2457379      4.8063922
 Standard basis: 6-31+G(d,p) (6D, 7F)
 There are    50 symmetry adapted basis functions of A'  symmetry.
 There are    17 symmetry adapted basis functions of A"  symmetry.
 Integral buffers will be    262144 words long.
 Raffenetti 2 integral format.
 Two-electron integral symmetry is turned on.
    67 basis functions,   110 primitive gaussians,    67 cartesian basis functions
    13 alpha electrons       13 beta electrons
       nuclear repulsion energy        67.7133585166 Hartrees.
 NAtoms=    5 NActive=    5 NUniq=    5 SFac= 7.50D-01 NAtFMM=   80 NAOKFM=F Big=F
 One-electron integrals computed using PRISM.
 NBasis=    67 RedAO= T  NBF=    50    17
 NBsUse=    67 1.00D-06 NBFU=    50    17
 Initial guess read from the read-write file.
 B after Tr=     0.000000    0.000000    0.000000
         Rot=    1.000000    0.000000    0.000000    0.000000 Ang=   0.00 deg.
 Initial guess orbital symmetries:
       Occupied  (A') (A') (A') (A') (A') (A') (A') (A') (A") (A')
                 (A') (A') (A")
       Virtual   (A") (A') (A') (A') (A") (A') (A') (A") (A') (A")
                 (A') (A') (A') (A') (A') (A') (A') (A') (A') (A")
                 (A') (A') (A") (A') (A") (A') (A') (A') (A') (A")
                 (A') (A") (A") (A') (A') (A") (A') (A') (A") (A')
                 (A') (A') (A") (A') (A") (A") (A') (A') (A') (A')
                 (A') (A') (A') (A')
 Harris functional with IExCor= 1009 diagonalized for initial guess.
 ExpMin= 8.45D-02 ExpMax= 5.48D+03 ExpMxC= 8.25D+02 IAcc=2 IRadAn=         0 AccDes= 0.00D+00
 HarFok:  IExCor= 1009 AccDes= 0.00D+00 IRadAn=         0 IDoV= 1
 ScaDFX=  1.000000  1.000000  1.000000  1.000000
 FoFCou: FMM=F IPFlag=           0 FMFlag=      100000 FMFlg1=           0
         NFxFlg=           0 DoJE=T BraDBF=F KetDBF=T FulRan=T
         Omega=  0.000000  0.000000  1.000000  0.000000  0.000000 ICntrl=     500 IOpCl=  0
         NMat0=    1 NMatS0=    1 NMatT0=    0 NMatD0=    1 NMtDS0=    0 NMtDT0=    0
         I1Cent=           4 NGrid=           0.
 Petite list used in FoFCou.
 Requested convergence on RMS density matrix=1.00D-08 within 128 cycles.
 Requested convergence on MAX density matrix=1.00D-06.
 Requested convergence on             energy=1.00D-06.
 No special actions if energy rises.
 Keep R1 ints in memory in canonical form, NReq=3551244.
 Integral accuracy reduced to 1.0D-05 until final iterations.
 Initial convergence to 1.0D-05 achieved.  Increase integral accuracy.
 SCF Done:  E(RM062X) =  -226.594139723     A.U. after   16 cycles
             Convg  =    0.3520D-08             -V/T =  2.0080
 Calling FoFJK, ICntrl=      2127 FMM=F ISym2X=1 I1Cent= 0 IOpClX= 0 NMat=1 NMatS=1 NMatT=0.
 ***** Axes restored to original set *****
 -------------------------------------------------------------------
 Center     Atomic                   Forces (Hartrees/Bohr)
 Number     Number              X              Y              Z
 -------------------------------------------------------------------
      1        8           0.028095980   -0.018705833    0.000000000
      2        1          -0.009039520    0.020844578    0.000000000
      3        8          -0.020237471   -0.000127413    0.000000000
      4        8           0.003069636   -0.002663314    0.000000000
      5        1          -0.001888625    0.000651982    0.000000000
 -------------------------------------------------------------------
 Cartesian Forces:  Max     0.028095980 RMS     0.011791469

 GradGradGradGradGradGradGradGradGradGradGradGradGradGradGradGradGradGrad
 Berny optimization.
 Internal  Forces:  Max     0.020404224 RMS     0.009670325
 Search for a saddle point.
 Step number   4 out of a maximum of  100
 All quantities printed in internal units (Hartrees-Bohrs-Radians)
 Swaping is turned off.
 Update second derivatives using D2CorX and points    2    3    4
 The second derivative matrix:
                          R1        R2        R3        R4        A1
           R1           0.02297
           R2          -0.00908   0.41198
           R3          -0.00010   0.11410   0.27609
           R4           0.00115  -0.00283  -0.00148   0.56734
           A1           0.00187   0.01608   0.00097  -0.00081   0.07684
           A2           0.01443   0.00618   0.03257   0.01511  -0.00553
           A3           0.00213  -0.00446   0.00773  -0.00040  -0.01483
           A4           0.00000   0.00000   0.00000   0.00000   0.00000
           D1           0.00000   0.00000   0.00000   0.00000   0.00000
                          A2        A3        A4        D1
           A2           0.09077
           A3           0.00792   0.02294
           A4           0.00000   0.00000  -0.07271
           D1           0.00000   0.00000  -0.03057  -0.01140
     Eigenvalues ---   -0.08534   0.00124   0.01760   0.02032   0.07673
     Eigenvalues ---    0.09018   0.21763   0.47857   0.56790
 Eigenvectors required to have negative eigenvalues:
                          A4        D1        A3        R1        R3
   1                    0.92416   0.38201   0.00000   0.00000   0.00000
                          A1        A2        R2        R4
   1                    0.00000   0.00000   0.00000   0.00000
 RFO step:  Lambda0=1.387778781D-17 Lambda=-1.30116190D-02.
 Linear search not attempted -- option 19 set.
 Maximum step size (   0.300) exceeded in Quadratic search.
    -- Step size scaled by   0.493
 Iteration  1 RMS(Cart)=  0.06414410 RMS(Int)=  0.03065621
 Iteration  2 RMS(Cart)=  0.03252443 RMS(Int)=  0.00006558
 Iteration  3 RMS(Cart)=  0.00007955 RMS(Int)=  0.00000001
 Iteration  4 RMS(Cart)=  0.00000000 RMS(Int)=  0.00000001
 ClnCor:  largest displacement from symmetrization is 1.79D-08 for atom     2.
 Variable       Old X    -DE/DX   Delta X   Delta X   Delta X     New X
                                 (Linear)    (Quad)   (Total)
    R1        3.05433   0.02040   0.00000   0.29232   0.29232   3.34666
    R2        2.28155  -0.02024   0.00000  -0.01903  -0.01903   2.26252
    R3        1.84949  -0.00227   0.00000   0.00896   0.00896   1.85844
    R4        1.81300   0.00187   0.00000   0.00176   0.00176   1.81476
    A1        1.91953  -0.00076   0.00000  -0.01753  -0.01753   1.90200
    A2        1.86407   0.00126   0.00000  -0.03358  -0.03358   1.83049
    A3        3.08428  -0.00220   0.00000  -0.05164  -0.05164   3.03264
    A4        3.14159   0.00000   0.00000   0.00000   0.00000   3.14159
    D1        3.14159   0.00000   0.00000   0.00000   0.00000   3.14159
         Item               Value     Threshold  Converged?
 Maximum Force            0.020404     0.000450     NO 
 RMS     Force            0.009670     0.000300     NO 
 Maximum Displacement     0.169219     0.001800     NO 
 RMS     Displacement     0.094850     0.001200     NO 
 Predicted change in Energy=-5.420338D-03
 GradGradGradGradGradGradGradGradGradGradGradGradGradGradGradGradGradGrad

                          Input orientation:                          
 ---------------------------------------------------------------------
 Center     Atomic      Atomic             Coordinates (Angstroms)
 Number     Number       Type             X           Y           Z
 ---------------------------------------------------------------------
      1          8           0       -1.092082    0.203524    0.000000
      2          1           0       -1.778670    1.835992    0.000000
      3          8           0        0.102514    0.283585    0.000000
      4          8           0       -2.059106    2.778606    0.000000
      5          1           0       -3.019017    2.750302    0.000000
 ---------------------------------------------------------------------
                    Distance matrix (angstroms):
                    1          2          3          4          5
     1  O    0.000000
     2  H    1.770976   0.000000
     3  O    1.197276   2.439021   0.000000
     4  O    2.750670   0.983446   3.301172   0.000000
     5  H    3.193612   1.540917   3.978524   0.960328   0.000000
 Stoichiometry    H2O3
 Framework group  CS[SG(H2O3)]
 Deg. of freedom     7
 Full point group                 CS      NOp   2
 Largest Abelian subgroup         CS      NOp   2
 Largest concise Abelian subgroup C1      NOp   1
                         Standard orientation:                         
 ---------------------------------------------------------------------
 Center     Atomic      Atomic             Coordinates (Angstroms)
 Number     Number       Type             X           Y           Z
 ---------------------------------------------------------------------
      1          8           0        0.670501   -0.712229    0.000000
      2          1           0        0.000000    0.926912    0.000000
      3          8           0       -0.230018   -1.501238    0.000000
      4          8           0       -0.469108    1.791264    0.000000
      5          1           0        0.228997    2.450718    0.000000
 ---------------------------------------------------------------------
 Rotational constants (GHZ):     55.0070228      4.8315709      4.4414535
 Standard basis: 6-31+G(d,p) (6D, 7F)
 There are    50 symmetry adapted basis functions of A'  symmetry.
 There are    17 symmetry adapted basis functions of A"  symmetry.
 Integral buffers will be    262144 words long.
 Raffenetti 2 integral format.
 Two-electron integral symmetry is turned on.
    67 basis functions,   110 primitive gaussians,    67 cartesian basis functions
    13 alpha electrons       13 beta electrons
       nuclear repulsion energy        66.4307747952 Hartrees.
 NAtoms=    5 NActive=    5 NUniq=    5 SFac= 7.50D-01 NAtFMM=   80 NAOKFM=F Big=F
 One-electron integrals computed using PRISM.
 NBasis=    67 RedAO= T  NBF=    50    17
 NBsUse=    67 1.00D-06 NBFU=    50    17
 Initial guess read from the read-write file.
 B after Tr=     0.000000    0.000000    0.000000
         Rot=    1.000000    0.000000    0.000000    0.000000 Ang=   0.00 deg.
 Initial guess orbital symmetries:
       Occupied  (A') (A') (A') (A') (A') (A') (A') (A') (A") (A')
                 (A') (A") (A')
       Virtual   (A") (A') (A') (A') (A") (A') (A') (A") (A') (A")
                 (A') (A') (A') (A') (A') (A') (A') (A') (A') (A")
                 (A') (A') (A") (A') (A") (A') (A') (A') (A') (A")
                 (A') (A") (A") (A') (A') (A") (A') (A') (A") (A')
                 (A') (A') (A") (A') (A") (A") (A') (A') (A') (A')
                 (A') (A') (A') (A')
 Harris functional with IExCor= 1009 diagonalized for initial guess.
 ExpMin= 8.45D-02 ExpMax= 5.48D+03 ExpMxC= 8.25D+02 IAcc=2 IRadAn=         0 AccDes= 0.00D+00
 HarFok:  IExCor= 1009 AccDes= 0.00D+00 IRadAn=         0 IDoV= 1
 ScaDFX=  1.000000  1.000000  1.000000  1.000000
 FoFCou: FMM=F IPFlag=           0 FMFlag=      100000 FMFlg1=           0
         NFxFlg=           0 DoJE=T BraDBF=F KetDBF=T FulRan=T
         Omega=  0.000000  0.000000  1.000000  0.000000  0.000000 ICntrl=     500 IOpCl=  0
         NMat0=    1 NMatS0=    1 NMatT0=    0 NMatD0=    1 NMtDS0=    0 NMtDT0=    0
         I1Cent=           4 NGrid=           0.
 Petite list used in FoFCou.
 Requested convergence on RMS density matrix=1.00D-08 within 128 cycles.
 Requested convergence on MAX density matrix=1.00D-06.
 Requested convergence on             energy=1.00D-06.
 No special actions if energy rises.
 Keep R1 ints in memory in canonical form, NReq=3551244.
 Integral accuracy reduced to 1.0D-05 until final iterations.
 Initial convergence to 1.0D-05 achieved.  Increase integral accuracy.
 SCF Done:  E(RM062X) =  -226.598713553     A.U. after   14 cycles
             Convg  =    0.5374D-08             -V/T =  2.0081
 Calling FoFJK, ICntrl=      2127 FMM=F ISym2X=1 I1Cent= 0 IOpClX= 0 NMat=1 NMatS=1 NMatT=0.
 ***** Axes restored to original set *****
 -------------------------------------------------------------------
 Center     Atomic                   Forces (Hartrees/Bohr)
 Number     Number              X              Y              Z
 -------------------------------------------------------------------
      1        8           0.007028984   -0.009918952    0.000000000
      2        1          -0.006141040    0.022705556    0.000000000
      3        8          -0.002946429    0.000133745    0.000000000
      4        8           0.004053411   -0.015255217    0.000000000
      5        1          -0.001994926    0.002334868    0.000000000
 -------------------------------------------------------------------
 Cartesian Forces:  Max     0.022705556 RMS     0.008034631

 GradGradGradGradGradGradGradGradGradGradGradGradGradGradGradGradGradGrad
 Berny optimization.
 Internal  Forces:  Max     0.012998014 RMS     0.005898351
 Search for a saddle point.
 Step number   5 out of a maximum of  100
 All quantities printed in internal units (Hartrees-Bohrs-Radians)
 Swaping is turned off.
 Update second derivatives using D2CorX and points    3    4    5
 The second derivative matrix:
                          R1        R2        R3        R4        A1
           R1           0.03063
           R2          -0.03334   0.41787
           R3           0.03908   0.11079   0.27106
           R4          -0.00205  -0.00246  -0.00122   0.56733
           A1           0.00278   0.01715  -0.00110  -0.00064   0.07673
           A2           0.00161   0.01050   0.02874   0.01547  -0.00503
           A3           0.00014  -0.00044   0.00142   0.00012  -0.01494
           A4           0.00000   0.00000   0.00000   0.00000   0.00000
           D1           0.00000   0.00000   0.00000   0.00000   0.00000
                          A2        A3        A4        D1
           A2           0.09368
           A3           0.01009   0.02339
           A4           0.00000   0.00000  -0.07271
           D1           0.00000   0.00000  -0.03057  -0.01140
     Eigenvalues ---   -0.08534   0.00124   0.01607   0.01928   0.07633
     Eigenvalues ---    0.09352   0.22815   0.47945   0.56789
 Eigenvectors required to have negative eigenvalues:
                          A4        D1        A3        R3        R1
   1                    0.92416   0.38201   0.00000   0.00000   0.00000
                          A1        R2        R4        A2
   1                    0.00000   0.00000   0.00000   0.00000
 RFO step:  Lambda0=0.000000000D+00 Lambda=-7.49584840D-03.
 Linear search not attempted -- option 19 set.
 Maximum step size (   0.300) exceeded in Quadratic search.
    -- Step size scaled by   0.556
 Iteration  1 RMS(Cart)=  0.06816800 RMS(Int)=  0.02577940
 Iteration  2 RMS(Cart)=  0.02688492 RMS(Int)=  0.00003670
 Iteration  3 RMS(Cart)=  0.00004601 RMS(Int)=  0.00000000
 Iteration  4 RMS(Cart)=  0.00000000 RMS(Int)=  0.00000000
 ClnCor:  largest displacement from symmetrization is 8.36D-09 for atom     2.
 Variable       Old X    -DE/DX   Delta X   Delta X   Delta X     New X
                                 (Linear)    (Quad)   (Total)
    R1        3.34666   0.01058   0.00000   0.27719   0.27719   3.62385
    R2        2.26252  -0.00290   0.00000   0.04018   0.04018   2.30270
    R3        1.85844  -0.01300   0.00000  -0.08500  -0.08500   1.77345
    R4        1.81476   0.00195   0.00000   0.00173   0.00173   1.81649
    A1        1.90200  -0.00083   0.00000  -0.02886  -0.02886   1.87314
    A2        1.83049   0.00428   0.00000   0.04157   0.04157   1.87206
    A3        3.03264  -0.00098   0.00000  -0.04200  -0.04200   2.99064
    A4        3.14159   0.00000   0.00000   0.00000   0.00000   3.14159
    D1        3.14159   0.00000   0.00000   0.00000   0.00000   3.14159
         Item               Value     Threshold  Converged?
 Maximum Force            0.012998     0.000450     NO 
 RMS     Force            0.005898     0.000300     NO 
 Maximum Displacement     0.154946     0.001800     NO 
 RMS     Displacement     0.090407     0.001200     NO 
 Predicted change in Energy=-3.346415D-03
 GradGradGradGradGradGradGradGradGradGradGradGradGradGradGradGradGradGrad

                          Input orientation:                          
 ---------------------------------------------------------------------
 Center     Atomic      Atomic             Coordinates (Angstroms)
 Number     Number       Type             X           Y           Z
 ---------------------------------------------------------------------
      1          8           0       -1.054662    0.121530    0.000000
      2          1           0       -1.831205    1.874923    0.000000
      3          8           0        0.155888    0.260836    0.000000
      4          8           0       -2.077869    2.780395    0.000000
      5          1           0       -3.038512    2.814325    0.000000
 ---------------------------------------------------------------------
                    Distance matrix (angstroms):
                    1          2          3          4          5
     1  O    0.000000
     2  H    1.917657   0.000000
     3  O    1.218539   2.560042   0.000000
     4  O    2.848950   0.938468   3.367171   0.000000
     5  H    3.344669   1.529727   4.089559   0.961243   0.000000
 Stoichiometry    H2O3
 Framework group  CS[SG(H2O3)]
 Deg. of freedom     7
 Full point group                 CS      NOp   2
 Largest Abelian subgroup         CS      NOp   2
 Largest concise Abelian subgroup C1      NOp   1
                         Standard orientation:                         
 ---------------------------------------------------------------------
 Center     Atomic      Atomic             Coordinates (Angstroms)
 Number     Number       Type             X           Y           Z
 ---------------------------------------------------------------------
      1          8           0        0.698886   -0.760856    0.000000
      2          1           0        0.000000    1.024911    0.000000
      3          8           0       -0.252142   -1.522683    0.000000
      4          8           0       -0.469558    1.837462    0.000000
      5          1           0        0.182514    2.543712    0.000000
 ---------------------------------------------------------------------
 Rotational constants (GHZ):     51.2248559      4.5860039      4.2091699
 Standard basis: 6-31+G(d,p) (6D, 7F)
 There are    50 symmetry adapted basis functions of A'  symmetry.
 There are    17 symmetry adapted basis functions of A"  symmetry.
 Integral buffers will be    262144 words long.
 Raffenetti 2 integral format.
 Two-electron integral symmetry is turned on.
    67 basis functions,   110 primitive gaussians,    67 cartesian basis functions
    13 alpha electrons       13 beta electrons
       nuclear repulsion energy        65.1623372807 Hartrees.
 NAtoms=    5 NActive=    5 NUniq=    5 SFac= 7.50D-01 NAtFMM=   80 NAOKFM=F Big=F
 One-electron integrals computed using PRISM.
 NBasis=    67 RedAO= T  NBF=    50    17
 NBsUse=    67 1.00D-06 NBFU=    50    17
 Initial guess read from the read-write file.
 B after Tr=     0.000000    0.000000    0.000000
         Rot=    1.000000    0.000000    0.000000    0.000000 Ang=   0.00 deg.
 Initial guess orbital symmetries:
       Occupied  (A') (A') (A') (A') (A') (A') (A') (A') (A") (A')
                 (A') (A") (A')
       Virtual   (A") (A') (A') (A') (A") (A') (A') (A") (A') (A")
                 (A') (A') (A') (A') (A') (A') (A') (A') (A') (A")
                 (A') (A') (A") (A') (A") (A') (A') (A') (A') (A")
                 (A') (A") (A") (A') (A') (A") (A') (A") (A') (A')
                 (A') (A') (A") (A') (A') (A") (A") (A') (A') (A')
                 (A') (A') (A') (A')
 Harris functional with IExCor= 1009 diagonalized for initial guess.
 ExpMin= 8.45D-02 ExpMax= 5.48D+03 ExpMxC= 8.25D+02 IAcc=2 IRadAn=         0 AccDes= 0.00D+00
 HarFok:  IExCor= 1009 AccDes= 0.00D+00 IRadAn=         0 IDoV= 1
 ScaDFX=  1.000000  1.000000  1.000000  1.000000
 FoFCou: FMM=F IPFlag=           0 FMFlag=      100000 FMFlg1=           0
         NFxFlg=           0 DoJE=T BraDBF=F KetDBF=T FulRan=T
         Omega=  0.000000  0.000000  1.000000  0.000000  0.000000 ICntrl=     500 IOpCl=  0
         NMat0=    1 NMatS0=    1 NMatT0=    0 NMatD0=    1 NMtDS0=    0 NMtDT0=    0
         I1Cent=           4 NGrid=           0.
 Petite list used in FoFCou.
 Requested convergence on RMS density matrix=1.00D-08 within 128 cycles.
 Requested convergence on MAX density matrix=1.00D-06.
 Requested convergence on             energy=1.00D-06.
 No special actions if energy rises.
 Keep R1 ints in memory in canonical form, NReq=3551244.
 Integral accuracy reduced to 1.0D-05 until final iterations.
 Initial convergence to 1.0D-05 achieved.  Increase integral accuracy.
 SCF Done:  E(RM062X) =  -226.599586465     A.U. after   14 cycles
             Convg  =    0.3659D-08             -V/T =  2.0082
 Calling FoFJK, ICntrl=      2127 FMM=F ISym2X=1 I1Cent= 0 IOpClX= 0 NMat=1 NMatS=1 NMatT=0.
 ***** Axes restored to original set *****
 -------------------------------------------------------------------
 Center     Atomic                   Forces (Hartrees/Bohr)
 Number     Number              X              Y              Z
 -------------------------------------------------------------------
      1        8           0.039431375   -0.000982187    0.000000000
      2        1           0.005303781   -0.024549575    0.000000000
      3        8          -0.037286847   -0.003973974    0.000000000
      4        8          -0.008197293    0.029756661    0.000000000
      5        1           0.000748983   -0.000250925    0.000000000
 -------------------------------------------------------------------
 Cartesian Forces:  Max     0.039431375 RMS     0.017408790

 GradGradGradGradGradGradGradGradGradGradGradGradGradGradGradGradGradGrad
 Berny optimization.
 Internal  Forces:  Max     0.037493977 RMS     0.016200697
 Search for a saddle point.
 Step number   6 out of a maximum of  100
 All quantities printed in internal units (Hartrees-Bohrs-Radians)
 Swaping is turned off.
 Update second derivatives using D2CorX and points    4    5    6
 The second derivative matrix:
                          R1        R2        R3        R4        A1
           R1          -0.01087
           R2           0.07464   0.44960
           R3          -0.06405   0.06517   0.33002
           R4           0.00269  -0.00080  -0.00349   0.56742
           A1           0.00745   0.00734   0.00816  -0.00107   0.07623
           A2           0.00603   0.02062   0.01800   0.01593  -0.00537
           A3           0.00687  -0.01749   0.01768  -0.00063  -0.01569
           A4           0.00000   0.00000   0.00000   0.00000   0.00000
           D1           0.00000   0.00000   0.00000   0.00000   0.00000
                          A2        A3        A4        D1
           A2           0.09473
           A3           0.00941   0.02230
           A4           0.00000   0.00000  -0.07271
           D1           0.00000   0.00000  -0.03057  -0.01140
     Eigenvalues ---   -0.08534  -0.04153   0.00124   0.01925   0.07645
     Eigenvalues ---    0.09707   0.32571   0.48445   0.56802
 Eigenvectors required to have negative eigenvalues:
                          A4        D1        R1        A3        R3
   1                    0.92416   0.38201   0.00000   0.00000   0.00000
                          A1        R2        R4        A2
   1                    0.00000   0.00000   0.00000   0.00000
 RFO step:  Lambda0=4.857225733D-17 Lambda=-4.89235463D-02.
 Linear search not attempted -- option 19 set.
 Maximum step size (   0.300) exceeded in Quadratic search.
    -- Step size scaled by   0.396
 Iteration  1 RMS(Cart)=  0.08794885 RMS(Int)=  0.02152368
 Iteration  2 RMS(Cart)=  0.02337329 RMS(Int)=  0.00003000
 Iteration  3 RMS(Cart)=  0.00003907 RMS(Int)=  0.00000000
 Iteration  4 RMS(Cart)=  0.00000000 RMS(Int)=  0.00000000
 ClnCor:  largest displacement from symmetrization is 2.69D-08 for atom     2.
 Variable       Old X    -DE/DX   Delta X   Delta X   Delta X     New X
                                 (Linear)    (Quad)   (Total)
    R1        3.62385   0.00540   0.00000   0.26594   0.26594   3.88979
    R2        2.30270  -0.03749   0.00000  -0.08128  -0.08128   2.22143
    R3        1.77345   0.03042   0.00000   0.09170   0.09170   1.86515
    R4        1.81649  -0.00076   0.00000  -0.00111  -0.00111   1.81538
    A1        1.87314  -0.00073   0.00000  -0.02359  -0.02359   1.84955
    A2        1.87206  -0.00041   0.00000  -0.00790  -0.00790   1.86416
    A3        2.99064  -0.00059   0.00000  -0.06033  -0.06033   2.93030
    A4        3.14159   0.00000   0.00000   0.00000   0.00000   3.14159
    D1        3.14159   0.00000   0.00000   0.00000   0.00000   3.14159
         Item               Value     Threshold  Converged?
 Maximum Force            0.037494     0.000450     NO 
 RMS     Force            0.016201     0.000300     NO 
 Maximum Displacement     0.181694     0.001800     NO 
 RMS     Displacement     0.107897     0.001200     NO 
 Predicted change in Energy=-8.813405D-03
 GradGradGradGradGradGradGradGradGradGradGradGradGradGradGradGradGradGrad

                          Input orientation:                          
 ---------------------------------------------------------------------
 Center     Atomic      Atomic             Coordinates (Angstroms)
 Number     Number       Type             X           Y           Z
 ---------------------------------------------------------------------
      1          8           0       -0.975355    0.025381    0.000000
      2          1           0       -1.874509    1.876996    0.000000
      3          8           0        0.182562    0.228097    0.000000
      4          8           0       -2.109865    2.835519    0.000000
      5          1           0       -3.069194    2.886015    0.000000
 ---------------------------------------------------------------------
                    Distance matrix (angstroms):
                    1          2          3          4          5
     1  O    0.000000
     2  H    2.058387   0.000000
     3  O    1.175528   2.636364   0.000000
     4  O    3.030509   0.986995   3.471869   0.000000
     5  H    3.545051   1.563774   4.199815   0.960657   0.000000
 Stoichiometry    H2O3
 Framework group  CS[SG(H2O3)]
 Deg. of freedom     7
 Full point group                 CS      NOp   2
 Largest Abelian subgroup         CS      NOp   2
 Largest concise Abelian subgroup C1      NOp   1
                         Standard orientation:                         
 ---------------------------------------------------------------------
 Center     Atomic      Atomic             Coordinates (Angstroms)
 Number     Number       Type             X           Y           Z
 ---------------------------------------------------------------------
      1          8           0        0.733846   -0.837486    0.000000
      2          1           0        0.000000    1.085643    0.000000
      3          8           0       -0.206727   -1.542603    0.000000
      4          8           0       -0.537445    1.913479    0.000000
      5          1           0        0.082608    2.647234    0.000000
 ---------------------------------------------------------------------
 Rotational constants (GHZ):     51.6771877      4.2127084      3.8951749
 Standard basis: 6-31+G(d,p) (6D, 7F)
 There are    50 symmetry adapted basis functions of A'  symmetry.
 There are    17 symmetry adapted basis functions of A"  symmetry.
 Integral buffers will be    262144 words long.
 Raffenetti 2 integral format.
 Two-electron integral symmetry is turned on.
    67 basis functions,   110 primitive gaussians,    67 cartesian basis functions
    13 alpha electrons       13 beta electrons
       nuclear repulsion energy        64.6395824176 Hartrees.
 NAtoms=    5 NActive=    5 NUniq=    5 SFac= 7.50D-01 NAtFMM=   80 NAOKFM=F Big=F
 One-electron integrals computed using PRISM.
 NBasis=    67 RedAO= T  NBF=    50    17
 NBsUse=    67 1.00D-06 NBFU=    50    17
 Initial guess read from the read-write file.
 B after Tr=     0.000000    0.000000    0.000000
         Rot=    1.000000    0.000000    0.000000    0.000000 Ang=   0.00 deg.
 Initial guess orbital symmetries:
       Occupied  (A') (A') (A') (A') (A') (A') (A') (A') (A") (A')
                 (A') (A") (A')
       Virtual   (A") (A') (A') (A') (A") (A') (A') (A") (A') (A")
                 (A') (A') (A') (A') (A') (A') (A') (A') (A') (A")
                 (A') (A') (A') (A") (A") (A') (A') (A') (A') (A")
                 (A') (A") (A") (A') (A') (A") (A') (A") (A') (A')
                 (A') (A') (A") (A') (A') (A") (A") (A') (A') (A')
                 (A') (A') (A') (A')
 Harris functional with IExCor= 1009 diagonalized for initial guess.
 ExpMin= 8.45D-02 ExpMax= 5.48D+03 ExpMxC= 8.25D+02 IAcc=2 IRadAn=         0 AccDes= 0.00D+00
 HarFok:  IExCor= 1009 AccDes= 0.00D+00 IRadAn=         0 IDoV= 1
 ScaDFX=  1.000000  1.000000  1.000000  1.000000
 FoFCou: FMM=F IPFlag=           0 FMFlag=      100000 FMFlg1=           0
         NFxFlg=           0 DoJE=T BraDBF=F KetDBF=T FulRan=T
         Omega=  0.000000  0.000000  1.000000  0.000000  0.000000 ICntrl=     500 IOpCl=  0
         NMat0=    1 NMatS0=    1 NMatT0=    0 NMatD0=    1 NMtDS0=    0 NMtDT0=    0
         I1Cent=           4 NGrid=           0.
 Petite list used in FoFCou.
 Requested convergence on RMS density matrix=1.00D-08 within 128 cycles.
 Requested convergence on MAX density matrix=1.00D-06.
 Requested convergence on             energy=1.00D-06.
 No special actions if energy rises.
 Keep R1 ints in memory in canonical form, NReq=3551390.
 Integral accuracy reduced to 1.0D-05 until final iterations.
 Initial convergence to 1.0D-05 achieved.  Increase integral accuracy.
 SCF Done:  E(RM062X) =  -226.600792993     A.U. after   14 cycles
             Convg  =    0.4601D-08             -V/T =  2.0079
 Calling FoFJK, ICntrl=      2127 FMM=F ISym2X=1 I1Cent= 0 IOpClX= 0 NMat=1 NMatS=1 NMatT=0.
 ***** Axes restored to original set *****
 -------------------------------------------------------------------
 Center     Atomic                   Forces (Hartrees/Bohr)
 Number     Number              X              Y              Z
 -------------------------------------------------------------------
      1        8          -0.037945441   -0.008069793    0.000000000
      2        1          -0.007379047    0.022332121    0.000000000
      3        8           0.038609732    0.006957075    0.000000000
      4        8           0.007597504   -0.020038679    0.000000000
      5        1          -0.000882747   -0.001180724    0.000000000
 -------------------------------------------------------------------
 Cartesian Forces:  Max     0.038609732 RMS     0.016449333

 GradGradGradGradGradGradGradGradGradGradGradGradGradGradGradGradGradGrad
 Berny optimization.
 Internal  Forces:  Max     0.039208040 RMS     0.015045389
 Search for a saddle point.
 Step number   7 out of a maximum of  100
 All quantities printed in internal units (Hartrees-Bohrs-Radians)
 Swaping is turned off.
 Update second derivatives using D2CorX and points    5    6    7
 The second derivative matrix:
                          R1        R2        R3        R4        A1
           R1          -0.03143
           R2          -0.10300   0.56272
           R3           0.05554  -0.01911   0.39234
           R4          -0.00102   0.00109  -0.00493   0.56745
           A1           0.00978   0.02366  -0.00281  -0.00073   0.07597
           A2           0.00856   0.01583   0.02132   0.01584  -0.00560
           A3           0.01182   0.01882  -0.00675   0.00013  -0.01624
           A4           0.00000   0.00000   0.00000   0.00000   0.00000
           D1           0.00000   0.00000   0.00000   0.00000   0.00000
                          A2        A3        A4        D1
           A2           0.09487
           A3           0.00891   0.02114
           A4           0.00000   0.00000  -0.07271
           D1           0.00000   0.00000  -0.03057  -0.01140
     Eigenvalues ---   -0.08534  -0.06020   0.00124   0.01922   0.07706
     Eigenvalues ---    0.09696   0.39602   0.56778   0.58621
 Eigenvectors required to have negative eigenvalues:
                          A4        D1        R1        A3        R3
   1                    0.92416   0.38201   0.00000   0.00000   0.00000
                          A1        R2        R4        A2
   1                    0.00000   0.00000   0.00000   0.00000
 RFO step:  Lambda0=6.938893904D-18 Lambda=-6.20608749D-02.
 Linear search not attempted -- option 19 set.
 Maximum step size (   0.300) exceeded in Quadratic search.
    -- Step size scaled by   0.398
 Iteration  1 RMS(Cart)=  0.06456505 RMS(Int)=  0.02600706
 Iteration  2 RMS(Cart)=  0.02693828 RMS(Int)=  0.00002272
 Iteration  3 RMS(Cart)=  0.00002819 RMS(Int)=  0.00000001
 Iteration  4 RMS(Cart)=  0.00000000 RMS(Int)=  0.00000000
 ClnCor:  largest displacement from symmetrization is 2.22D-08 for atom     2.
 Variable       Old X    -DE/DX   Delta X   Delta X   Delta X     New X
                                 (Linear)    (Quad)   (Total)
    R1        3.88979   0.00130   0.00000   0.27750   0.27750   4.16729
    R2        2.22143   0.03921   0.00000   0.07196   0.07196   2.29339
    R3        1.86515  -0.02219   0.00000  -0.04971  -0.04971   1.81544
    R4        1.81538   0.00080   0.00000   0.00086   0.00086   1.81624
    A1        1.84955  -0.00039   0.00000  -0.03856  -0.03856   1.81099
    A2        1.86416  -0.00218   0.00000  -0.01819  -0.01819   1.84597
    A3        2.93030  -0.00062   0.00000  -0.05936  -0.05936   2.87094
    A4        3.14159   0.00000   0.00000   0.00000   0.00000   3.14159
    D1        3.14159   0.00000   0.00000   0.00000   0.00000   3.14159
         Item               Value     Threshold  Converged?
 Maximum Force            0.039208     0.000450     NO 
 RMS     Force            0.015045     0.000300     NO 
 Maximum Displacement     0.158683     0.001800     NO 
 RMS     Displacement     0.086372     0.001200     NO 
 Predicted change in Energy=-6.839033D-03
 GradGradGradGradGradGradGradGradGradGradGradGradGradGradGradGradGradGrad

                          Input orientation:                          
 ---------------------------------------------------------------------
 Center     Atomic      Atomic             Coordinates (Angstroms)
 Number     Number       Type             X           Y           Z
 ---------------------------------------------------------------------
      1          8           0       -0.945895   -0.058590    0.000000
      2          1           0       -1.935809    1.911976    0.000000
      3          8           0        0.237035    0.212564    0.000000
      4          8           0       -2.121838    2.854482    0.000000
      5          1           0       -3.079854    2.931576    0.000000
 ---------------------------------------------------------------------
                    Distance matrix (angstroms):
                    1          2          3          4          5
     1  O    0.000000
     2  H    2.205235   0.000000
     3  O    1.213610   2.758487   0.000000
     4  O    3.141470   0.960689   3.541753   0.000000
     5  H    3.673537   1.532457   4.288914   0.961113   0.000000
 Stoichiometry    H2O3
 Framework group  CS[SG(H2O3)]
 Deg. of freedom     7
 Full point group                 CS      NOp   2
 Largest Abelian subgroup         CS      NOp   2
 Largest concise Abelian subgroup C1      NOp   1
                         Standard orientation:                         
 ---------------------------------------------------------------------
 Center     Atomic      Atomic             Coordinates (Angstroms)
 Number     Number       Type             X           Y           Z
 ---------------------------------------------------------------------
      1          8           0        0.000000    1.176492    0.000000
      2          1           0       -0.787280   -0.883424    0.000000
      3          8           0        1.204161    1.025350    0.000000
      4          8           0       -0.877840   -1.839835    0.000000
      5          1           0       -1.823292   -2.012627    0.000000
 ---------------------------------------------------------------------
 Rotational constants (GHZ):     46.7395767      3.9998744      3.6845577
 Standard basis: 6-31+G(d,p) (6D, 7F)
 There are    50 symmetry adapted basis functions of A'  symmetry.
 There are    17 symmetry adapted basis functions of A"  symmetry.
 Integral buffers will be    262144 words long.
 Raffenetti 2 integral format.
 Two-electron integral symmetry is turned on.
    67 basis functions,   110 primitive gaussians,    67 cartesian basis functions
    13 alpha electrons       13 beta electrons
       nuclear repulsion energy        62.9998659139 Hartrees.
 NAtoms=    5 NActive=    5 NUniq=    5 SFac= 7.50D-01 NAtFMM=   80 NAOKFM=F Big=F
 One-electron integrals computed using PRISM.
 NBasis=    67 RedAO= T  NBF=    50    17
 NBsUse=    67 1.00D-06 NBFU=    50    17
 Initial guess read from the read-write file.
 B after Tr=     0.000000    0.000000    0.000000
         Rot=    1.000000    0.000000    0.000000    0.000000 Ang=   0.00 deg.
 Initial guess orbital symmetries:
       Occupied  (A') (A') (A') (A') (A') (A') (A') (A') (A") (A')
                 (A') (A") (A')
       Virtual   (A") (A') (A') (A') (A") (A') (A') (A") (A') (A")
                 (A') (A') (A') (A') (A') (A') (A') (A') (A') (A")
                 (A') (A') (A') (A") (A") (A') (A') (A') (A') (A")
                 (A") (A') (A") (A') (A') (A') (A") (A") (A') (A')
                 (A') (A') (A') (A") (A") (A') (A") (A') (A') (A')
                 (A') (A') (A') (A')
[...]
 End of Minotr Frequency-dependent properties file   722 does not exist.

 **********************************************************************

            Population analysis using the SCF density.

 **********************************************************************

 Orbital symmetries:
       Occupied  (A') (A') (A') (A') (A') (A') (A') (A') (A") (A')
                 (A') (A") (A')
       Virtual   (A") (A') (A') (A') (A") (A') (A') (A') (A") (A")
                 (A') (A') (A') (A') (A') (A') (A') (A') (A') (A")
                 (A') (A') (A') (A") (A") (A') (A') (A') (A') (A")
                 (A") (A') (A") (A') (A') (A') (A") (A") (A') (A')
                 (A') (A') (A') (A") (A') (A") (A") (A') (A') (A')
                 (A') (A') (A') (A')
 The electronic state is 1-A'.
 Alpha  occ. eigenvalues --  -19.82758 -19.82577 -19.64297  -1.44883  -1.12826
 Alpha  occ. eigenvalues --   -0.92896  -0.64595  -0.63771  -0.61527  -0.59924
 Alpha  occ. eigenvalues --   -0.46228  -0.39086  -0.35405
 Alpha virt. eigenvalues --   -0.13036   0.06063   0.10151   0.11101   0.13382
 Alpha virt. eigenvalues --    0.17569   0.18551   0.20590   0.20773   0.21782
 Alpha virt. eigenvalues --    0.23134   0.28412   0.30104   0.31173   0.34036
 Alpha virt. eigenvalues --    0.39400   1.02428   1.02804   1.07678   1.11175
 Alpha virt. eigenvalues --    1.11899   1.14090   1.17431   1.18146   1.20535
 Alpha virt. eigenvalues --    1.21911   1.22799   1.33029   1.38924   1.54268
 Alpha virt. eigenvalues --    1.56670   1.56769   1.57572   1.60561   1.64592
 Alpha virt. eigenvalues --    1.67407   1.69775   1.97451   1.98965   2.29558
 Alpha virt. eigenvalues --    2.32015   2.55128   2.58320   2.61336   2.65968
 Alpha virt. eigenvalues --    2.68416   2.68601   2.95727   3.08472   3.44301
 Alpha virt. eigenvalues --    3.58897   3.73622   4.01087   4.11852
          Condensed to atoms (all electrons):
              1          2          3          4          5
     1  O    7.685695   0.007330   0.342640   0.000923  -0.001260
     2  H    0.007330   0.365944  -0.005539   0.279590  -0.021852
     3  O    0.342640  -0.005539   7.613753   0.004479   0.000527
     4  O    0.000923   0.279590   0.004479   8.190694   0.280131
     5  H   -0.001260  -0.021852   0.000527   0.280131   0.369978
 Mulliken atomic charges:
              1
     1  O   -0.035328
     2  H    0.374527
     3  O    0.044140
     4  O   -0.755817
     5  H    0.372477
 Sum of Mulliken atomic charges =   0.00000
 Mulliken charges with hydrogens summed into heavy atoms:
              1
     1  O   -0.035328
     3  O    0.044140
     4  O   -0.008812
 Sum of Mulliken charges with hydrogens summed into heavy atoms =   0.00000
 APT atomic charges:
              1
     1  O   -0.047520
     2  H    0.337619
     3  O    0.037727
     4  O   -0.627092
     5  H    0.299267
 Sum of APT charges=   0.00000
 APT Atomic charges with hydrogens summed into heavy atoms:
              1
     1  O   -0.047520
     2  H    0.000000
     3  O    0.037727
     4  O    0.009794
     5  H    0.000000
 Sum of APT charges=   0.00000
 Electronic spatial extent (au):  <R**2>=            263.5374
 Charge=              0.0000 electrons
 Dipole moment (field-independent basis, Debye):
    X=              1.9021    Y=              0.7355    Z=              0.0000  Tot=              2.0393
 Quadrupole moment (field-independent basis, Debye-Ang):
   XX=            -19.8948   YY=            -12.2227   ZZ=            -17.0121
   XY=              2.0373   XZ=              0.0000   YZ=              0.0000
 Traceless Quadrupole moment (field-independent basis, Debye-Ang):
   XX=             -3.5183   YY=              4.1539   ZZ=             -0.6356
   XY=              2.0373   XZ=              0.0000   YZ=              0.0000
 Octapole moment (field-independent basis, Debye-Ang**2):
  XXX=              3.6194  YYY=             20.0133  ZZZ=              0.0000  XYY=             -0.9105
  XXY=             -2.3363  XXZ=              0.0000  XZZ=              1.9082  YZZ=             -3.3326
  YYZ=              0.0000  XYZ=              0.0000
 Hexadecapole moment (field-independent basis, Debye-Ang**3):
 XXXX=            -76.1633 YYYY=           -146.3315 ZZZZ=            -13.7863 XXXY=             43.1258
 XXXZ=              0.0000 YYYX=             28.8725 YYYZ=              0.0000 ZZZX=              0.0000
 ZZZY=              0.0000 XXYY=            -47.9846 XXZZ=            -14.4863 YYZZ=            -37.9959
 XXYZ=              0.0000 YYXZ=              0.0000 ZZXY=             13.8310
 N-N= 6.525061474824D+01 E-N=-6.650199897492D+02  KE= 2.247843952652D+02
 Symmetry A'   KE= 2.159262404484D+02
 Symmetry A"   KE= 8.858154816776D+00
  Exact polarizability:  17.111   1.707  17.411   0.000   0.000  11.599
 Approx polarizability:  21.649   4.795  18.284   0.000   0.000  12.226
 Calling FoFJK, ICntrl=    100127 FMM=F ISym2X=1 I1Cent= 0 IOpClX= 0 NMat=1 NMatS=1 NMatT=0.
 Full mass-weighted force constant matrix:
 Low frequencies ---  -34.0439   -0.0019   -0.0017   -0.0014   14.3797   26.8430
 Low frequencies ---   79.8087  158.2319  173.4735
 Diagonal vibrational polarizability:
       25.9283614      71.7443381     227.0139158
 Harmonic frequencies (cm**-1), IR intensities (KM/Mole), Raman scattering
 activities (A**4/AMU), depolarization ratios for plane and unpolarized
 incident light, reduced masses (AMU), force constants (mDyne/A),
 and normal coordinates:
                     1                      2                      3
                    A'                     A'                     A"
 Frequencies --    79.3720               157.6316               171.9884
 Red. masses --     9.2622                12.9647                 1.1442
 Frc consts  --     0.0344                 0.1898                 0.0199
 IR Inten    --     7.2333                 0.1693               214.5112
  Atom  AN      X      Y      Z        X      Y      Z        X      Y      Z
     1   8    -0.05  -0.06   0.00    -0.47   0.56   0.00     0.00   0.00   0.03
     2   1    -0.39   0.04   0.00     0.41  -0.01   0.00     0.00   0.00  -0.12
     3   8     0.22  -0.47   0.00     0.12  -0.33   0.00     0.00   0.00  -0.04
     4   8    -0.16   0.50   0.00     0.32  -0.21   0.00     0.00   0.00   0.08
     5   1     0.35   0.41   0.00     0.06  -0.17   0.00     0.00   0.00  -0.99
                     4                      5                      6
                    A'                     A"                     A'
 Frequencies --   239.5896               286.1258              1603.7859
 Red. masses --     1.0471                 1.0432                 1.0818
 Frc consts  --     0.0354                 0.0503                 1.6394
 IR Inten    --   139.2960                96.9127                96.0877
  Atom  AN      X      Y      Z        X      Y      Z        X      Y      Z
     1   8     0.00   0.03   0.00     0.00   0.00   0.03     0.00   0.00   0.00
     2   1    -0.33  -0.63   0.00     0.00   0.00  -0.98     0.32   0.65   0.00
     3   8     0.00   0.03   0.00     0.00   0.00  -0.01     0.00   0.00   0.00
     4   8    -0.02  -0.01   0.00     0.00   0.00   0.03    -0.06  -0.03   0.00
     5   1     0.69  -0.14   0.00     0.00   0.00   0.18     0.68  -0.12   0.00
                     7                      8                      9
                    A'                     A'                     A'
 Frequencies --  1767.3452              3875.9202              4003.6195
 Red. masses --    15.8616                 1.0453                 1.0826
 Frc consts  --    29.1904                 9.2519                10.2237
 IR Inten    --     0.1209                35.4023               129.6083
  Atom  AN      X      Y      Z        X      Y      Z        X      Y      Z
     1   8     0.59   0.39   0.00     0.00   0.00   0.00     0.00   0.00   0.00
     2   1     0.03   0.07   0.00     0.70  -0.39   0.00     0.53  -0.25   0.00
     3   8    -0.59  -0.39   0.00     0.00   0.00   0.00     0.00   0.00   0.00
     4   8     0.00   0.00   0.00    -0.05  -0.01   0.00    -0.02   0.07   0.00
     5   1     0.06  -0.01   0.00     0.07   0.59   0.00    -0.13  -0.80   0.00

 -------------------
 - Thermochemistry -
 -------------------
 Temperature   298.150 Kelvin.  Pressure   1.00000 Atm.
 Atom     1 has atomic number  8 and mass  15.99491
 Atom     2 has atomic number  1 and mass   1.00783
 Atom     3 has atomic number  8 and mass  15.99491
 Atom     4 has atomic number  8 and mass  15.99491
 Atom     5 has atomic number  1 and mass   1.00783
 Molecular mass:    50.00039 amu.
 Principal axes and moments of inertia in atomic units:
                           1         2         3
     Eigenvalues --    42.08925 380.02628 422.11553
           X           -0.40875   0.91265   0.00000
           Y            0.91265   0.40875   0.00000
           Z            0.00000   0.00000   1.00000
 This molecule is an asymmetric top.
 Rotational symmetry number  1.
 Rotational temperatures (Kelvin)      2.05786     0.22792     0.20519
 Rotational constants (GHZ):          42.87892     4.74899     4.27547
 Zero-point vibrational energy      72884.7 (Joules/Mol)
                                   17.41987 (Kcal/Mol)
 Warning -- explicit consideration of   5 degrees of freedom as
           vibrations may cause significant error
 Vibrational temperatures:    114.20   226.80   247.45   344.72   411.67
          (Kelvin)           2307.49  2542.81  5576.58  5760.31
 
 Zero-point correction=                           0.027760 (Hartree/Particle)
 Thermal correction to Energy=                    0.033548
 Thermal correction to Enthalpy=                  0.034492
 Thermal correction to Gibbs Free Energy=        -0.000331
 Sum of electronic and zero-point Energies=           -226.574619
 Sum of electronic and thermal Energies=              -226.568832
 Sum of electronic and thermal Enthalpies=            -226.567888
 Sum of electronic and thermal Free Energies=         -226.602711
 
                     E (Thermal)             CV                S
                      KCal/Mol        Cal/Mol-Kelvin    Cal/Mol-Kelvin
 Total                   21.052             15.256             73.292
 Electronic               0.000              0.000              0.000
 Translational            0.889              2.981             37.652
 Rotational               0.889              2.981             23.428
 Vibrational             19.274              9.294             12.212
 Vibration     1          0.600              1.963              3.906
 Vibration     2          0.621              1.894              2.578
 Vibration     3          0.626              1.877              2.414
 Vibration     4          0.657              1.780              1.806
 Vibration     5          0.684              1.699              1.497
                       Q            Log10(Q)             Ln(Q)
 Total Bot       0.142031D+01          0.152384          0.350878
 Total V=0       0.834112D+13         12.921224         29.752218
 Vib (Bot)       0.347468D-11        -11.459086        -26.385520
 Vib (Bot)    1  0.259491D+01          0.414123          0.953554
 Vib (Bot)    2  0.128345D+01          0.108378          0.249549
 Vib (Bot)    3  0.117098D+01          0.068549          0.157839
 Vib (Bot)    4  0.818556D+00         -0.086952         -0.200213
 Vib (Bot)    5  0.669758D+00         -0.174082         -0.400838
 Vib (V=0)       0.204058D+02          1.309754          3.015821
 Vib (V=0)    1  0.314265D+01          0.497296          1.145065
 Vib (V=0)    2  0.187740D+01          0.273557          0.629889
 Vib (V=0)    3  0.177326D+01          0.248772          0.572819
 Vib (V=0)    4  0.145918D+01          0.164110          0.377877
 Vib (V=0)    5  0.133581D+01          0.125744          0.289537
 Electronic      0.100000D+01          0.000000          0.000000
 Translational   0.138968D+08          7.142915         16.447170
 Rotational      0.294140D+05          4.468554         10.289227
 ***** Axes restored to original set *****
 -------------------------------------------------------------------
 Center     Atomic                   Forces (Hartrees/Bohr)
 Number     Number              X              Y              Z
 -------------------------------------------------------------------
      1        8           0.000013090    0.000002968    0.000000000
      2        1           0.000002652    0.000000574    0.000000000
      3        8          -0.000002058    0.000003637    0.000000000
      4        8          -0.000013322    0.000001485    0.000000000
      5        1          -0.000000362   -0.000008663    0.000000000
 -------------------------------------------------------------------
 Cartesian Forces:  Max     0.000013322 RMS     0.000005537

 GradGradGradGradGradGradGradGradGradGradGradGradGradGradGradGradGradGrad
 Berny optimization.
 Internal  Forces:  Max     0.000007476 RMS     0.000004213
 Search for a saddle point.
 Step number   1 out of a maximum of    2
 All quantities printed in internal units (Hartrees-Bohrs-Radians)
 Swaping is turned off.
 Second derivative matrix not updated -- analytic derivatives used.
 The second derivative matrix:
                          R1        R2        R3        R4        A1
           R1           0.00590
           R2          -0.00088   0.94675
           R3           0.00327   0.00038   0.55385
           R4          -0.00015  -0.00012  -0.00715   0.56342
           A1           0.00049   0.00640  -0.00133   0.00049   0.02229
           A2           0.00164  -0.00124   0.02726   0.02863  -0.00424
           A3           0.00173  -0.00159   0.00146   0.00028   0.00349
           A4           0.00000   0.00000   0.00000   0.00000   0.00000
           D1           0.00000   0.00000   0.00000   0.00000   0.00000
                          A2        A3        A4        D1
           A2           0.14912
           A3           0.00117   0.00608
           A4           0.00000   0.00000   0.00354
           D1           0.00000   0.00000   0.00097   0.00161
     Eigenvalues ---    0.00121   0.00394   0.00399   0.00715   0.02289
     Eigenvalues ---    0.14544   0.55345   0.56769   0.94680
 Eigenvectors required to have negative eigenvalues:
                          D1        A4        A1        R1        A3
   1                    0.92383  -0.38281   0.00000   0.00000   0.00000
                          R2        R4        A2        R3
   1                    0.00000   0.00000   0.00000   0.00000
 Eigenvalue     1 is   1.21D-03 should be less than     0.000000 Eigenvector:
                          D1        A4        A1        R1        A3
   1                    0.92383  -0.38281   0.00000   0.00000   0.00000
                          R2        R4        A2        R3
   1                    0.00000   0.00000   0.00000   0.00000
 Angle between quadratic step and forces=  53.50 degrees.
 Linear search not attempted -- option 19 set.
 Iteration  1 RMS(Cart)=  0.00075586 RMS(Int)=  0.00000039
 Iteration  2 RMS(Cart)=  0.00000048 RMS(Int)=  0.00000000
 ClnCor:  largest displacement from symmetrization is 8.22D-10 for atom     2.
 Variable       Old X    -DE/DX   Delta X   Delta X   Delta X     New X
                                 (Linear)    (Quad)   (Total)
    R1        4.11751   0.00000   0.00000   0.00003   0.00003   4.11753
    R2        2.26039  -0.00001   0.00000   0.00000   0.00000   2.26038
    R3        1.82035   0.00000   0.00000   0.00000   0.00000   1.82035
    R4        1.81689  -0.00001   0.00000  -0.00001  -0.00001   1.81688
    A1        1.68536   0.00000   0.00000  -0.00021  -0.00021   1.68515
    A2        1.85679   0.00000   0.00000  -0.00003  -0.00003   1.85676
    A3        2.49669   0.00001   0.00000   0.00135   0.00135   2.49804
    A4        3.14159   0.00000   0.00000   0.00000   0.00000   3.14159
    D1        3.14159   0.00000   0.00000   0.00000   0.00000   3.14159
         Item               Value     Threshold  Converged?
 Maximum Force            0.000007     0.000450     YES
 RMS     Force            0.000004     0.000300     YES
 Maximum Displacement     0.001336     0.001800     YES
 RMS     Displacement     0.000756     0.001200     YES
 Predicted change in Energy=-5.129024D-09
 Optimization completed.
    -- Stationary point found.
                           ----------------------------
                           !   Optimized Parameters   !
                           ! (Angstroms and Degrees)  !
 --------------------------                            --------------------------
 ! Name  Definition              Value          Derivative Info.                !
 --------------------------------------------------------------------------------
 ! R1    R(1,2)                  2.1789         -DE/DX =    0.0                 !
 ! R2    R(1,3)                  1.1961         -DE/DX =    0.0                 !
 ! R3    R(2,4)                  0.9633         -DE/DX =    0.0                 !
 ! R4    R(4,5)                  0.9615         -DE/DX =    0.0                 !
 ! A1    A(2,1,3)               96.5643         -DE/DX =    0.0                 !
 ! A2    A(2,4,5)              106.386          -DE/DX =    0.0                 !
 ! A3    L(1,2,4,3,-1)         143.05           -DE/DX =    0.0                 !
 ! A4    L(1,2,4,3,-2)         180.0            -DE/DX =    0.0                 !
 ! D1    D(3,1,4,5)            180.0            -DE/DX =    0.0                 !
 --------------------------------------------------------------------------------
 GradGradGradGradGradGradGradGradGradGradGradGradGradGradGradGradGradGrad

 1|1|UNPC-DESKTOP-319GPER|Freq|RM062X|6-31+G(d,p)|H2O3|SAGAD|08-Feb-202
 1|0||#N Geom=AllCheck Guess=TCheck SCRF=Check GenChk RM062X/6-31+G(d,p
 ) Freq||ts2||0,1|O,-0.9257037631,-0.0868819791,0.|H,-2.1035630166,1.74
 62066268,0.|O,0.1479288326,0.4404489009,0.|O,-2.0325594764,2.706874579
 6,0.|H,-2.9324629064,3.0453601218,0.||Version=IA32W-G09RevA.02|State=1
 -A'|HF=-226.6023795|RMSD=1.482e-009|RMSF=5.537e-006|ZeroPoint=0.027760
 3|Thermal=0.0335477|Dipole=-0.6307529,-0.4958693,0.|DipoleDeriv=-0.063
 9303,0.0163225,0.,0.0371857,-0.0717935,0.,0.,0.,-0.0068373,0.3239735,-
 0.131664,0.,-0.154379,0.3124685,0.,0.,0.,0.3764137,0.0389182,0.0212705
 ,0.,0.0176465,0.0475335,0.,0.,0.,0.0267287,-0.4702515,0.0822969,0.,0.1
 073393,-0.6194023,0.,0.,0.,-0.7916221,0.17129,0.0117742,0.,-0.0077927,
 0.3311938,0.,0.,0.,0.3953169|Polar=18.8305256,0.6862105,15.6911824,0.,
 -0.0000001,11.5994211|PG=CS [SG(H2O3)]|NImag=0||0.76461128,0.36802982,
 0.18992779,0.,0.,0.00044543,0.00127015,-0.00031926,0.,0.05022875,0.002
 72752,-0.00083509,0.,0.02263658,0.55171305,0.,0.,-0.00119447,0.,0.,0.0
 0298884,-0.76417284,-0.36946407,0.,-0.00310102,-0.00191651,0.,0.765520
 78,-0.37193976,-0.18551089,0.,0.00080928,-0.00073462,0.,0.37113757,0.1
 8588303,0.,0.,0.00024678,0.,0.,0.00022255,0.,0.,-0.00038837,-0.0020286
 3,0.00248035,0.,-0.04839801,-0.01198462,0.,0.00190692,-0.00021513,0.,0
 .53745626,0.00032639,-0.00232132,0.,-0.07016177,-0.53612206,0.,0.00103
 856,0.00006890,0.,-0.12584661,0.64313050,0.,0.,0.00052563,0.,0.,-0.001
 64519,0.,0.,-0.00025214,0.,0.,0.00227732,0.00032004,-0.00072684,0.,0.0
 0000012,-0.01146297,0.,-0.00015383,0.00020805,0.,-0.48893654,0.1946434
 3,0.,0.48877022,0.00085603,-0.00126048,0.,0.04703518,-0.01402127,0.,-0
 .00079555,0.00029358,0.,0.13556602,-0.10475601,0.,-0.18266167,0.119744
 19,0.,0.,-0.00002336,0.,0.,-0.00037173,0.,0.,0.00017118,0.,0.,-0.00090
 562,0.,0.,0.00112954||-0.00001309,-0.00000297,0.,-0.00000265,-0.000000
 57,0.,0.00000206,-0.00000364,0.,0.00001332,-0.00000148,0.,0.00000036,0
 .00000866,0.|||@


 "A LITTLE BIT GOES A LONG WAY"
 R.S. MULLIKEN AS QUOTED BY K. RUEDENBERG
 Job cpu time:  0 days  0 hours  0 minutes  8.0 seconds.
 File lengths (MBytes):  RWF=      6 Int=      0 D2E=      0 Chk=      1 Scr=      1
 Normal termination of Gaussian 09 at Mon Feb 08 08:16:45 2021.
