 Entering Link 1 = C:\G09W\l1.exe PID=      9108.
  
 Copyright (c) 1988,1990,1992,1993,1995,1998,2003,2009, Gaussian, Inc.
                  All Rights Reserved.
  
 This is part of the Gaussian(R) 09 program.  It is based on
 the Gaussian(R) 03 system (copyright 2003, Gaussian, Inc.),
 the Gaussian(R) 98 system (copyright 1998, Gaussian, Inc.),
 the Gaussian(R) 94 system (copyright 1995, Gaussian, Inc.),
 the Gaussian 92(TM) system (copyright 1992, Gaussian, Inc.),
 the Gaussian 90(TM) system (copyright 1990, Gaussian, Inc.),
 the Gaussian 88(TM) system (copyright 1988, Gaussian, Inc.),
 the Gaussian 86(TM) system (copyright 1986, Carnegie Mellon
 University), and the Gaussian 82(TM) system (copyright 1983,
 Carnegie Mellon University). Gaussian is a federally registered
 trademark of Gaussian, Inc.
  
 This software contains proprietary and confidential information,
 including trade secrets, belonging to Gaussian, Inc.
  
 This software is provided under written license and may be
 used, copied, transmitted, or stored only in accord with that
 written license.
  
 The following legend is applicable only to US Government
 contracts under FAR:
  
                    RESTRICTED RIGHTS LEGEND
  
 Use, reproduction and disclosure by the US Government is
 subject to restrictions as set forth in subparagraphs (a)
 and (c) of the Commercial Computer Software - Restricted
 Rights clause in FAR 52.227-19.
  
 Gaussian, Inc.
 340 Quinnipiac St., Bldg. 40, Wallingford CT 06492
  
  
 ---------------------------------------------------------------
 Warning -- This program may not be used in any manner that
 competes with the business of Gaussian, Inc. or will provide
 assistance to any competitor of Gaussian, Inc.  The licensee
 of this program is prohibited from giving any competitor of
 Gaussian, Inc. access to this program.  By using this program,
 the user acknowledges that Gaussian, Inc. is engaged in the
 business of creating and licensing software in the field of
 computational chemistry and represents and warrants to the
 licensee that it is not a competitor of Gaussian, Inc. and that
 it will not use this program in any manner prohibited above.
 ---------------------------------------------------------------
  

 Cite this work as:
 Gaussian 09, Revision A.02,
 M. J. Frisch, G. W. Trucks, H. B. Schlegel, G. E. Scuseria, 
 M. A. Robb, J. R. Cheeseman, G. Scalmani, V. Barone, B. Mennucci, 
 G. A. Petersson, H. Nakatsuji, M. Caricato, X. Li, H. P. Hratchian, 
 A. F. Izmaylov, J. Bloino, G. Zheng, J. L. Sonnenberg, M. Hada, 
 M. Ehara, K. Toyota, R. Fukuda, J. Hasegawa, M. Ishida, T. Nakajima, 
 Y. Honda, O. Kitao, H. Nakai, T. Vreven, J. A. Montgomery, Jr., 
 J. E. Peralta, F. Ogliaro, M. Bearpark, J. J. Heyd, E. Brothers, 
 K. N. Kudin, V. N. Staroverov, R. Kobayashi, J. Normand, 
 K. Raghavachari, A. Rendell, J. C. Burant, S. S. Iyengar, J. Tomasi, 
 M. Cossi, N. Rega, J. M. Millam, M. Klene, J. E. Knox, J. B. Cross, 
 V. Bakken, C. Adamo, J. Jaramillo, R. Gomperts, R. E. Stratmann, 
 O. Yazyev, A. J. Austin, R. Cammi, C. Pomelli, J. W. Ochterski, 
 R. L. Martin, K. Morokuma, V. G. Zakrzewski, G. A. Voth, 
 P. Salvador, J. J. Dannenberg, S. Dapprich, A. D. Daniels, 
 O. Farkas, J. B. Foresman, J. V. Ortiz, J. Cioslowski, 
 and D. J. Fox, Gaussian, Inc., Wallingford CT, 2009.
 
 ******************************************
 Gaussian 09:  IA32W-G09RevA.02 11-Jun-2009
                09-Feb-2021 
 ******************************************
 %chk=D:\Documents\rayGit\FQ\quimicaComputacional\proyecto\decompositionHydrogenP
 eroxide\descompositionByRadicals\gasPhase\step4\ts\Q2ST\ts\martes\top\backup\r\t
 s.chk
 %mem=1500MB
 %nprocshared=4
 Will use up to    4 processors via shared memory.
 ----------------------------------------------------------------------
 # opt=(calcfc,ts,noeigen,maxcycles=100) freq=noraman 6-31+g(d,p) m062x
 ----------------------------------------------------------------------
 1/5=1,6=100,10=4,11=1,14=-1,18=20,26=3,38=1/1,3;
 2/9=110,12=2,17=6,18=5,40=1/2;
 3/5=1,6=6,7=111,11=2,16=1,25=1,30=1,71=2,74=-55/1,2,3;
 4//1;
 5/5=2,38=5/2;
 8/6=4,10=90,11=11/1;
 11/6=1,8=1,9=11,15=111,16=1/1,2,10;
 10/6=1,7=6,13=1/2;
 6/7=2,8=2,9=2,10=2,28=1/1;
 7/10=1,18=20,25=1/1,2,3,16;
 1/5=1,6=100,10=4,11=1,14=-1,18=20/3(2);
 2/9=110/2;
 99//99;
 2/9=110/2;
 3/5=1,6=6,7=111,11=2,16=1,25=1,30=1,71=1,74=-55/1,2,3;
 4/5=5,16=3/1;
 5/5=2,38=5/2;
 7//1,2,3,16;
 1/5=1,6=100,11=1,14=-1,18=20/3(-5);
 2/9=110/2;
 6/7=2,8=2,9=2,10=2,19=2,28=1/1;
 99/9=1/99;
 ------------
 ts OOH vs OH
 ------------
 Symbolic Z-matrix:
 Charge =  0 Multiplicity = 1
 O                    -2.42784   1.18873   0. 
 O                    -1.16932   0.7906    0. 
 H                     0.01113   0.85092   0. 
 O                     0.60383  -0.13458   0. 
 H                     0.62045  -1.06499   0. 
 

 GradGradGradGradGradGradGradGradGradGradGradGradGradGradGradGradGradGrad
 Berny optimization.
 Initialization pass.
                           ----------------------------
                           !    Initial Parameters    !
                           ! (Angstroms and Degrees)  !
 --------------------------                            --------------------------
 ! Name  Definition              Value          Derivative Info.                !
 --------------------------------------------------------------------------------
 ! R1    R(1,2)                  1.32           calculate D2E/DX2 analytically  !
 ! R2    R(2,3)                  1.182          calculate D2E/DX2 analytically  !
 ! R3    R(3,4)                  1.15           calculate D2E/DX2 analytically  !
 ! R4    R(4,5)                  0.9306         calculate D2E/DX2 analytically  !
 ! A1    A(1,2,3)              159.5204         calculate D2E/DX2 analytically  !
 ! A2    A(2,3,4)              118.0982         calculate D2E/DX2 analytically  !
 ! A3    A(3,4,5)              150.0            calculate D2E/DX2 analytically  !
 ! D1    D(1,2,3,4)            180.0            calculate D2E/DX2 analytically  !
 ! D2    D(2,3,4,5)              0.0            calculate D2E/DX2 analytically  !
 --------------------------------------------------------------------------------
 Trust Radius=3.00D-01 FncErr=1.00D-07 GrdErr=1.00D-06
 Number of steps in this run= 100 maximum allowed number of steps= 100.
 Search for a saddle point of order  1.
 GradGradGradGradGradGradGradGradGradGradGradGradGradGradGradGradGradGrad

                          Input orientation:                          
 ---------------------------------------------------------------------
 Center     Atomic      Atomic             Coordinates (Angstroms)
 Number     Number       Type             X           Y           Z
 ---------------------------------------------------------------------
      1          8           0       -2.427845    1.188726    0.000000
      2          8           0       -1.169316    0.790598    0.000000
      3          1           0        0.011132    0.850916    0.000000
      4          8           0        0.603827   -0.134585    0.000000
      5          1           0        0.620446   -1.064989    0.000000
 ---------------------------------------------------------------------
                    Distance matrix (angstroms):
                    1          2          3          4          5
     1  O    0.000000
     2  O    1.320000   0.000000
     3  H    2.462260   1.181988   0.000000
     4  O    3.307897   2.000000   1.150000   0.000000
     5  H    3.790951   2.578071   2.010462   0.930553   0.000000
 Stoichiometry    H2O3
 Framework group  CS[SG(H2O3)]
 Deg. of freedom     7
 Full point group                 CS      NOp   2
 Largest Abelian subgroup         CS      NOp   2
 Largest concise Abelian subgroup C1      NOp   1
                         Standard orientation:                         
 ---------------------------------------------------------------------
 Center     Atomic      Atomic             Coordinates (Angstroms)
 Number     Number       Type             X           Y           Z
 ---------------------------------------------------------------------
      1          8           0       -0.510502    1.574727    0.000000
      2          8           0        0.000000    0.357440    0.000000
      3          1           0        0.809603   -0.503745    0.000000
      4          8           0        0.441465   -1.593229    0.000000
      5          1           0       -0.257306   -2.207759    0.000000
 ---------------------------------------------------------------------
 Rotational constants (GHZ):    373.3419384      5.3772165      5.3008685
 Standard basis: 6-31+G(d,p) (6D, 7F)
 There are    50 symmetry adapted basis functions of A'  symmetry.
 There are    17 symmetry adapted basis functions of A"  symmetry.
 Integral buffers will be    262144 words long.
 Raffenetti 2 integral format.
 Two-electron integral symmetry is turned on.
    67 basis functions,   110 primitive gaussians,    67 cartesian basis functions
    13 alpha electrons       13 beta electrons
       nuclear repulsion energy        69.3826128009 Hartrees.
 NAtoms=    5 NActive=    5 NUniq=    5 SFac= 7.50D-01 NAtFMM=   80 NAOKFM=F Big=F
 One-electron integrals computed using PRISM.
 NBasis=    67 RedAO= T  NBF=    50    17
 NBsUse=    67 1.00D-06 NBFU=    50    17
 Harris functional with IExCor= 1009 diagonalized for initial guess.
 ExpMin= 8.45D-02 ExpMax= 5.48D+03 ExpMxC= 8.25D+02 IAcc=2 IRadAn=         0 AccDes= 0.00D+00
 HarFok:  IExCor= 1009 AccDes= 0.00D+00 IRadAn=         0 IDoV= 1
 ScaDFX=  1.000000  1.000000  1.000000  1.000000
 FoFCou: FMM=F IPFlag=           0 FMFlag=      100000 FMFlg1=           0
         NFxFlg=           0 DoJE=T BraDBF=F KetDBF=T FulRan=T
         Omega=  0.000000  0.000000  1.000000  0.000000  0.000000 ICntrl=     500 IOpCl=  0
         NMat0=    1 NMatS0=    1 NMatT0=    0 NMatD0=    1 NMtDS0=    0 NMtDT0=    0
         I1Cent=           4 NGrid=           0.
 Petite list used in FoFCou.
 Initial guess orbital symmetries:
       Occupied  (A') (A') (A') (A') (A') (A') (A') (A') (A') (A")
                 (A") (A') (A')
       Virtual   (A") (A') (A') (A') (A') (A") (A') (A') (A') (A")
                 (A') (A") (A') (A') (A') (A') (A') (A') (A") (A')
                 (A') (A") (A') (A') (A") (A') (A') (A') (A") (A')
                 (A") (A') (A") (A') (A') (A") (A') (A") (A') (A')
                 (A') (A") (A') (A') (A") (A') (A") (A') (A') (A')
                 (A') (A') (A') (A')
 The electronic state of the initial guess is 1-A'.
 Requested convergence on RMS density matrix=1.00D-08 within 128 cycles.
 Requested convergence on MAX density matrix=1.00D-06.
 Requested convergence on             energy=1.00D-06.
 No special actions if energy rises.
 Keep R1 ints in memory in canonical form, NReq=3551235.
 Integral accuracy reduced to 1.0D-05 until final iterations.
 Initial convergence to 1.0D-05 achieved.  Increase integral accuracy.
 SCF Done:  E(RM062X) =  -226.468789393     A.U. after   19 cycles
             Convg  =    0.9016D-08             -V/T =  2.0085
 Range of M.O.s used for correlation:     1    67
 NBasis=    67 NAE=    13 NBE=    13 NFC=     0 NFV=     0
 NROrb=     67 NOA=    13 NOB=    13 NVA=    54 NVB=    54

 **** Warning!!: The largest alpha MO coefficient is  0.33467541D+02

 Symmetrizing basis deriv contribution to polar:
 IMax=3 JMax=2 DiffMx= 0.00D+00
 G2DrvN: will do     6 centers at a time, making    1 passes doing MaxLOS=2.
 Calling FoFCou, ICntrl=  3107 FMM=F I1Cent=   0 AccDes= 0.00D+00.
 FoFDir/FoFCou used for L=0 through L=2.
 End of G2Drv Frequency-dependent properties file   721 does not exist.
 End of G2Drv Frequency-dependent properties file   722 does not exist.
          IDoAtm=11111
          Differentiating once with respect to nuclear coordinates.
          Keep R1 ints in memory in canonical form, NReq=3416970.
          There are    18 degrees of freedom in the 1st order CPHF.  IDoFFX=5.
     12 vectors produced by pass  0 Test12= 3.90D-11 5.56D-07 XBig12= 1.54D-01 2.78D-01.
 AX will form    12 AO Fock derivatives at one time.
     12 vectors produced by pass  1 Test12= 3.90D-11 5.56D-07 XBig12= 1.64D-02 8.92D-02.
     12 vectors produced by pass  2 Test12= 3.90D-11 5.56D-07 XBig12= 1.16D-03 1.27D-02.
     12 vectors produced by pass  3 Test12= 3.90D-11 5.56D-07 XBig12= 2.25D-05 9.69D-04.
     12 vectors produced by pass  4 Test12= 3.90D-11 5.56D-07 XBig12= 4.34D-07 1.51D-04.
      9 vectors produced by pass  5 Test12= 3.90D-11 5.56D-07 XBig12= 1.42D-09 8.41D-06.
      1 vectors produced by pass  6 Test12= 3.90D-11 5.56D-07 XBig12= 6.04D-12 7.41D-07.
 Inverted reduced A of dimension    70 with in-core refinement.
 End of Minotr Frequency-dependent properties file   721 does not exist.
 End of Minotr Frequency-dependent properties file   722 does not exist.

 **********************************************************************

            Population analysis using the SCF density.

 **********************************************************************

 Orbital symmetries:
       Occupied  (A') (A') (A') (A') (A') (A') (A') (A') (A") (A')
                 (A') (A") (A')
       Virtual   (A") (A') (A') (A') (A") (A') (A') (A') (A") (A')
                 (A') (A") (A') (A') (A') (A') (A') (A') (A") (A')
                 (A') (A") (A') (A') (A') (A") (A') (A') (A") (A')
                 (A') (A") (A") (A') (A') (A') (A") (A") (A') (A')
                 (A') (A") (A') (A") (A') (A') (A") (A') (A') (A')
                 (A') (A') (A') (A')
 The electronic state is 1-A'.
 Alpha  occ. eigenvalues --  -19.84929 -19.83929 -19.62358  -1.37005  -1.10894
 Alpha  occ. eigenvalues --   -0.99662  -0.71412  -0.61250  -0.58516  -0.55309
 Alpha  occ. eigenvalues --   -0.41396  -0.36789  -0.36403
 Alpha virt. eigenvalues --   -0.18620   0.06085   0.08255   0.11618   0.14046
 Alpha virt. eigenvalues --    0.15681   0.16433   0.18615   0.20619   0.22177
 Alpha virt. eigenvalues --    0.25190   0.26423   0.29446   0.37134   0.42164
 Alpha virt. eigenvalues --    0.48211   0.88065   1.06991   1.07752   1.11929
 Alpha virt. eigenvalues --    1.12333   1.13033   1.14700   1.23153   1.25270
 Alpha virt. eigenvalues --    1.26144   1.31991   1.39676   1.40193   1.55921
 Alpha virt. eigenvalues --    1.58790   1.59339   1.61273   1.61996   1.73540
 Alpha virt. eigenvalues --    1.82961   1.86835   1.89017   1.94113   2.05626
 Alpha virt. eigenvalues --    2.23427   2.26294   2.52769   2.56657   2.57394
 Alpha virt. eigenvalues --    2.66963   2.92115   2.92540   3.38089   3.46055
 Alpha virt. eigenvalues --    3.71108   3.77733   4.16445   4.49096
          Condensed to atoms (all electrons):
              1          2          3          4          5
     1  O    7.983066   0.202216  -0.011132  -0.041385  -0.002217
     2  O    0.202216   7.802425   0.057133  -0.066987  -0.000278
     3  H   -0.011132   0.057133   0.246979   0.211192  -0.012531
     4  O   -0.041385  -0.066987   0.211192   8.355694   0.314549
     5  H   -0.002217  -0.000278  -0.012531   0.314549   0.310714
 Mulliken atomic charges:
              1
     1  O   -0.130548
     2  O    0.005491
     3  H    0.508359
     4  O   -0.773063
     5  H    0.389762
 Sum of Mulliken atomic charges =   0.00000
 Mulliken charges with hydrogens summed into heavy atoms:
              1
     1  O   -0.130548
     2  O    0.005491
     4  O    0.125058
 Sum of Mulliken charges with hydrogens summed into heavy atoms =   0.00000
 APT atomic charges:
              1
     1  O    0.247268
     2  O   -0.359160
     3  H    0.414237
     4  O   -1.045963
     5  H    0.743618
 Sum of APT charges=   0.00000
 APT Atomic charges with hydrogens summed into heavy atoms:
              1
     1  O    0.247268
     2  O   -0.359160
     3  H    0.000000
     4  O    0.111892
     5  H    0.000000
 Sum of APT charges=   0.00000
 Electronic spatial extent (au):  <R**2>=            220.1410
 Charge=              0.0000 electrons
 Dipole moment (field-independent basis, Debye):
    X=             -0.7784    Y=              0.9786    Z=              0.0000  Tot=              1.2504
 Quadrupole moment (field-independent basis, Debye-Ang):
   XX=            -17.5871   YY=            -17.7796   ZZ=            -17.3958
   XY=              3.8214   XZ=              0.0000   YZ=              0.0000
 Traceless Quadrupole moment (field-independent basis, Debye-Ang):
   XX=              0.0004   YY=             -0.1921   ZZ=              0.1917
   XY=              3.8214   XZ=              0.0000   YZ=              0.0000
 Octapole moment (field-independent basis, Debye-Ang**2):
  XXX=             -0.5040  YYY=             -2.6885  ZZZ=              0.0000  XYY=            -10.3335
  XXY=              2.0740  XXZ=              0.0000  XZZ=             -1.0051  YZZ=              3.0430
  YYZ=              0.0000  XYZ=              0.0000
 Hexadecapole moment (field-independent basis, Debye-Ang**3):
 XXXX=            -32.4693 YYYY=           -182.4159 ZZZZ=            -14.7588 XXXY=             28.6503
 XXXZ=              0.0000 YYYX=             43.3381 YYYZ=              0.0000 ZZZX=              0.0000
 ZZZY=              0.0000 XXYY=            -43.0923 XXZZ=             -7.8585 YYZZ=            -36.9396
 XXYZ=              0.0000 YYXZ=              0.0000 ZZXY=              8.9480
 N-N= 6.938261280090D+01 E-N=-6.730277347501D+02  KE= 2.245663763497D+02
 Symmetry A'   KE= 2.159427100824D+02
 Symmetry A"   KE= 8.623666267289D+00
  Exact polarizability:   0.000   0.000   0.000   0.000   0.000   0.000
 Approx polarizability:  19.367 -20.528  84.491   0.000   0.000  13.028
 Calling FoFJK, ICntrl=    100147 FMM=F ISym2X=1 I1Cent= 0 IOpClX= 0 NMat=1 NMatS=1 NMatT=0.
 ***** Axes restored to original set *****
 -------------------------------------------------------------------
 Center     Atomic                   Forces (Hartrees/Bohr)
 Number     Number              X              Y              Z
 -------------------------------------------------------------------
      1        8           0.113923743   -0.013761759    0.000000000
      2        8          -0.209300356    0.025181500    0.000000000
      3        1           0.064373308   -0.068944967    0.000000000
      4        8           0.048742475    0.085566930    0.000000000
      5        1          -0.017739169   -0.028041704    0.000000000
 -------------------------------------------------------------------
 Cartesian Forces:  Max     0.209300356 RMS     0.071788870

 GradGradGradGradGradGradGradGradGradGradGradGradGradGradGradGradGradGrad
 Berny optimization.
 Internal  Forces:  Max     0.112778341 RMS     0.062779184
 Search for a saddle point.
 Step number   1 out of a maximum of  100
 All quantities printed in internal units (Hartrees-Bohrs-Radians)
 Swaping is turned off.
 Second derivative matrix not updated -- analytic derivatives used.
 The second derivative matrix:
                          R1        R2        R3        R4        A1
           R1           0.33739
           R2           0.05287   0.19492
           R3           0.00956   0.17997   0.18943
           R4          -0.00791   0.00770  -0.01487   0.69334
           A1          -0.00344  -0.06909   0.02947   0.00131   0.03584
           A2           0.05473   0.12721   0.11028   0.00323  -0.04885
           A3           0.01287   0.03376  -0.00559   0.01245   0.01807
           D1           0.00000   0.00000   0.00000   0.00000   0.00000
           D2           0.00000   0.00000   0.00000   0.00000   0.00000
                          A2        A3        D1        D2
           A2           0.24988
           A3           0.00235  -0.04977
           D1           0.00000   0.00000  -0.02110
           D2           0.00000   0.00000   0.00966  -0.00313
     Eigenvalues ---   -0.08303  -0.02531  -0.01924   0.00108   0.07967
     Eigenvalues ---    0.14080   0.31608   0.52257   0.69418
 Eigenvectors required to have negative eigenvalues:
                          A3        A1        R2        R3        A2
   1                    0.71296  -0.44663  -0.41231   0.34740  -0.03182
                          R1        R4        D1        D2
   1                    0.02262   0.00042   0.00000   0.00000
 RFO step:  Lambda0=2.751071895D-02 Lambda=-1.03998094D-01.
 Linear search not attempted -- option 19 set.
 Maximum step size (   0.300) exceeded in Quadratic search.
    -- Step size scaled by   0.251
 Iteration  1 RMS(Cart)=  0.14719861 RMS(Int)=  0.02394565
 Iteration  2 RMS(Cart)=  0.01540327 RMS(Int)=  0.00038822
 Iteration  3 RMS(Cart)=  0.00032083 RMS(Int)=  0.00000030
 Iteration  4 RMS(Cart)=  0.00000022 RMS(Int)=  0.00000000
 ClnCor:  largest displacement from symmetrization is 7.10D-02 for atom     2.
 Variable       Old X    -DE/DX   Delta X   Delta X   Delta X     New X
                                 (Linear)    (Quad)   (Total)
    R1        2.49444  -0.11278   0.00000  -0.08217  -0.08479   2.40965
    R2        2.23363   0.09461   0.00000   0.04360   0.04240   2.27603
    R3        2.17319  -0.03328   0.00000  -0.05412  -0.05433   2.11885
    R4        1.75849   0.02776   0.00000   0.00341   0.00297   1.76146
    A1        2.78416  -0.05319   0.00000  -0.09172  -0.08483   2.69933
    A2        2.06120   0.08977   0.00000   0.06415   0.06400   2.12520
    A3        2.61799  -0.03217   0.00000   0.17488   0.17677   2.79476
    D1        3.14159   0.00000   0.00000   0.17225   0.00000   3.14159
    D2        0.00000   0.00000   0.00000  -0.07502   0.00000   0.00000
         Item               Value     Threshold  Converged?
 Maximum Force            0.112778     0.000450     NO 
 RMS     Force            0.062779     0.000300     NO 
 Maximum Displacement     0.285587     0.001800     NO 
 RMS     Displacement     0.140242     0.001200     NO 
 Predicted change in Energy=-1.889147D-02
 GradGradGradGradGradGradGradGradGradGradGradGradGradGradGradGradGradGrad

                          Input orientation:                          
 ---------------------------------------------------------------------
 Center     Atomic      Atomic             Coordinates (Angstroms)
 Number     Number       Type             X           Y           Z
 ---------------------------------------------------------------------
      1          8           0       -2.408228    1.293675    0.000000
      2          8           0       -1.246667    0.767620    0.000000
      3          1           0       -0.042417    0.788108    0.000000
      4          8           0        0.563984   -0.155011    0.000000
      5          1           0        0.771572   -1.063724    0.000000
 ---------------------------------------------------------------------
                    Distance matrix (angstroms):
                    1          2          3          4          5
     1  O    0.000000
     2  O    1.275130   0.000000
     3  H    2.419226   1.204424   0.000000
     4  O    3.306469   2.032168   1.121249   0.000000
     5  H    3.958340   2.725273   2.022835   0.932122   0.000000
 Stoichiometry    H2O3
 Framework group  CS[SG(H2O3)]
 Deg. of freedom     7
 Full point group                 CS      NOp   2
 Largest Abelian subgroup         CS      NOp   2
 Largest concise Abelian subgroup C1      NOp   1
                         Standard orientation:                         
 ---------------------------------------------------------------------
 Center     Atomic      Atomic             Coordinates (Angstroms)
 Number     Number       Type             X           Y           Z
 ---------------------------------------------------------------------
      1          8           0       -0.139234    1.643664    0.000000
      2          8           0        0.000000    0.376159    0.000000
      3          1           0        0.631255   -0.649587    0.000000
      4          8           0        0.128748   -1.651927    0.000000
      5          1           0       -0.547369   -2.293579    0.000000
 ---------------------------------------------------------------------
 Rotational constants (GHZ):    582.1325947      5.3147097      5.2666268
 Standard basis: 6-31+G(d,p) (6D, 7F)
 There are    50 symmetry adapted basis functions of A'  symmetry.
 There are    17 symmetry adapted basis functions of A"  symmetry.
 Integral buffers will be    262144 words long.
 Raffenetti 2 integral format.
 Two-electron integral symmetry is turned on.
    67 basis functions,   110 primitive gaussians,    67 cartesian basis functions
    13 alpha electrons       13 beta electrons
       nuclear repulsion energy        69.9348883169 Hartrees.
 NAtoms=    5 NActive=    5 NUniq=    5 SFac= 7.50D-01 NAtFMM=   80 NAOKFM=F Big=F
 One-electron integrals computed using PRISM.
 NBasis=    67 RedAO= T  NBF=    50    17
 NBsUse=    67 1.00D-06 NBFU=    50    17
 Initial guess read from the read-write file.
 B after Tr=     0.000000    0.000000    0.000000
         Rot=    1.000000    0.000000    0.000000    0.000000 Ang=   0.00 deg.
 Initial guess orbital symmetries:
       Occupied  (A') (A') (A') (A') (A') (A') (A') (A') (A") (A')
                 (A') (A") (A')
       Virtual   (A") (A') (A') (A') (A") (A') (A') (A') (A") (A')
                 (A') (A") (A') (A') (A') (A') (A') (A') (A") (A')
                 (A') (A") (A') (A') (A') (A") (A') (A') (A") (A')
                 (A') (A") (A") (A') (A') (A') (A") (A") (A') (A')
                 (A') (A") (A') (A") (A') (A') (A") (A') (A') (A')
                 (A') (A') (A') (A')
 Harris functional with IExCor= 1009 diagonalized for initial guess.
 ExpMin= 8.45D-02 ExpMax= 5.48D+03 ExpMxC= 8.25D+02 IAcc=2 IRadAn=         0 AccDes= 0.00D+00
 HarFok:  IExCor= 1009 AccDes= 0.00D+00 IRadAn=         0 IDoV= 1
 ScaDFX=  1.000000  1.000000  1.000000  1.000000
 FoFCou: FMM=F IPFlag=           0 FMFlag=      100000 FMFlg1=           0
         NFxFlg=           0 DoJE=T BraDBF=F KetDBF=T FulRan=T
         Omega=  0.000000  0.000000  1.000000  0.000000  0.000000 ICntrl=     500 IOpCl=  0
         NMat0=    1 NMatS0=    1 NMatT0=    0 NMatD0=    1 NMtDS0=    0 NMtDT0=    0
         I1Cent=           4 NGrid=           0.
 Petite list used in FoFCou.
 Requested convergence on RMS density matrix=1.00D-08 within 128 cycles.
 Requested convergence on MAX density matrix=1.00D-06.
 Requested convergence on             energy=1.00D-06.
 No special actions if energy rises.
 Keep R1 ints in memory in canonical form, NReq=3551239.
 Integral accuracy reduced to 1.0D-05 until final iterations.
 Initial convergence to 1.0D-05 achieved.  Increase integral accuracy.
 SCF Done:  E(RM062X) =  -226.487704054     A.U. after   18 cycles
             Convg  =    0.9425D-08             -V/T =  2.0083
 Calling FoFJK, ICntrl=      2127 FMM=F ISym2X=1 I1Cent= 0 IOpClX= 0 NMat=1 NMatS=1 NMatT=0.
 ***** Axes restored to original set *****
 -------------------------------------------------------------------
 Center     Atomic                   Forces (Hartrees/Bohr)
 Number     Number              X              Y              Z
 -------------------------------------------------------------------
      1        8           0.085287260   -0.017663942    0.000000000
      2        8          -0.167623078    0.029355701    0.000000000
      3        1           0.061848342   -0.062862784    0.000000000
      4        8           0.026467528    0.074818690    0.000000000
      5        1          -0.005980052   -0.023647665    0.000000000
 -------------------------------------------------------------------
 Cartesian Forces:  Max     0.167623078 RMS     0.058432566

 GradGradGradGradGradGradGradGradGradGradGradGradGradGradGradGradGradGrad
 Berny optimization.
 Internal  Forces:  Max     0.084977586 RMS     0.051299127
 Search for a saddle point.
 Step number   2 out of a maximum of  100
 All quantities printed in internal units (Hartrees-Bohrs-Radians)
 Swaping is turned off.
 Update second derivatives using D2CorX and points    1    2
 The second derivative matrix:
                          R1        R2        R3        R4        A1
           R1           0.35864
           R2           0.04968   0.19255
           R3           0.01858   0.18038   0.19217
           R4          -0.00813   0.00753  -0.01484   0.69333
           A1           0.00752  -0.06679   0.03167   0.00148   0.03600
           A2           0.04835   0.12446   0.10986   0.00304  -0.04700
           A3          -0.00520   0.02641  -0.00704   0.01193   0.02271
           D1           0.00000   0.00000   0.00000   0.00000   0.00000
           D2           0.00000   0.00000   0.00000   0.00000   0.00000
                          A2        A3        D1        D2
           A2           0.24698
           A3          -0.00531  -0.06994
           D1           0.00000   0.00000  -0.02110
           D2           0.00000   0.00000   0.00966  -0.00313
     Eigenvalues ---   -0.09479  -0.02678  -0.02531   0.00108   0.07997
     Eigenvalues ---    0.14408   0.33303   0.52003   0.69420
 Eigenvectors required to have negative eigenvalues:
                          A3        A1        R2        R3        R1
   1                    0.80669  -0.38956  -0.34234   0.27980   0.04303
                          A2        R4        D1        D2
   1                   -0.01237  -0.00245   0.00000   0.00000
 RFO step:  Lambda0=1.433575536D-02 Lambda=-8.25015774D-02.
 Linear search not attempted -- option 19 set.
 Maximum step size (   0.300) exceeded in Quadratic search.
    -- Step size scaled by   0.270
 Iteration  1 RMS(Cart)=  0.11539822 RMS(Int)=  0.02570298
 Iteration  2 RMS(Cart)=  0.01626187 RMS(Int)=  0.00173856
 Iteration  3 RMS(Cart)=  0.00140766 RMS(Int)=  0.00001252
 Iteration  4 RMS(Cart)=  0.00000638 RMS(Int)=  0.00000000
 Iteration  5 RMS(Cart)=  0.00000000 RMS(Int)=  0.00000000
 ClnCor:  largest displacement from symmetrization is 5.65D-02 for atom     2.
 Variable       Old X    -DE/DX   Delta X   Delta X   Delta X     New X
                                 (Linear)    (Quad)   (Total)
    R1        2.40965  -0.08498   0.00000  -0.06339  -0.06514   2.34451
    R2        2.27603   0.08214   0.00000   0.10477   0.10399   2.38002
    R3        2.11885  -0.03197   0.00000  -0.11383  -0.11386   2.00499
    R4        1.76146   0.02171   0.00000   0.00028   0.00023   1.76169
    A1        2.69933  -0.04596   0.00000  -0.02958  -0.02526   2.67406
    A2        2.12520   0.07569   0.00000   0.06977   0.06985   2.19505
    A3        2.79476  -0.01952   0.00000   0.19527   0.19577   2.99053
    D1        3.14159   0.00000   0.00000   0.12360   0.00000   3.14159
    D2        0.00000   0.00000   0.00000  -0.05383   0.00000   0.00000
         Item               Value     Threshold  Converged?
 Maximum Force            0.084978     0.000450     NO 
 RMS     Force            0.051299     0.000300     NO 
 Maximum Displacement     0.244699     0.001800     NO 
 RMS     Displacement     0.126658     0.001200     NO 
 Predicted change in Energy=-1.961281D-02
 GradGradGradGradGradGradGradGradGradGradGradGradGradGradGradGradGradGrad

                          Input orientation:                          
 ---------------------------------------------------------------------
 Center     Atomic      Atomic             Coordinates (Angstroms)
 Number     Number       Type             X           Y           Z
 ---------------------------------------------------------------------
      1          8           0       -2.398701    1.377677    0.000000
      2          8           0       -1.319369    0.765889    0.000000
      3          1           0       -0.061376    0.705286    0.000000
      4          8           0        0.516628   -0.184449    0.000000
      5          1           0        0.901061   -1.033736    0.000000
 ---------------------------------------------------------------------
                    Distance matrix (angstroms):
                    1          2          3          4          5
     1  O    0.000000
     2  O    1.240662   0.000000
     3  H    2.432118   1.259452   0.000000
     4  O    3.307473   2.067372   1.060997   0.000000
     5  H    4.086972   2.858140   1.987582   0.932244   0.000000
 Stoichiometry    H2O3
 Framework group  CS[SG(H2O3)]
 Deg. of freedom     7
 Full point group                 CS      NOp   2
 Largest Abelian subgroup         CS      NOp   2
 Largest concise Abelian subgroup C1      NOp   1
                         Standard orientation:                         
 ---------------------------------------------------------------------
 Center     Atomic      Atomic             Coordinates (Angstroms)
 Number     Number       Type             X           Y           Z
 ---------------------------------------------------------------------
      1          8           0       -0.085177    1.644276    0.000000
      2          8           0        0.000000    0.406541    0.000000
      3          1           0       -0.489083   -0.754069    0.000000
      4          8           0        0.063423   -1.659857    0.000000
      5          1           0        0.663121   -2.373608    0.000000
 ---------------------------------------------------------------------
 Rotational constants (GHZ):    858.7929534      5.2484826      5.2166016
 Standard basis: 6-31+G(d,p) (6D, 7F)
 There are    50 symmetry adapted basis functions of A'  symmetry.
 There are    17 symmetry adapted basis functions of A"  symmetry.
 Integral buffers will be    262144 words long.
 Raffenetti 2 integral format.
 Two-electron integral symmetry is turned on.
    67 basis functions,   110 primitive gaussians,    67 cartesian basis functions
    13 alpha electrons       13 beta electrons
       nuclear repulsion energy        70.3356255102 Hartrees.
 NAtoms=    5 NActive=    5 NUniq=    5 SFac= 7.50D-01 NAtFMM=   80 NAOKFM=F Big=F
 One-electron integrals computed using PRISM.
 NBasis=    67 RedAO= T  NBF=    50    17
 NBsUse=    67 1.00D-06 NBFU=    50    17
 Initial guess read from the read-write file.
 B after Tr=     0.000000    0.000000    0.000000
         Rot=    1.000000    0.000000    0.000000    0.000000 Ang=   0.00 deg.
 Initial guess orbital symmetries:
       Occupied  (A') (A') (A') (A') (A') (A') (A') (A') (A") (A')
                 (A') (A") (A')
       Virtual   (A") (A') (A') (A') (A") (A') (A') (A') (A") (A')
                 (A') (A") (A') (A') (A') (A') (A') (A') (A") (A')
                 (A") (A') (A') (A') (A') (A") (A') (A") (A') (A')
                 (A") (A') (A") (A') (A') (A') (A") (A") (A') (A')
                 (A") (A') (A') (A") (A') (A') (A') (A") (A') (A')
                 (A') (A') (A') (A')
 Harris functional with IExCor= 1009 diagonalized for initial guess.
 ExpMin= 8.45D-02 ExpMax= 5.48D+03 ExpMxC= 8.25D+02 IAcc=2 IRadAn=         0 AccDes= 0.00D+00
 HarFok:  IExCor= 1009 AccDes= 0.00D+00 IRadAn=         0 IDoV= 1
 ScaDFX=  1.000000  1.000000  1.000000  1.000000
 FoFCou: FMM=F IPFlag=           0 FMFlag=      100000 FMFlg1=           0
         NFxFlg=           0 DoJE=T BraDBF=F KetDBF=T FulRan=T
         Omega=  0.000000  0.000000  1.000000  0.000000  0.000000 ICntrl=     500 IOpCl=  0
         NMat0=    1 NMatS0=    1 NMatT0=    0 NMatD0=    1 NMtDS0=    0 NMtDT0=    0
         I1Cent=           4 NGrid=           0.
 Petite list used in FoFCou.
 Requested convergence on RMS density matrix=1.00D-08 within 128 cycles.
 Requested convergence on MAX density matrix=1.00D-06.
 Requested convergence on             energy=1.00D-06.
 No special actions if energy rises.
 Keep R1 ints in memory in canonical form, NReq=3551244.
 Integral accuracy reduced to 1.0D-05 until final iterations.
 Initial convergence to 1.0D-05 achieved.  Increase integral accuracy.
 SCF Done:  E(RM062X) =  -226.507040453     A.U. after   19 cycles
             Convg  =    0.8281D-08             -V/T =  2.0080
 Calling FoFJK, ICntrl=      2127 FMM=F ISym2X=1 I1Cent= 0 IOpClX= 0 NMat=1 NMatS=1 NMatT=0.
 ***** Axes restored to original set *****
 -------------------------------------------------------------------
 Center     Atomic                   Forces (Hartrees/Bohr)
 Number     Number              X              Y              Z
 -------------------------------------------------------------------
      1        8           0.055960623   -0.014722550    0.000000000
      2        8          -0.127992933    0.029195563    0.000000000
      3        1           0.057325614   -0.050713999    0.000000000
      4        8           0.009738487    0.052295923    0.000000000
      5        1           0.004968209   -0.016054937    0.000000000
 -------------------------------------------------------------------
 Cartesian Forces:  Max     0.127992933 RMS     0.044387084

 GradGradGradGradGradGradGradGradGradGradGradGradGradGradGradGradGradGrad
 Berny optimization.
 Internal  Forces:  Max     0.072658489 RMS     0.039560666
 Search for a saddle point.
 Step number   3 out of a maximum of  100
 All quantities printed in internal units (Hartrees-Bohrs-Radians)
 Swaping is turned off.
 Update second derivatives using D2CorX and points    1    2    3
 The second derivative matrix:
                          R1        R2        R3        R4        A1
           R1           0.38434
           R2           0.04034   0.18580
           R3           0.04794   0.17248   0.22493
           R4          -0.00739   0.00676  -0.01386   0.69333
           A1           0.01440  -0.06550   0.03854   0.00187   0.03637
           A2           0.03800   0.12163   0.09982   0.00241  -0.04729
           A3          -0.02566   0.01161  -0.02442   0.01023   0.02562
           D1           0.00000   0.00000   0.00000   0.00000   0.00000
           D2           0.00000   0.00000   0.00000   0.00000   0.00000
                          A2        A3        D1        D2
           A2           0.24686
           A3          -0.01155  -0.10250
           D1           0.00000   0.00000  -0.02110
           D2           0.00000   0.00000   0.00966  -0.00313
     Eigenvalues ---   -0.12028  -0.02589  -0.02531   0.00108   0.08282
     Eigenvalues ---    0.16496   0.34948   0.52387   0.69418
 Eigenvectors required to have negative eigenvalues:
                          A3        A1        R2        R3        R1
   1                    0.90990  -0.29069  -0.21543   0.19578   0.05282
                          R4        A2        D1        D2
   1                   -0.00518   0.00389   0.00000   0.00000
 RFO step:  Lambda0=2.119769856D-03 Lambda=-6.10311031D-02.
 Linear search not attempted -- option 19 set.
 Maximum step size (   0.300) exceeded in Quadratic search.
    -- Step size scaled by   0.274
 Iteration  1 RMS(Cart)=  0.02423449 RMS(Int)=  0.07067730
 Iteration  2 RMS(Cart)=  0.02640414 RMS(Int)=  0.03893282
 Iteration  3 RMS(Cart)=  0.02922163 RMS(Int)=  0.00889255
 Iteration  4 RMS(Cart)=  0.00342420 RMS(Int)=  0.00091105
 Iteration  5 RMS(Cart)=  0.00083031 RMS(Int)=  0.00000093
 Iteration  6 RMS(Cart)=  0.00000055 RMS(Int)=  0.00000000
 ClnCor:  largest displacement from symmetrization is 4.96D-02 for atom     2.
 Variable       Old X    -DE/DX   Delta X   Delta X   Delta X     New X
                                 (Linear)    (Quad)   (Total)
    R1        2.34451  -0.05594   0.00000  -0.03392  -0.03534   2.30917
    R2        2.38002   0.07266   0.00000   0.16719   0.16662   2.54664
    R3        2.00499  -0.02239   0.00000  -0.13326  -0.13326   1.87173
    R4        1.76169   0.01667   0.00000  -0.00040  -0.00040   1.76129
    A1        2.67406  -0.03462   0.00000   0.06762   0.07153   2.74559
    A2        2.19505   0.06071   0.00000   0.05105   0.05119   2.24624
    A3        2.99053  -0.00366   0.00000   0.13121   0.13127   3.12181
    D1        3.14159   0.00000   0.00000   0.12551   0.00000   3.14159
    D2        0.00000   0.00000   0.00000  -0.05467   0.00000   0.00000
         Item               Value     Threshold  Converged?
 Maximum Force            0.072658     0.000450     NO 
 RMS     Force            0.039561     0.000300     NO 
 Maximum Displacement     0.130180     0.001800     NO 
 RMS     Displacement     0.081501     0.001200     NO 
 Predicted change in Energy=-1.681174D-02
 GradGradGradGradGradGradGradGradGradGradGradGradGradGradGradGradGradGrad

                          Input orientation:                          
 ---------------------------------------------------------------------
 Center     Atomic      Atomic             Coordinates (Angstroms)
 Number     Number       Type             X           Y           Z
 ---------------------------------------------------------------------
      1          8           0       -2.425705    1.409003    0.000000
      2          8           0       -1.364949    0.802383    0.000000
      3          1           0       -0.027586    0.636397    0.000000
      4          8           0        0.491780   -0.206990    0.000000
      5          1           0        0.964704   -1.010127    0.000000
 ---------------------------------------------------------------------
                    Distance matrix (angstroms):
                    1          2          3          4          5
     1  O    0.000000
     2  O    1.221962   0.000000
     3  H    2.519503   1.347625   0.000000
     4  O    3.335140   2.113358   0.990477   0.000000
     5  H    4.164981   2.951690   1.922415   0.932033   0.000000
 Stoichiometry    H2O3
 Framework group  CS[SG(H2O3)]
 Deg. of freedom     7
 Full point group                 CS      NOp   2
 Largest Abelian subgroup         CS      NOp   2
 Largest concise Abelian subgroup C1      NOp   1
                         Standard orientation:                         
 ---------------------------------------------------------------------
 Center     Atomic      Atomic             Coordinates (Angstroms)
 Number     Number       Type             X           Y           Z
 ---------------------------------------------------------------------
      1          8           0       -0.050506    1.655623    0.000000
      2          8           0        0.000000    0.434705    0.000000
      3          1           0       -0.467988   -0.829051    0.000000
      4          8           0        0.041841   -1.678238    0.000000
      5          1           0        0.537303   -2.467670    0.000000
 ---------------------------------------------------------------------
 Rotational constants (GHZ):   1092.9097446      5.1229791      5.0990773
 Standard basis: 6-31+G(d,p) (6D, 7F)
 There are    50 symmetry adapted basis functions of A'  symmetry.
 There are    17 symmetry adapted basis functions of A"  symmetry.
 Integral buffers will be    262144 words long.
 Raffenetti 2 integral format.
 Two-electron integral symmetry is turned on.
    67 basis functions,   110 primitive gaussians,    67 cartesian basis functions
    13 alpha electrons       13 beta electrons
       nuclear repulsion energy        70.2594491362 Hartrees.
 NAtoms=    5 NActive=    5 NUniq=    5 SFac= 7.50D-01 NAtFMM=   80 NAOKFM=F Big=F
 One-electron integrals computed using PRISM.
 NBasis=    67 RedAO= T  NBF=    50    17
 NBsUse=    67 1.00D-06 NBFU=    50    17
 Initial guess read from the read-write file.
 B after Tr=     0.000000    0.000000    0.000000
         Rot=    1.000000    0.000000    0.000000    0.000000 Ang=   0.00 deg.
 Initial guess orbital symmetries:
       Occupied  (A') (A') (A') (A') (A') (A') (A') (A') (A") (A')
                 (A') (A") (A')
       Virtual   (A") (A') (A') (A') (A") (A') (A') (A') (A") (A')
                 (A') (A") (A') (A') (A') (A') (A') (A') (A") (A')
                 (A") (A') (A') (A') (A") (A') (A') (A") (A') (A')
                 (A") (A') (A") (A') (A') (A') (A") (A") (A') (A')
                 (A") (A') (A') (A") (A') (A') (A') (A") (A') (A')
                 (A') (A') (A') (A')
 Harris functional with IExCor= 1009 diagonalized for initial guess.
 ExpMin= 8.45D-02 ExpMax= 5.48D+03 ExpMxC= 8.25D+02 IAcc=2 IRadAn=         0 AccDes= 0.00D+00
 HarFok:  IExCor= 1009 AccDes= 0.00D+00 IRadAn=         0 IDoV= 1
 ScaDFX=  1.000000  1.000000  1.000000  1.000000
 FoFCou: FMM=F IPFlag=           0 FMFlag=      100000 FMFlg1=           0
         NFxFlg=           0 DoJE=T BraDBF=F KetDBF=T FulRan=T
         Omega=  0.000000  0.000000  1.000000  0.000000  0.000000 ICntrl=     500 IOpCl=  0
         NMat0=    1 NMatS0=    1 NMatT0=    0 NMatD0=    1 NMtDS0=    0 NMtDT0=    0
         I1Cent=           4 NGrid=           0.
 Petite list used in FoFCou.
 Requested convergence on RMS density matrix=1.00D-08 within 128 cycles.
 Requested convergence on MAX density matrix=1.00D-06.
 Requested convergence on             energy=1.00D-06.
 No special actions if energy rises.
 Keep R1 ints in memory in canonical form, NReq=3551244.
 Integral accuracy reduced to 1.0D-05 until final iterations.
 Initial convergence to 1.0D-05 achieved.  Increase integral accuracy.
 SCF Done:  E(RM062X) =  -226.522535262     A.U. after   16 cycles
             Convg  =    0.5245D-08             -V/T =  2.0076
 Calling FoFJK, ICntrl=      2127 FMM=F ISym2X=1 I1Cent= 0 IOpClX= 0 NMat=1 NMatS=1 NMatT=0.
 ***** Axes restored to original set *****
 -------------------------------------------------------------------
 Center     Atomic                   Forces (Hartrees/Bohr)
 Number     Number              X              Y              Z
 -------------------------------------------------------------------
      1        8           0.037215816   -0.008306151    0.000000000
      2        8          -0.099657729    0.024690639    0.000000000
      3        1           0.042830451   -0.025367885    0.000000000
      4        8           0.009416020    0.017485635    0.000000000
      5        1           0.010195442   -0.008502239    0.000000000
 -------------------------------------------------------------------
 Cartesian Forces:  Max     0.099657729 RMS     0.031669039

 GradGradGradGradGradGradGradGradGradGradGradGradGradGradGradGradGradGrad
 Berny optimization.
 Internal  Forces:  Max     0.063978152 RMS     0.030944444
 Search for a saddle point.
 Step number   4 out of a maximum of  100
 All quantities printed in internal units (Hartrees-Bohrs-Radians)
 Swaping is turned off.
 Update second derivatives using D2CorX and points    2    3    4
 The second derivative matrix:
                          R1        R2        R3        R4        A1
           R1           0.39112
           R2           0.03395   0.16967
           R3           0.07573   0.13699   0.33428
           R4          -0.00706   0.00608  -0.01267   0.69334
           A1           0.00852  -0.06213   0.01402   0.00156   0.04094
           A2           0.03582   0.11530   0.08719   0.00216  -0.04610
           A3          -0.02821  -0.01212  -0.04648   0.00966   0.02571
           D1           0.00000   0.00000   0.00000   0.00000   0.00000
           D2           0.00000   0.00000   0.00000   0.00000   0.00000
                          A2        A3        D1        D2
           A2           0.24434
           A3          -0.02079  -0.13299
           D1           0.00000   0.00000  -0.02110
           D2           0.00000   0.00000   0.00966  -0.00313
     Eigenvalues ---   -0.14319  -0.02531   0.00108   0.00457   0.08577
     Eigenvalues ---    0.20888   0.34369   0.54661   0.69436
 Eigenvectors required to have negative eigenvalues:
                          A3        A1        R3        R2        R1
   1                    0.97939  -0.15839   0.10398  -0.05137   0.04119
                          A2        R4        D1        D2
   1                    0.02183  -0.00878   0.00000   0.00000
 RFO step:  Lambda0=4.730478982D-04 Lambda=-3.20879272D-02.
 Linear search not attempted -- option 19 set.
 Maximum step size (   0.300) exceeded in Quadratic search.
    -- Step size scaled by   0.337
 Iteration  1 RMS(Cart)=  0.05192754 RMS(Int)=  0.00991025
 Iteration  2 RMS(Cart)=  0.00606666 RMS(Int)=  0.00018300
 Iteration  3 RMS(Cart)=  0.00017793 RMS(Int)=  0.00000013
 Iteration  4 RMS(Cart)=  0.00000008 RMS(Int)=  0.00000000
 ClnCor:  largest displacement from symmetrization is 8.18D-02 for atom     2.
 Variable       Old X    -DE/DX   Delta X   Delta X   Delta X     New X
                                 (Linear)    (Quad)   (Total)
    R1        2.30917  -0.03643   0.00000  -0.03409  -0.03808   2.27110
    R2        2.54664   0.06398   0.00000   0.14369   0.14224   2.68888
    R3        1.87173   0.00264   0.00000  -0.05147  -0.05147   1.82026
    R4        1.76129   0.01250   0.00000   0.00324   0.00324   1.76453
    A1        2.74559  -0.02604   0.00000   0.03289   0.04458   2.79017
    A2        2.24624   0.04790   0.00000   0.02447   0.02481   2.27106
    A3        3.12181   0.00786   0.00000  -0.00050  -0.00030   3.12151
    D1        3.14159   0.00000   0.00000  -0.23167   0.00000   3.14159
    D2        0.00000   0.00000   0.00000   0.10090   0.00000   0.00000
         Item               Value     Threshold  Converged?
 Maximum Force            0.063978     0.000450     NO 
 RMS     Force            0.030944     0.000300     NO 
 Maximum Displacement     0.065659     0.001800     NO 
 RMS     Displacement     0.043731     0.001200     NO 
 Predicted change in Energy=-9.117922D-03
 GradGradGradGradGradGradGradGradGradGradGradGradGradGradGradGradGradGrad

                          Input orientation:                          
 ---------------------------------------------------------------------
 Center     Atomic      Atomic             Coordinates (Angstroms)
 Number     Number       Type             X           Y           Z
 ---------------------------------------------------------------------
      1          8           0       -2.451328    1.413038    0.000000
      2          8           0       -1.399695    0.831297    0.000000
      3          1           0        0.006392    0.613232    0.000000
      4          8           0        0.506904   -0.209760    0.000000
      5          1           0        0.975970   -1.017140    0.000000
 ---------------------------------------------------------------------
                    Distance matrix (angstroms):
                    1          2          3          4          5
     1  O    0.000000
     2  O    1.201813   0.000000
     3  H    2.584585   1.422896   0.000000
     4  O    3.374109   2.172307   0.963239   0.000000
     5  H    4.201445   3.010067   1.896891   0.933748   0.000000
 Stoichiometry    H2O3
 Framework group  CS[SG(H2O3)]
 Deg. of freedom     7
 Full point group                 CS      NOp   2
 Largest Abelian subgroup         CS      NOp   2
 Largest concise Abelian subgroup C1      NOp   1
                         Standard orientation:                         
 ---------------------------------------------------------------------
 Center     Atomic      Atomic             Coordinates (Angstroms)
 Number     Number       Type             X           Y           Z
 ---------------------------------------------------------------------
      1          8           0       -0.011719    1.666131    0.000000
      2          8           0        0.000000    0.464375    0.000000
      3          1           0       -0.476755   -0.876273    0.000000
      4          8           0        0.009253   -1.707913    0.000000
      5          1           0        0.496479   -2.504466    0.000000
 ---------------------------------------------------------------------
 Rotational constants (GHZ):   1094.4981119      4.9841387      4.9615447
 Standard basis: 6-31+G(d,p) (6D, 7F)
 There are    50 symmetry adapted basis functions of A'  symmetry.
 There are    17 symmetry adapted basis functions of A"  symmetry.
 Integral buffers will be    262144 words long.
 Raffenetti 2 integral format.
 Two-electron integral symmetry is turned on.
    67 basis functions,   110 primitive gaussians,    67 cartesian basis functions
    13 alpha electrons       13 beta electrons
       nuclear repulsion energy        70.0430449913 Hartrees.
 NAtoms=    5 NActive=    5 NUniq=    5 SFac= 7.50D-01 NAtFMM=   80 NAOKFM=F Big=F
 One-electron integrals computed using PRISM.
 NBasis=    67 RedAO= T  NBF=    50    17
 NBsUse=    67 1.00D-06 NBFU=    50    17
 Initial guess read from the read-write file.
 B after Tr=     0.000000    0.000000    0.000000
         Rot=    1.000000    0.000000    0.000000    0.000000 Ang=   0.00 deg.
 Initial guess orbital symmetries:
       Occupied  (A') (A') (A') (A') (A') (A') (A') (A') (A") (A')
                 (A') (A") (A')
       Virtual   (A") (A') (A') (A') (A") (A') (A') (A") (A') (A')
                 (A") (A') (A') (A') (A') (A') (A') (A') (A") (A')
                 (A") (A') (A') (A') (A") (A') (A') (A") (A') (A')
                 (A") (A') (A") (A') (A') (A') (A") (A") (A') (A')
                 (A") (A') (A') (A") (A') (A') (A') (A") (A') (A')
                 (A') (A') (A') (A')
 Harris functional with IExCor= 1009 diagonalized for initial guess.
 ExpMin= 8.45D-02 ExpMax= 5.48D+03 ExpMxC= 8.25D+02 IAcc=2 IRadAn=         0 AccDes= 0.00D+00
 HarFok:  IExCor= 1009 AccDes= 0.00D+00 IRadAn=         0 IDoV= 1
 ScaDFX=  1.000000  1.000000  1.000000  1.000000
 FoFCou: FMM=F IPFlag=           0 FMFlag=      100000 FMFlg1=           0
         NFxFlg=           0 DoJE=T BraDBF=F KetDBF=T FulRan=T
         Omega=  0.000000  0.000000  1.000000  0.000000  0.000000 ICntrl=     500 IOpCl=  0
         NMat0=    1 NMatS0=    1 NMatT0=    0 NMatD0=    1 NMtDS0=    0 NMtDT0=    0
         I1Cent=           4 NGrid=           0.
 Petite list used in FoFCou.
 Requested convergence on RMS density matrix=1.00D-08 within 128 cycles.
 Requested convergence on MAX density matrix=1.00D-06.
 Requested convergence on             energy=1.00D-06.
 No special actions if energy rises.
 Keep R1 ints in memory in canonical form, NReq=3551244.
 Integral accuracy reduced to 1.0D-05 until final iterations.
 Initial convergence to 1.0D-05 achieved.  Increase integral accuracy.
 SCF Done:  E(RM062X) =  -226.531387246     A.U. after   15 cycles
             Convg  =    0.7318D-08             -V/T =  2.0074
 Calling FoFJK, ICntrl=      2127 FMM=F ISym2X=1 I1Cent= 0 IOpClX= 0 NMat=1 NMatS=1 NMatT=0.
 ***** Axes restored to original set *****
 -------------------------------------------------------------------
 Center     Atomic                   Forces (Hartrees/Bohr)
 Number     Number              X              Y              Z
 -------------------------------------------------------------------
      1        8           0.010840426    0.004516483    0.000000000
      2        8          -0.062394827    0.010109549    0.000000000
      3        1           0.029581769   -0.012686473    0.000000000
      4        8           0.014817125    0.003385278    0.000000000
      5        1           0.007155506   -0.005324837    0.000000000
 -------------------------------------------------------------------
 Cartesian Forces:  Max     0.062394827 RMS     0.019113383

 GradGradGradGradGradGradGradGradGradGradGradGradGradGradGradGradGradGrad
 Berny optimization.
 Internal  Forces:  Max     0.053185645 RMS     0.023757010
 Search for a saddle point.
 Step number   5 out of a maximum of  100
 All quantities printed in internal units (Hartrees-Bohrs-Radians)
 Swaping is turned off.
 Update second derivatives using D2CorX and points    3    4    5
 The second derivative matrix:
                          R1        R2        R3        R4        A1
           R1           0.44651
           R2          -0.03267   0.10495
           R3           0.13745   0.09587   0.39517
           R4          -0.00878   0.00604  -0.01412   0.69336
           A1          -0.02629  -0.05668  -0.01635   0.00211   0.05364
           A2           0.03152   0.08282   0.09108   0.00175  -0.05288
           A3          -0.03801  -0.02161  -0.05205   0.00968   0.02639
           D1           0.00000   0.00000   0.00000   0.00000   0.00000
           D2           0.00000   0.00000   0.00000   0.00000   0.00000
                          A2        A3        D1        D2
           A2           0.23487
           A3          -0.02568  -0.13518
           D1           0.00000   0.00000  -0.02110
           D2           0.00000   0.00000   0.00966  -0.00313
     Eigenvalues ---   -0.14478  -0.02531   0.00108   0.00470   0.07395
     Eigenvalues ---    0.20396   0.36114   0.59832   0.69603
 Eigenvectors required to have negative eigenvalues:
                          A3        A1        R3        R1        R2
   1                    0.99019  -0.10421   0.07122   0.04277   0.03228
                          A2        R4        D1        D2
   1                    0.02482  -0.00981   0.00000   0.00000
 RFO step:  Lambda0=9.112747005D-04 Lambda=-2.56774238D-02.
 Linear search not attempted -- option 19 set.
 Maximum step size (   0.300) exceeded in Quadratic search.
    -- Step size scaled by   0.311
 Iteration  1 RMS(Cart)=  0.06571527 RMS(Int)=  0.02241808
 Iteration  2 RMS(Cart)=  0.00573099 RMS(Int)=  0.00069975
 Iteration  3 RMS(Cart)=  0.00005603 RMS(Int)=  0.00000017
 Iteration  4 RMS(Cart)=  0.00000011 RMS(Int)=  0.00000000
 ClnCor:  largest displacement from symmetrization is 6.13D-02 for atom     2.
 Variable       Old X    -DE/DX   Delta X   Delta X   Delta X     New X
                                 (Linear)    (Quad)   (Total)
    R1        2.27110  -0.00730   0.00000   0.01908   0.01685   2.28795
    R2        2.68888   0.05319   0.00000   0.17317   0.17241   2.86129
    R3        1.82026   0.01308   0.00000  -0.03918  -0.03919   1.78107
    R4        1.76453   0.00820   0.00000   0.00168   0.00167   1.76620
    A1        2.79017  -0.02090   0.00000   0.05609   0.06377   2.85394
    A2        2.27106   0.03853   0.00000   0.01135   0.01149   2.28255
    A3        3.12151   0.00619   0.00000  -0.02283  -0.02252   3.09898
    D1        3.14159   0.00000   0.00000  -0.21367   0.00000   3.14159
    D2        0.00000   0.00000   0.00000   0.09306   0.00000   0.00000
         Item               Value     Threshold  Converged?
 Maximum Force            0.053186     0.000450     NO 
 RMS     Force            0.023757     0.000300     NO 
 Maximum Displacement     0.110471     0.001800     NO 
 RMS     Displacement     0.064233     0.001200     NO 
 Predicted change in Energy=-6.830502D-03
 GradGradGradGradGradGradGradGradGradGradGradGradGradGradGradGradGradGrad

                          Input orientation:                          
 ---------------------------------------------------------------------
 Center     Atomic      Atomic             Coordinates (Angstroms)
 Number     Number       Type             X           Y           Z
 ---------------------------------------------------------------------
      1          8           0       -2.509787    1.415242    0.000000
      2          8           0       -1.429021    0.869518    0.000000
      3          1           0        0.060662    0.598528    0.000000
      4          8           0        0.538594   -0.213806    0.000000
      5          1           0        0.977795   -1.038816    0.000000
 ---------------------------------------------------------------------
                    Distance matrix (angstroms):
                    1          2          3          4          5
     1  O    0.000000
     2  O    1.210731   0.000000
     3  H    2.697077   1.514130   0.000000
     4  O    3.456360   2.246130   0.942500   0.000000
     5  H    4.264461   3.071563   1.876707   0.934633   0.000000
 Stoichiometry    H2O3
 Framework group  CS[SG(H2O3)]
 Deg. of freedom     7
 Full point group                 CS      NOp   2
 Largest Abelian subgroup         CS      NOp   2
 Largest concise Abelian subgroup C1      NOp   1
                         Standard orientation:                         
 ---------------------------------------------------------------------
 Center     Atomic      Atomic             Coordinates (Angstroms)
 Number     Number       Type             X           Y           Z
 ---------------------------------------------------------------------
      1          8           0       -0.078788    1.698908    0.000000
      2          8           0        0.000000    0.490743    0.000000
      3          1           0        0.523130   -0.930145    0.000000
      4          8           0        0.066089   -1.754414    0.000000
      5          1           0       -0.421542   -2.551756    0.000000
 ---------------------------------------------------------------------
 Rotational constants (GHZ):    981.2364424      4.7429115      4.7200964
 Standard basis: 6-31+G(d,p) (6D, 7F)
 There are    50 symmetry adapted basis functions of A'  symmetry.
 There are    17 symmetry adapted basis functions of A"  symmetry.
 Integral buffers will be    262144 words long.
 Raffenetti 2 integral format.
 Two-electron integral symmetry is turned on.
    67 basis functions,   110 primitive gaussians,    67 cartesian basis functions
    13 alpha electrons       13 beta electrons
       nuclear repulsion energy        68.8889943337 Hartrees.
 NAtoms=    5 NActive=    5 NUniq=    5 SFac= 7.50D-01 NAtFMM=   80 NAOKFM=F Big=F
 One-electron integrals computed using PRISM.
 NBasis=    67 RedAO= T  NBF=    50    17
 NBsUse=    67 1.00D-06 NBFU=    50    17
 Initial guess read from the read-write file.
 B after Tr=     0.000000    0.000000    0.000000
         Rot=    1.000000    0.000000    0.000000    0.000000 Ang=   0.00 deg.
 Initial guess orbital symmetries:
       Occupied  (A') (A') (A') (A') (A') (A') (A') (A') (A") (A')
                 (A') (A") (A')
       Virtual   (A") (A') (A') (A') (A") (A') (A') (A") (A') (A')
                 (A") (A') (A') (A') (A') (A') (A') (A') (A") (A')
                 (A') (A") (A') (A') (A") (A') (A') (A") (A') (A')
                 (A") (A') (A") (A') (A') (A') (A") (A") (A') (A')
                 (A") (A') (A') (A") (A') (A') (A') (A") (A') (A')
                 (A') (A') (A') (A')
 Harris functional with IExCor= 1009 diagonalized for initial guess.
 ExpMin= 8.45D-02 ExpMax= 5.48D+03 ExpMxC= 8.25D+02 IAcc=2 IRadAn=         0 AccDes= 0.00D+00
 HarFok:  IExCor= 1009 AccDes= 0.00D+00 IRadAn=         0 IDoV= 1
 ScaDFX=  1.000000  1.000000  1.000000  1.000000
 FoFCou: FMM=F IPFlag=           0 FMFlag=      100000 FMFlg1=           0
         NFxFlg=           0 DoJE=T BraDBF=F KetDBF=T FulRan=T
         Omega=  0.000000  0.000000  1.000000  0.000000  0.000000 ICntrl=     500 IOpCl=  0
         NMat0=    1 NMatS0=    1 NMatT0=    0 NMatD0=    1 NMtDS0=    0 NMtDT0=    0
         I1Cent=           4 NGrid=           0.
 Petite list used in FoFCou.
 Requested convergence on RMS density matrix=1.00D-08 within 128 cycles.
 Requested convergence on MAX density matrix=1.00D-06.
 Requested convergence on             energy=1.00D-06.
 No special actions if energy rises.
 Keep R1 ints in memory in canonical form, NReq=3551244.
 Integral accuracy reduced to 1.0D-05 until final iterations.
 Initial convergence to 1.0D-05 achieved.  Increase integral accuracy.
 SCF Done:  E(RM062X) =  -226.537715585     A.U. after   18 cycles
             Convg  =    0.3649D-08             -V/T =  2.0076
 Calling FoFJK, ICntrl=      2127 FMM=F ISym2X=1 I1Cent= 0 IOpClX= 0 NMat=1 NMatS=1 NMatT=0.
 ***** Axes restored to original set *****
 -------------------------------------------------------------------
 Center     Atomic                   Forces (Hartrees/Bohr)
 Number     Number              X              Y              Z
 -------------------------------------------------------------------
      1        8           0.023752374   -0.003720013    0.000000000
      2        8          -0.064057360    0.015518676    0.000000000
      3        1           0.015539352   -0.000520296    0.000000000
      4        8           0.021358485   -0.006750222    0.000000000
      5        1           0.003407149   -0.004528145    0.000000000
 -------------------------------------------------------------------
 Cartesian Forces:  Max     0.064057360 RMS     0.019489816

 GradGradGradGradGradGradGradGradGradGradGradGradGradGradGradGradGradGrad
 Berny optimization.
 Internal  Forces:  Max     0.041769905 RMS     0.020945230
 Search for a saddle point.
 Step number   6 out of a maximum of  100
 All quantities printed in internal units (Hartrees-Bohrs-Radians)
 Swaping is turned off.
 Update second derivatives using D2CorX and points    3    4    5    6
 The second derivative matrix:
                          R1        R2        R3        R4        A1
           R1           0.44442
           R2           0.05952   0.08147
           R3           0.09961   0.03803   0.43006
           R4          -0.00796   0.00603  -0.01501   0.69337
           A1           0.00944  -0.04932  -0.04159   0.00237   0.06212
           A2           0.04338   0.07133   0.08916   0.00154  -0.05633
           A3          -0.02865  -0.00765  -0.04763   0.00968   0.02777
           D1           0.00000   0.00000   0.00000   0.00000   0.00000
           D2           0.00000   0.00000   0.00000   0.00000   0.00000
                          A2        A3        D1        D2
           A2           0.23427
           A3          -0.02096  -0.13396
           D1           0.00000   0.00000  -0.02110
           D2           0.00000   0.00000   0.00966  -0.00313
     Eigenvalues ---   -0.14203  -0.02531   0.00108   0.01758   0.07139
     Eigenvalues ---    0.22968   0.35343   0.58596   0.69573
 Eigenvectors required to have negative eigenvalues:
                          A3        A1        R3        R1        R2
   1                    0.98909  -0.12246   0.06441   0.03981  -0.02114
                          A2        R4        D1        D2
   1                    0.02096  -0.00947   0.00000   0.00000
 RFO step:  Lambda0=1.026765298D-04 Lambda=-2.53096662D-02.
 Linear search not attempted -- option 19 set.
 Maximum step size (   0.300) exceeded in Quadratic search.
    -- Step size scaled by   0.326
 Iteration  1 RMS(Cart)=  0.05629130 RMS(Int)=  0.00727941
 Iteration  2 RMS(Cart)=  0.00551932 RMS(Int)=  0.00014223
 Iteration  3 RMS(Cart)=  0.00008786 RMS(Int)=  0.00000006
 Iteration  4 RMS(Cart)=  0.00000004 RMS(Int)=  0.00000000
 ClnCor:  largest displacement from symmetrization is 5.29D-02 for atom     2.
 Variable       Old X    -DE/DX   Delta X   Delta X   Delta X     New X
                                 (Linear)    (Quad)   (Total)
    R1        2.28795  -0.02288   0.00000  -0.04071  -0.04238   2.24557
    R2        2.86129   0.04177   0.00000   0.16251   0.16194   3.02323
    R3        1.78107   0.02227   0.00000   0.01455   0.01455   1.79562
    R4        1.76620   0.00560   0.00000   0.00088   0.00087   1.76707
    A1        2.85394  -0.01688   0.00000   0.04226   0.04919   2.90313
    A2        2.28255   0.02942   0.00000   0.00332   0.00344   2.28598
    A3        3.09898   0.00157   0.00000   0.00047   0.00078   3.09976
    D1        3.14159   0.00000   0.00000   0.22443   0.00000   3.14159
    D2        0.00000   0.00000   0.00000  -0.09775   0.00000   0.00000
         Item               Value     Threshold  Converged?
 Maximum Force            0.041770     0.000450     NO 
 RMS     Force            0.020945     0.000300     NO 
 Maximum Displacement     0.079931     0.001800     NO 
 RMS     Displacement     0.056968     0.001200     NO 
 Predicted change in Energy=-6.537930D-03
 GradGradGradGradGradGradGradGradGradGradGradGradGradGradGradGradGradGrad

                          Input orientation:                          
 ---------------------------------------------------------------------
 Center     Atomic      Atomic             Coordinates (Angstroms)
 Number     Number       Type             X           Y           Z
 ---------------------------------------------------------------------
      1          8           0       -2.547795    1.414884    0.000000
      2          8           0       -1.471229    0.911816    0.000000
      3          1           0        0.097123    0.596055    0.000000
      4          8           0        0.566378   -0.230190    0.000000
      5          1           0        0.993767   -1.061898    0.000000
 ---------------------------------------------------------------------
                    Distance matrix (angstroms):
                    1          2          3          4          5
     1  O    0.000000
     2  O    1.188306   0.000000
     3  H    2.768767   1.599822   0.000000
     4  O    3.521979   2.335812   0.950200   0.000000
     5  H    4.321702   3.157808   1.884882   0.935094   0.000000
 Stoichiometry    H2O3
 Framework group  CS[SG(H2O3)]
 Deg. of freedom     7
 Full point group                 CS      NOp   2
 Largest Abelian subgroup         CS      NOp   2
 Largest concise Abelian subgroup C1      NOp   1
                         Standard orientation:                         
 ---------------------------------------------------------------------
 Center     Atomic      Atomic             Coordinates (Angstroms)
 Number     Number       Type             X           Y           Z
 ---------------------------------------------------------------------
      1          8           0       -0.149382    1.712057    0.000000
      2          8           0        0.000000    0.533177    0.000000
      3          1           0        0.570316   -0.961537    0.000000
      4          8           0        0.122203   -1.799436    0.000000
      5          1           0       -0.352883   -2.604852    0.000000
 ---------------------------------------------------------------------
 Rotational constants (GHZ):    878.7341109      4.5441860      4.5208076
 Standard basis: 6-31+G(d,p) (6D, 7F)
 There are    50 symmetry adapted basis functions of A'  symmetry.
 There are    17 symmetry adapted basis functions of A"  symmetry.
 Integral buffers will be    262144 words long.
 Raffenetti 2 integral format.
 Two-electron integral symmetry is turned on.
    67 basis functions,   110 primitive gaussians,    67 cartesian basis functions
    13 alpha electrons       13 beta electrons
       nuclear repulsion energy        68.3743529056 Hartrees.
 NAtoms=    5 NActive=    5 NUniq=    5 SFac= 7.50D-01 NAtFMM=   80 NAOKFM=F Big=F
 One-electron integrals computed using PRISM.
 NBasis=    67 RedAO= T  NBF=    50    17
 NBsUse=    67 1.00D-06 NBFU=    50    17
 Initial guess read from the read-write file.
 B after Tr=     0.000000    0.000000    0.000000
         Rot=    1.000000    0.000000    0.000000    0.000000 Ang=   0.00 deg.
 Initial guess orbital symmetries:
       Occupied  (A') (A') (A') (A') (A') (A') (A') (A') (A") (A')
                 (A') (A") (A')
       Virtual   (A") (A') (A') (A') (A") (A') (A') (A") (A') (A')
                 (A") (A') (A') (A') (A') (A') (A') (A') (A") (A')
                 (A') (A") (A') (A') (A") (A') (A') (A") (A') (A')
                 (A") (A') (A") (A') (A') (A') (A") (A') (A") (A')
                 (A") (A') (A') (A') (A") (A') (A') (A") (A') (A')
                 (A') (A') (A') (A')
 Harris functional with IExCor= 1009 diagonalized for initial guess.
 ExpMin= 8.45D-02 ExpMax= 5.48D+03 ExpMxC= 8.25D+02 IAcc=2 IRadAn=         0 AccDes= 0.00D+00
 HarFok:  IExCor= 1009 AccDes= 0.00D+00 IRadAn=         0 IDoV= 1
 ScaDFX=  1.000000  1.000000  1.000000  1.000000
 FoFCou: FMM=F IPFlag=           0 FMFlag=      100000 FMFlg1=           0
         NFxFlg=           0 DoJE=T BraDBF=F KetDBF=T FulRan=T
         Omega=  0.000000  0.000000  1.000000  0.000000  0.000000 ICntrl=     500 IOpCl=  0
         NMat0=    1 NMatS0=    1 NMatT0=    0 NMatD0=    1 NMtDS0=    0 NMtDT0=    0
         I1Cent=           4 NGrid=           0.
 Petite list used in FoFCou.
 Requested convergence on RMS density matrix=1.00D-08 within 128 cycles.
 Requested convergence on MAX density matrix=1.00D-06.
 Requested convergence on             energy=1.00D-06.
 No special actions if energy rises.
 Keep R1 ints in memory in canonical form, NReq=3551244.
 Integral accuracy reduced to 1.0D-05 until final iterations.
 Initial convergence to 1.0D-05 achieved.  Increase integral accuracy.
 SCF Done:  E(RM062X) =  -226.543278340     A.U. after   14 cycles
             Convg  =    0.8673D-08             -V/T =  2.0075
 Calling FoFJK, ICntrl=      2127 FMM=F ISym2X=1 I1Cent= 0 IOpClX= 0 NMat=1 NMatS=1 NMatT=0.
 ***** Axes restored to original set *****
 -------------------------------------------------------------------
 Center     Atomic                   Forces (Hartrees/Bohr)
 Number     Number              X              Y              Z
 -------------------------------------------------------------------
      1        8          -0.010809841    0.011688025    0.000000000
      2        8          -0.018828717   -0.002941119    0.000000000
      3        1           0.016801853   -0.010806373    0.000000000
      4        8           0.010400041    0.006361514    0.000000000
      5        1           0.002436664   -0.004302049    0.000000000
 -------------------------------------------------------------------
 Cartesian Forces:  Max     0.018828717 RMS     0.008902389

 GradGradGradGradGradGradGradGradGradGradGradGradGradGradGradGradGradGrad
 Berny optimization.
 Internal  Forces:  Max     0.030761038 RMS     0.014454577
 Search for a saddle point.
 Step number   7 out of a maximum of  100
 All quantities printed in internal units (Hartrees-Bohrs-Radians)
 Swaping is turned off.
 Update second derivatives using D2CorX and points    4    5    6    7
 The second derivative matrix:
                          R1        R2        R3        R4        A1
           R1           0.52951
           R2          -0.08941   0.04909
           R3           0.08289   0.09744   0.42833
           R4          -0.00721  -0.00052  -0.01479   0.69328
           A1          -0.04087  -0.04784  -0.02159   0.00042   0.06585
           A2           0.03810   0.06032   0.09150   0.00114  -0.05907
           A3          -0.02684  -0.00252  -0.04802   0.00989   0.02876
           D1           0.00000   0.00000   0.00000   0.00000   0.00000
           D2           0.00000   0.00000   0.00000   0.00000   0.00000
                          A2        A3        D1        D2
           A2           0.23328
           A3          -0.02032  -0.13443
           D1           0.00000   0.00000  -0.02110
           D2           0.00000   0.00000   0.00966  -0.00313
     Eigenvalues ---   -0.14307  -0.02531  -0.02182   0.00108   0.06215
     Eigenvalues ---    0.21506   0.45470   0.60206   0.69585
 Eigenvectors required to have negative eigenvalues:
                          A3        A1        R3        R2        A2
   1                    0.98510  -0.13352   0.08343  -0.06413   0.02114
                          R1        R4        D1        D2
   1                    0.01108  -0.01008   0.00000   0.00000
 RFO step:  Lambda0=8.281210557D-06 Lambda=-3.63372437D-02.
 Linear search not attempted -- option 19 set.
 Maximum step size (   0.300) exceeded in Quadratic search.
    -- Step size scaled by   0.326
 Iteration  1 RMS(Cart)=  0.05680780 RMS(Int)=  0.01817983
 Iteration  2 RMS(Cart)=  0.00751137 RMS(Int)=  0.00028555
 Iteration  3 RMS(Cart)=  0.00025981 RMS(Int)=  0.00000024
 Iteration  4 RMS(Cart)=  0.00000013 RMS(Int)=  0.00000000
 ClnCor:  largest displacement from symmetrization is 4.79D-02 for atom     2.
 Variable       Old X    -DE/DX   Delta X   Delta X   Delta X     New X
                                 (Linear)    (Quad)   (Total)
    R1        2.24557   0.01474   0.00000   0.03969   0.03834   2.28392
    R2        3.02323   0.03076   0.00000   0.16350   0.16302   3.18625
    R3        1.79562   0.00457   0.00000  -0.03460  -0.03460   1.76101
    R4        1.76707   0.00495   0.00000   0.00185   0.00184   1.76891
    A1        2.90313  -0.01361   0.00000   0.02025   0.02643   2.92956
    A2        2.28598   0.02205   0.00000   0.00263   0.00276   2.28874
    A3        3.09976   0.00029   0.00000   0.01331   0.01352   3.11329
    D1        3.14159   0.00000   0.00000  -0.22438   0.00000   3.14159
    D2        0.00000   0.00000   0.00000   0.09773   0.00000   0.00000
         Item               Value     Threshold  Converged?
 Maximum Force            0.030761     0.000450     NO 
 RMS     Force            0.014455     0.000300     NO 
 Maximum Displacement     0.107974     0.001800     NO 
 RMS     Displacement     0.061008     0.001200     NO 
 Predicted change in Energy=-5.240134D-03
 GradGradGradGradGradGradGradGradGradGradGradGradGradGradGradGradGradGrad

                          Input orientation:                          
 ---------------------------------------------------------------------
 Center     Atomic      Atomic             Coordinates (Angstroms)
 Number     Number       Type             X           Y           Z
 ---------------------------------------------------------------------
      1          8           0       -2.604932    1.437577    0.000000
      2          8           0       -1.505347    0.935960    0.000000
      3          1           0        0.141577    0.574657    0.000000
      4          8           0        0.589973   -0.242263    0.000000
      5          1           0        1.016973   -1.075264    0.000000
 ---------------------------------------------------------------------
                    Distance matrix (angstroms):
                    1          2          3          4          5
     1  O    0.000000
     2  O    1.208597   0.000000
     3  H    2.878879   1.686090   0.000000
     4  O    3.609609   2.403867   0.931888   0.000000
     5  H    4.408238   3.226007   1.867767   0.936066   0.000000
 Stoichiometry    H2O3
 Framework group  CS[SG(H2O3)]
 Deg. of freedom     7
 Full point group                 CS      NOp   2
 Largest Abelian subgroup         CS      NOp   2
 Largest concise Abelian subgroup C1      NOp   1
                         Standard orientation:                         
 ---------------------------------------------------------------------
 Center     Atomic      Atomic             Coordinates (Angstroms)
 Number     Number       Type             X           Y           Z
 ---------------------------------------------------------------------
      1          8           0       -0.171558    1.750890    0.000000
      2          8           0        0.000000    0.554531    0.000000
      3          1           0        0.585211   -1.026743    0.000000
      4          8           0        0.139755   -1.845269    0.000000
      5          1           0       -0.330789   -2.654471    0.000000
 ---------------------------------------------------------------------
 Rotational constants (GHZ):    851.5399170      4.3210691      4.2992529
 Standard basis: 6-31+G(d,p) (6D, 7F)
 There are    50 symmetry adapted basis functions of A'  symmetry.
 There are    17 symmetry adapted basis functions of A"  symmetry.
 Integral buffers will be    262144 words long.
 Raffenetti 2 integral format.
 Two-electron integral symmetry is turned on.
    67 basis functions,   110 primitive gaussians,    67 cartesian basis functions
    13 alpha electrons       13 beta electrons
       nuclear repulsion energy        67.0959257379 Hartrees.
 NAtoms=    5 NActive=    5 NUniq=    5 SFac= 7.50D-01 NAtFMM=   80 NAOKFM=F Big=F
 One-electron integrals computed using PRISM.
 NBasis=    67 RedAO= T  NBF=    50    17
 NBsUse=    67 1.00D-06 NBFU=    50    17
 Initial guess read from the read-write file.
 B after Tr=     0.000000    0.000000    0.000000
         Rot=    1.000000    0.000000    0.000000    0.000000 Ang=   0.00 deg.
 Initial guess orbital symmetries:
       Occupied  (A') (A') (A') (A') (A') (A') (A') (A') (A") (A')
                 (A') (A") (A')
       Virtual   (A") (A') (A') (A') (A") (A') (A') (A") (A') (A')
                 (A") (A') (A') (A') (A') (A') (A') (A') (A") (A')
[...]
     15 vectors produced by pass  1 Test12= 3.90D-15 5.56D-09 XBig12= 4.37D+00 7.64D-01.
     15 vectors produced by pass  2 Test12= 3.90D-15 5.56D-09 XBig12= 3.60D-02 5.56D-02.
     15 vectors produced by pass  3 Test12= 3.90D-15 5.56D-09 XBig12= 5.48D-04 8.21D-03.
     15 vectors produced by pass  4 Test12= 3.90D-15 5.56D-09 XBig12= 4.44D-06 7.23D-04.
     15 vectors produced by pass  5 Test12= 3.90D-15 5.56D-09 XBig12= 3.05D-08 3.88D-05.
      8 vectors produced by pass  6 Test12= 3.90D-15 5.56D-09 XBig12= 6.43D-11 1.65D-06.
      3 vectors produced by pass  7 Test12= 3.90D-15 5.56D-09 XBig12= 1.51D-13 6.85D-08.
 Inverted reduced A of dimension   101 with in-core refinement.
 Isotropic polarizability for W=    0.000000       15.36 Bohr**3.
 End of Minotr Frequency-dependent properties file   721 does not exist.
 End of Minotr Frequency-dependent properties file   722 does not exist.

 **********************************************************************

            Population analysis using the SCF density.

 **********************************************************************

 Orbital symmetries:
       Occupied  (A) (A) (A) (A) (A) (A) (A) (A) (A) (A) (A) (A)
                 (A)
       Virtual   (A) (A) (A) (A) (A) (A) (A) (A) (A) (A) (A) (A)
                 (A) (A) (A) (A) (A) (A) (A) (A) (A) (A) (A) (A)
                 (A) (A) (A) (A) (A) (A) (A) (A) (A) (A) (A) (A)
                 (A) (A) (A) (A) (A) (A) (A) (A) (A) (A) (A) (A)
                 (A) (A) (A) (A) (A) (A)
 The electronic state is 1-A.
 Alpha  occ. eigenvalues --  -19.83966 -19.83636 -19.60993  -1.46028  -1.09892
 Alpha  occ. eigenvalues --   -0.94015  -0.68755  -0.64793  -0.64075  -0.62569
 Alpha  occ. eigenvalues --   -0.37641  -0.37640  -0.36589
 Alpha virt. eigenvalues --   -0.14021   0.07268   0.09720   0.10183   0.13186
 Alpha virt. eigenvalues --    0.16177   0.18813   0.20377   0.20596   0.21634
 Alpha virt. eigenvalues --    0.22227   0.26193   0.31365   0.33643   0.35162
 Alpha virt. eigenvalues --    0.42815   0.93783   1.03516   1.10294   1.11166
 Alpha virt. eigenvalues --    1.13602   1.17290   1.17378   1.20956   1.21801
 Alpha virt. eigenvalues --    1.22994   1.36290   1.38975   1.50386   1.51079
 Alpha virt. eigenvalues --    1.53302   1.54407   1.56267   1.60552   1.63918
 Alpha virt. eigenvalues --    1.82340   1.87202   1.87648   1.96332   2.01291
 Alpha virt. eigenvalues --    2.31030   2.32905   2.54422   2.60648   2.60891
 Alpha virt. eigenvalues --    2.69090   2.94975   3.06979   3.09954   3.41235
 Alpha virt. eigenvalues --    3.73742   3.79112   4.12677   5.61068
          Condensed to atoms (all electrons):
              1          2          3          4          5
     1  O    7.618280   0.346465  -0.012110   0.008640  -0.000061
     2  O    0.346465   7.653104   0.028281  -0.007380   0.001041
     3  H   -0.012110   0.028281   0.254420   0.299315  -0.017205
     4  O    0.008640  -0.007380   0.299315   8.277245   0.320967
     5  H   -0.000061   0.001041  -0.017205   0.320967   0.261042
 Mulliken atomic charges:
              1
     1  O    0.038784
     2  O   -0.021511
     3  H    0.447298
     4  O   -0.898788
     5  H    0.434216
 Sum of Mulliken atomic charges =   0.00000
 Mulliken charges with hydrogens summed into heavy atoms:
              1
     1  O    0.038784
     2  O   -0.021511
     4  O   -0.017273
 Sum of Mulliken charges with hydrogens summed into heavy atoms =   0.00000
 APT atomic charges:
              1
     1  O    0.039696
     2  O   -0.052735
     3  H    0.613037
     4  O   -1.128225
     5  H    0.528227
 Sum of APT charges=   0.00000
 APT Atomic charges with hydrogens summed into heavy atoms:
              1
     1  O    0.039696
     2  O   -0.052735
     3  H    0.000000
     4  O    0.013039
     5  H    0.000000
 Sum of APT charges=   0.00000
 Electronic spatial extent (au):  <R**2>=            263.8682
 Charge=              0.0000 electrons
 Dipole moment (field-independent basis, Debye):
    X=              0.3946    Y=             -0.1113    Z=              0.0000  Tot=              0.4100
 Quadrupole moment (field-independent basis, Debye-Ang):
   XX=            -14.0683   YY=            -17.7065   ZZ=            -17.1048
   XY=              1.6842   XZ=              0.0096   YZ=              0.0044
 Traceless Quadrupole moment (field-independent basis, Debye-Ang):
   XX=              2.2249   YY=             -1.4133   ZZ=             -0.8116
   XY=              1.6842   XZ=              0.0096   YZ=              0.0044
 Octapole moment (field-independent basis, Debye-Ang**2):
  XXX=            -19.2516  YYY=             -0.1007  ZZZ=             -0.0005  XYY=              0.7802
  XXY=             -7.9297  XXZ=             -0.0188  XZZ=              4.1172  YZZ=              0.0415
  YYZ=             -0.0003  XYZ=             -0.0039
 Hexadecapole moment (field-independent basis, Debye-Ang**3):
 XXXX=           -170.8621 YYYY=            -34.4799 ZZZZ=            -14.2021 XXXY=             23.2271
 XXXZ=              0.0954 YYYX=              0.0031 YYYZ=              0.0052 ZZZX=              0.0059
 ZZZY=              0.0023 XXYY=            -46.6185 XXZZ=            -45.2963 YYZZ=             -7.7889
 XXYZ=              0.0146 YYXZ=              0.0045 ZZXY=              0.0310
 N-N= 6.573261791775D+01 E-N=-6.658439097008D+02  KE= 2.247345641065D+02
  Exact polarizability:  17.332  -2.056  17.363  -0.001  -0.001  11.382
 Approx polarizability:  16.818  -3.590  22.414   0.003   0.000  11.982
 Calling FoFJK, ICntrl=    100127 FMM=F ISym2X=0 I1Cent= 0 IOpClX= 0 NMat=1 NMatS=1 NMatT=0.
 Full mass-weighted force constant matrix:
 Low frequencies ----1544.7866-1535.1958   -0.0006    0.0009    0.0010   12.5526
 Low frequencies ---   37.3057   52.5879   97.8535
 ******    2 imaginary frequencies (negative Signs) ****** 
 Diagonal vibrational polarizability:
        4.8270369       5.3446451       6.1866920
 Harmonic frequencies (cm**-1), IR intensities (KM/Mole), Raman scattering
 activities (A**4/AMU), depolarization ratios for plane and unpolarized
 incident light, reduced masses (AMU), force constants (mDyne/A),
 and normal coordinates:
                     1                      2                      3
                     A                      A                      A
 Frequencies -- -1544.7809             -1535.1955                97.7852
 Red. masses --     1.1262                 1.1303                 6.7979
 Frc consts  --     1.5834                 1.5695                 0.0383
 IR Inten    --   541.6372               524.1799                 0.1194
  Atom  AN      X      Y      Z        X      Y      Z        X      Y      Z
     1   8     0.00   0.00   0.00     0.00   0.00   0.00     0.46   0.06   0.00
     2   8     0.00   0.00   0.00     0.00   0.00   0.00    -0.05  -0.14   0.00
     3   1     0.01  -0.02   0.70    -0.26   0.63   0.03    -0.22  -0.29   0.00
     4   8     0.00   0.00  -0.09     0.04  -0.08   0.00    -0.37   0.07   0.00
     5   1     0.01  -0.03   0.71    -0.28   0.67   0.03    -0.53   0.45   0.00
                     4                      5                      6
                     A                      A                      A
 Frequencies --   192.4680               316.7928               412.5709
 Red. masses --     8.1223                 1.0459                 1.0973
 Frc consts  --     0.1773                 0.0618                 0.1100
 IR Inten    --     2.6824                 0.2911                 1.0832
  Atom  AN      X      Y      Z        X      Y      Z        X      Y      Z
     1   8    -0.13  -0.07   0.00     0.00   0.00  -0.01    -0.04   0.01   0.00
     2   8     0.53   0.20   0.00     0.00   0.00   0.04     0.03   0.04   0.00
     3   1    -0.49   0.21   0.00     0.00   0.01  -0.74     0.29  -0.71  -0.01
     4   8    -0.35  -0.12   0.00     0.00   0.00  -0.03     0.01  -0.04   0.00
     5   1    -0.22  -0.44   0.00     0.00  -0.01   0.67    -0.25   0.59   0.01
                     7                      8                      9
                     A                      A                      A
 Frequencies --  1776.2567              3995.2363              4428.5100
 Red. masses --    15.9849                 1.0113                 1.1224
 Frc consts  --    29.7148                 9.5111                12.9689
 IR Inten    --     0.3296               188.8219              1027.4096
  Atom  AN      X      Y      Z        X      Y      Z        X      Y      Z
     1   8    -0.27   0.65   0.00     0.00   0.00   0.00     0.00   0.00   0.00
     2   8     0.27  -0.65   0.00     0.00   0.00   0.00     0.00   0.00   0.00
     3   1     0.02  -0.02   0.00     0.75   0.31   0.00    -0.52  -0.21   0.00
     4   8     0.00   0.00   0.00    -0.01  -0.01   0.00     0.08   0.03   0.00
     5   1    -0.01   0.01   0.00    -0.53  -0.22   0.00    -0.76  -0.31   0.00

 -------------------
 - Thermochemistry -
 -------------------
 Temperature   298.150 Kelvin.  Pressure   1.00000 Atm.
 Atom     1 has atomic number  8 and mass  15.99491
 Atom     2 has atomic number  8 and mass  15.99491
 Atom     3 has atomic number  1 and mass   1.00783
 Atom     4 has atomic number  8 and mass  15.99491
 Atom     5 has atomic number  1 and mass   1.00783
 Molecular mass:    50.00039 amu.
 Principal axes and moments of inertia in atomic units:
                           1         2         3
     Eigenvalues --    36.14896 387.07700 423.22593
           X            0.99997   0.00803   0.00002
           Y           -0.00803   0.99997   0.00009
           Z           -0.00002  -0.00009   1.00000
 This molecule is an asymmetric top.
 Rotational symmetry number  1.
 Rotational temperatures (Kelvin)      2.39603     0.22376     0.20465
 Rotational constants (GHZ):          49.92513     4.66249     4.26425
    2 imaginary frequencies ignored.
 Zero-point vibrational energy      67108.2 (Joules/Mol)
                                   16.03925 (Kcal/Mol)
 Warning -- explicit consideration of   4 degrees of freedom as
           vibrations may cause significant error
 Vibrational temperatures:    140.69   276.92   455.79   593.60  2555.63
          (Kelvin)           5748.25  6371.63
 
 Zero-point correction=                           0.025560 (Hartree/Particle)
 Thermal correction to Energy=                    0.030403
 Thermal correction to Enthalpy=                  0.031347
 Thermal correction to Gibbs Free Energy=        -0.001389
 Sum of electronic and zero-point Energies=           -226.533473
 Sum of electronic and thermal Energies=              -226.528631
 Sum of electronic and thermal Enthalpies=            -226.527687
 Sum of electronic and thermal Free Energies=         -226.560423
 
                     E (Thermal)             CV                S
                      KCal/Mol        Cal/Mol-Kelvin    Cal/Mol-Kelvin
 Total                   19.078             12.875             68.899
 Electronic               0.000              0.000              0.000
 Translational            0.889              2.981             37.652
 Rotational               0.889              2.981             23.297
 Vibrational             17.301              6.913              7.950
 Vibration     1          0.603              1.951              3.498
 Vibration     2          0.634              1.850              2.204
 Vibration     3          0.704              1.642              1.327
 Vibration     4          0.776              1.443              0.918
                       Q            Log10(Q)             Ln(Q)
 Total Bot       0.435535D+01          0.639023          1.471406
 Total V=0       0.248807D+13         12.395863         28.542528
 Vib (Bot)       0.113770D-10        -10.943971        -25.199425
 Vib (Bot)    1  0.209965D+01          0.322147          0.741770
 Vib (Bot)    2  0.103892D+01          0.016584          0.038186
 Vib (Bot)    3  0.594526D+00         -0.225829         -0.519991
 Vib (Bot)    4  0.428002D+00         -0.368554         -0.848627
 Vib (V=0)       0.649932D+01          0.812868          1.871698
 Vib (V=0)    1  0.265836D+01          0.424614          0.977710
 Vib (V=0)    2  0.165298D+01          0.218268          0.502580
 Vib (V=0)    3  0.127683D+01          0.106132          0.244378
 Vib (V=0)    4  0.115817D+01          0.063772          0.146840
 Electronic      0.100000D+01          0.000000          0.000000
 Translational   0.138968D+08          7.142915         16.447170
 Rotational      0.275473D+05          4.440079         10.223660
 ***** Axes restored to original set *****
 -------------------------------------------------------------------
 Center     Atomic                   Forces (Hartrees/Bohr)
 Number     Number              X              Y              Z
 -------------------------------------------------------------------
      1        8           0.000045269   -0.000039621    0.000026335
      2        8          -0.000070200   -0.000002815    0.000083349
      3        1          -0.000064679    0.000177619   -0.000289377
      4        8          -0.000049914   -0.000166655    0.000442794
      5        1           0.000139524    0.000031471   -0.000263101
 -------------------------------------------------------------------
 Cartesian Forces:  Max     0.000442794 RMS     0.000173528

 GradGradGradGradGradGradGradGradGradGradGradGradGradGradGradGradGradGrad
 Berny optimization.
 Internal  Forces:  Max     0.000239269 RMS     0.000088282
 Search for a saddle point.
 Step number   1 out of a maximum of    2
 All quantities printed in internal units (Hartrees-Bohrs-Radians)
 Swaping is turned off.
 Second derivative matrix not updated -- analytic derivatives used.
 The second derivative matrix:
                          R1        R2        R3        R4        A1
           R1           0.95604
           R2          -0.00129   0.00964
           R3           0.00239   0.01282   0.62932
           R4           0.00055  -0.00018  -0.02349   0.65978
           A1           0.00255   0.00038  -0.00334  -0.00053   0.03128
           A2          -0.00662   0.00136   0.00083  -0.00033  -0.00189
           A3          -0.00059   0.00021   0.00008  -0.00024  -0.00027
           D1           0.00001   0.00000   0.00000   0.00000   0.00000
           D2           0.00000   0.00000   0.00000   0.00000   0.00000
                          A2        A3        D1        D2
           A2           0.01260
           A3           0.00158  -0.12410
           D1           0.00002  -0.00132   0.00072
           D2           0.00000   0.00039   0.00000   0.00000
     Eigenvalues ---   -0.12413   0.00000   0.00074   0.00884   0.01292
     Eigenvalues ---    0.03144   0.61676   0.67260   0.95611
 Eigenvectors required to have negative eigenvalues:
                          A3        A2        D1        D2        A1
   1                    0.99987  -0.01150   0.01060  -0.00316   0.00161
                          R2        R1        R4        R3
   1                   -0.00143   0.00047   0.00030  -0.00006
 Angle between quadratic step and forces=  89.80 degrees.
 Linear search not attempted -- option 19 set.
 Iteration  1 RMS(Cart)=  0.00102378 RMS(Int)=  0.04226284
 Iteration  2 RMS(Cart)=  0.00004298 RMS(Int)=  0.03676791
 Iteration  3 RMS(Cart)=  0.00001483 RMS(Int)=  0.03514016
 Iteration  4 RMS(Cart)=  0.00001303 RMS(Int)=  0.03374819
 Iteration  5 RMS(Cart)=  0.00001678 RMS(Int)=  0.03248534
 Iteration  6 RMS(Cart)=  0.00029246 RMS(Int)=  0.00711291
 Iteration  7 RMS(Cart)=  0.00037438 RMS(Int)=  0.00239359
 Iteration  8 RMS(Cart)=  0.00014308 RMS(Int)=  0.00080226
 Iteration  9 RMS(Cart)=  0.00000022 RMS(Int)=  0.00080165
 Variable       Old X    -DE/DX   Delta X   Delta X   Delta X     New X
                                 (Linear)    (Quad)   (Total)
    R1        2.25948  -0.00006   0.00000  -0.00007  -0.00009   2.25939
    R2        3.66853   0.00000   0.00000  -0.00045  -0.00037   3.66816
    R3        1.78641   0.00024   0.00000   0.00038   0.00029   1.78670
    R4        1.77332   0.00000   0.00000   0.00002   0.00004   1.77335
    A1        1.81922  -0.00005   0.00000  -0.00163  -0.00152   1.81770
    A2        2.88915  -0.00002   0.00000  -0.00184  -0.00144   2.88771
    A3        3.14151   0.00008   0.00000   0.00008   0.00002   3.14154
    D1       -0.00931   0.00000   0.00000   0.00392   0.00393  -0.00538
    D2        1.32026   0.00000   0.00000   0.25877   0.25641   1.57667
         Item               Value     Threshold  Converged?
 Maximum Force            0.000239     0.000450     YES
 RMS     Force            0.000088     0.000300     YES
 Maximum Displacement     0.003027     0.001800     NO 
 RMS     Displacement     0.001735     0.001200     NO 
 Predicted change in Energy=-1.150388D-07
 GradGradGradGradGradGradGradGradGradGradGradGradGradGradGradGradGradGrad

 1|1|UNPC-DESKTOP-319GPER|Freq|RM062X|6-31+G(d,p)|H2O3|SAGAD|09-Feb-202
 1|0||#N Geom=AllCheck Guess=TCheck SCRF=Check GenChk RM062X/6-31+G(d,p
 ) Freq||ts OOH vs OH||0,1|O,-2.3298381604,1.1899061067,0.464021015|O,-
 1.71978502,1.3315729094,-0.554497827|H,-0.1174269901,0.2647606967,-0.3
 034759586|O,0.564302301,-0.2982935639,0.0309800462|H,1.2409914595,-0.8
 57279079,0.3629727244||Version=IA32W-G09RevA.02|State=1-A|HF=-226.5590
 336|RMSD=4.883e-011|RMSF=1.735e-004|ZeroPoint=0.0255602|Thermal=0.0304
 027|Dipole=-0.1425182,0.0641363,0.0399227|DipoleDeriv=0.0220109,0.0154
 173,-0.0217391,-0.0006424,0.0324674,-0.0041276,0.0108441,-0.0233674,0.
 0646103,-0.100283,0.0469471,0.0304571,0.0752387,-0.0366963,-0.0051155,
 -0.0266444,0.0285597,-0.0212258,0.7759476,-0.1769462,0.0072814,-0.2265
 241,0.6094395,0.0091368,0.1082675,-0.0502489,0.4537246,-1.2397642,0.13
 81654,-0.0285639,0.1773443,-1.1359397,0.0072514,-0.1088405,0.0544178,-
 1.0089721,0.5420887,-0.0235836,0.0125645,-0.0254164,0.5307291,-0.00714
 51,0.0163733,-0.0093611,0.511863|Polar=16.7455173,-1.818116,12.8868893
 ,-2.7187417,-0.8883807,16.4438141|PG=C01 [X(H2O3)]|NImag=2||0.25300822
 ,0.05509432,0.01594532,-0.41443129,-0.09748030,0.69489320,-0.25223614,
 -0.05606893,0.41478358,0.25856264,-0.05388774,-0.01660419,0.09618178,0
 .05125261,0.02124446,0.41034280,0.09880505,-0.69327456,-0.41035938,-0.
 09874846,0.69503834,-0.00128030,0.00193526,-0.00141550,0.00143160,-0.0
 0401818,0.00341933,0.30093439,-0.00133945,0.00020178,0.00286494,-0.001
 29446,-0.00015766,-0.00330323,-0.27917256,0.19337043,0.00525359,-0.001
 06800,-0.00330591,-0.00208809,-0.00005968,0.00008037,0.16492501,-0.138
 25402,0.04735450,0.00021172,-0.00066126,0.00101508,-0.00772452,0.00582
 351,-0.00290898,-0.29289309,0.31020473,-0.18542079,0.61622019,0.000048
 05,0.00051982,-0.00124003,0.00602753,-0.00514295,0.00271337,0.30922129
 ,-0.17445362,0.15338057,-0.64335398,0.36955785,-0.00043175,-0.00039121
 ,0.00125555,-0.00338093,0.00300122,-0.00232274,-0.18334624,0.15214986,
 -0.00979506,0.38280688,-0.31611683,0.02575963,0.00029650,-0.00029938,0
 .00004813,-0.00003357,0.00082980,-0.00049377,-0.00819260,-0.02839826,0
 .01733028,-0.31581430,0.32805712,-0.19564796,0.32374397,0.00008482,-0.
 00006272,-0.00032640,0.00008326,0.00066034,0.00053328,-0.02796580,-0.0
 1896093,-0.01399887,0.32798700,-0.19048111,0.16135696,-0.30018927,0.20
 884441,-0.00073335,0.00013446,0.00043173,0.00104481,-0.00037486,0.0004
 7860,0.01641740,-0.01345756,-0.03433390,-0.19549219,0.16126292,-0.0148
 9738,0.17876333,-0.14756497,0.04832095||-0.00004527,0.00003962,-0.0000
 2633,0.00007020,0.00000281,-0.00008335,0.00006468,-0.00017762,0.000289
 38,0.00004991,0.00016666,-0.00044279,-0.00013952,-0.00003147,0.0002631
 0|||@


 Time has a wonderful way of weeding out the trivial.
                                -- Richard Ben Sapir
 Job cpu time:  0 days  0 hours  0 minutes 11.0 seconds.
 File lengths (MBytes):  RWF=      6 Int=      0 D2E=      0 Chk=      1 Scr=      1
 Normal termination of Gaussian 09 at Tue Feb 09 16:05:01 2021.
