 Entering Link 1 = C:\G09W\l1.exe PID=     16568.
  
 Copyright (c) 1988,1990,1992,1993,1995,1998,2003,2009, Gaussian, Inc.
                  All Rights Reserved.
  
 This is part of the Gaussian(R) 09 program.  It is based on
 the Gaussian(R) 03 system (copyright 2003, Gaussian, Inc.),
 the Gaussian(R) 98 system (copyright 1998, Gaussian, Inc.),
 the Gaussian(R) 94 system (copyright 1995, Gaussian, Inc.),
 the Gaussian 92(TM) system (copyright 1992, Gaussian, Inc.),
 the Gaussian 90(TM) system (copyright 1990, Gaussian, Inc.),
 the Gaussian 88(TM) system (copyright 1988, Gaussian, Inc.),
 the Gaussian 86(TM) system (copyright 1986, Carnegie Mellon
 University), and the Gaussian 82(TM) system (copyright 1983,
 Carnegie Mellon University). Gaussian is a federally registered
 trademark of Gaussian, Inc.
  
 This software contains proprietary and confidential information,
 including trade secrets, belonging to Gaussian, Inc.
  
 This software is provided under written license and may be
 used, copied, transmitted, or stored only in accord with that
 written license.
  
 The following legend is applicable only to US Government
 contracts under FAR:
  
                    RESTRICTED RIGHTS LEGEND
  
 Use, reproduction and disclosure by the US Government is
 subject to restrictions as set forth in subparagraphs (a)
 and (c) of the Commercial Computer Software - Restricted
 Rights clause in FAR 52.227-19.
  
 Gaussian, Inc.
 340 Quinnipiac St., Bldg. 40, Wallingford CT 06492
  
  
 ---------------------------------------------------------------
 Warning -- This program may not be used in any manner that
 competes with the business of Gaussian, Inc. or will provide
 assistance to any competitor of Gaussian, Inc.  The licensee
 of this program is prohibited from giving any competitor of
 Gaussian, Inc. access to this program.  By using this program,
 the user acknowledges that Gaussian, Inc. is engaged in the
 business of creating and licensing software in the field of
 computational chemistry and represents and warrants to the
 licensee that it is not a competitor of Gaussian, Inc. and that
 it will not use this program in any manner prohibited above.
 ---------------------------------------------------------------
  

 Cite this work as:
 Gaussian 09, Revision A.02,
 M. J. Frisch, G. W. Trucks, H. B. Schlegel, G. E. Scuseria, 
 M. A. Robb, J. R. Cheeseman, G. Scalmani, V. Barone, B. Mennucci, 
 G. A. Petersson, H. Nakatsuji, M. Caricato, X. Li, H. P. Hratchian, 
 A. F. Izmaylov, J. Bloino, G. Zheng, J. L. Sonnenberg, M. Hada, 
 M. Ehara, K. Toyota, R. Fukuda, J. Hasegawa, M. Ishida, T. Nakajima, 
 Y. Honda, O. Kitao, H. Nakai, T. Vreven, J. A. Montgomery, Jr., 
 J. E. Peralta, F. Ogliaro, M. Bearpark, J. J. Heyd, E. Brothers, 
 K. N. Kudin, V. N. Staroverov, R. Kobayashi, J. Normand, 
 K. Raghavachari, A. Rendell, J. C. Burant, S. S. Iyengar, J. Tomasi, 
 M. Cossi, N. Rega, J. M. Millam, M. Klene, J. E. Knox, J. B. Cross, 
 V. Bakken, C. Adamo, J. Jaramillo, R. Gomperts, R. E. Stratmann, 
 O. Yazyev, A. J. Austin, R. Cammi, C. Pomelli, J. W. Ochterski, 
 R. L. Martin, K. Morokuma, V. G. Zakrzewski, G. A. Voth, 
 P. Salvador, J. J. Dannenberg, S. Dapprich, A. D. Daniels, 
 O. Farkas, J. B. Foresman, J. V. Ortiz, J. Cioslowski, 
 and D. J. Fox, Gaussian, Inc., Wallingford CT, 2009.
 
 ******************************************
 Gaussian 09:  IA32W-G09RevA.02 11-Jun-2009
                08-Oct-2020 
 ******************************************
 %chk=C:\Users\sagad\Documents\rayGit\FQ\quimicaComputacional\class4Metilo\estado
 DeTransicion\methaneHidroxilRadTsHF.chk
 %nprocshared=4
 Will use up to    4 processors via shared memory.
 %mem=1500MB
 -------------------------------------------------------
 # opt=(calcfc,ts,noeigen) freq=(noraman) HF/6-31+g(d,p)
 -------------------------------------------------------
 1/5=1,10=4,11=1,18=20,38=1/1,3;
 2/9=110,12=2,17=6,18=5,40=1/2;
 3/5=1,6=6,7=111,11=9,16=1,25=1,30=1,71=2/1,2,3;
 4//1;
 5/5=2,38=5/2;
 8/6=4,10=90,11=11/1;
 11/6=1,8=1,9=11,15=111,16=1/1,2,10;
 10/6=1,7=6,13=1/2;
 6/7=2,8=2,9=2,10=2,28=1/1;
 7/10=1,18=20,25=1/1,2,3,16;
 1/5=1,10=4,11=1,18=20/3(2);
 2/9=110/2;
 99//99;
 2/9=110/2;
 3/5=1,6=6,7=111,11=9,16=1,25=1,30=1,71=1/1,2,3;
 4/5=5,16=3/1;
 5/5=2,38=5/2;
 7//1,2,3,16;
 1/5=1,11=1,18=20/3(-5);
 2/9=110/2;
 6/7=2,8=2,9=2,10=2,19=2,28=1/1;
 99/9=1/99;
 ----------------------------------------------------------------
 calculation of fransition state methane-hydroxil radical with HF
 ----------------------------------------------------------------
 Symbolic Z-matrix:
 Charge =  0 Multiplicity = 2
 C                     0.74301   1.76559  -0.87365 
 H                     1.09968   2.26999   0. 
 H                     1.09968   2.26999  -1.7473 
 H                    -0.32699   1.76561  -0.87365 
 H                     1.14299   0.63422  -0.87365 
 O                     1.57631  -0.59144  -0.87365 
 H                     1.25797  -1.04388  -0.08908 
 

 GradGradGradGradGradGradGradGradGradGradGradGradGradGradGradGradGradGrad
 Berny optimization.
 Initialization pass.
                           ----------------------------
                           !    Initial Parameters    !
                           ! (Angstroms and Degrees)  !
 --------------------------                            --------------------------
 ! Name  Definition              Value          Derivative Info.                !
 --------------------------------------------------------------------------------
 ! R1    R(1,2)                  1.07           calculate D2E/DX2 analytically  !
 ! R2    R(1,3)                  1.07           calculate D2E/DX2 analytically  !
 ! R3    R(1,4)                  1.07           calculate D2E/DX2 analytically  !
 ! R4    R(1,5)                  1.2            calculate D2E/DX2 analytically  !
 ! R5    R(5,6)                  1.3            calculate D2E/DX2 analytically  !
 ! R6    R(6,7)                  0.96           calculate D2E/DX2 analytically  !
 ! A1    A(2,1,3)              109.4713         calculate D2E/DX2 analytically  !
 ! A2    A(2,1,4)              109.4712         calculate D2E/DX2 analytically  !
 ! A3    A(2,1,5)              109.4712         calculate D2E/DX2 analytically  !
 ! A4    A(3,1,4)              109.4712         calculate D2E/DX2 analytically  !
 ! A5    A(3,1,5)              109.4712         calculate D2E/DX2 analytically  !
 ! A6    A(4,1,5)              109.4712         calculate D2E/DX2 analytically  !
 ! A7    A(5,6,7)              109.5            calculate D2E/DX2 analytically  !
 ! A8    L(1,5,6,3,-1)         180.0            calculate D2E/DX2 analytically  !
 ! A9    L(1,5,6,3,-2)         180.0            calculate D2E/DX2 analytically  !
 ! D1    D(2,1,6,7)             59.8889         calculate D2E/DX2 analytically  !
 ! D2    D(3,1,6,7)            179.8889         calculate D2E/DX2 analytically  !
 ! D3    D(4,1,6,7)            -60.1111         calculate D2E/DX2 analytically  !
 --------------------------------------------------------------------------------
 Trust Radius=3.00D-01 FncErr=1.00D-07 GrdErr=1.00D-07
 Number of steps in this run=  28 maximum allowed number of steps= 100.
 Search for a saddle point of order  1.
 GradGradGradGradGradGradGradGradGradGradGradGradGradGradGradGradGradGrad

                          Input orientation:                          
 ---------------------------------------------------------------------
 Center     Atomic      Atomic             Coordinates (Angstroms)
 Number     Number       Type             X           Y           Z
 ---------------------------------------------------------------------
      1          6           0        0.743007    1.765592   -0.873652
      2          1           0        1.099680    2.269990    0.000000
      3          1           0        1.099680    2.269990   -1.747303
      4          1           0       -0.326993    1.765605   -0.873652
      5          1           0        1.142993    0.634217   -0.873652
      6          8           0        1.576312   -0.591441   -0.873652
      7          1           0        1.257967   -1.043880   -0.089078
 ---------------------------------------------------------------------
                    Distance matrix (angstroms):
                    1          2          3          4          5
     1  C    0.000000
     2  H    1.070000   0.000000
     3  H    1.070000   1.747303   0.000000
     4  H    1.070000   1.747303   1.747303   0.000000
     5  H    1.200000   1.854966   1.854966   1.854966   0.000000
     6  O    2.500000   3.029560   3.029560   3.029560   1.300000
     7  H    2.962072   3.318844   3.708976   3.319768   1.856012
                    6          7
     6  O    0.000000
     7  H    0.960000   0.000000
 Stoichiometry    CH5O(2)
 Framework group  C1[X(CH5O)]
 Deg. of freedom    15
 Full point group                 C1      NOp   1
 Largest Abelian subgroup         C1      NOp   1
 Largest concise Abelian subgroup C1      NOp   1
                         Standard orientation:                         
 ---------------------------------------------------------------------
 Center     Atomic      Atomic             Coordinates (Angstroms)
 Number     Number       Type             X           Y           Z
 ---------------------------------------------------------------------
      1          6           0        1.208803   -0.011461    0.000000
      2          1           0        1.540310   -0.534383   -0.872671
      3          1           0        1.614344    0.978707   -0.001956
      4          1           0        1.540476   -0.530998    0.874628
      5          1           0        0.010237    0.047184    0.000000
      6          8           0       -1.288210    0.110717    0.000000
      7          1           0       -1.652507   -0.777477    0.000000
 ---------------------------------------------------------------------
 Rotational constants (GHZ):    131.6128919      9.1016047      8.9782435
 Standard basis: 6-31+G(d,p) (6D, 7F)
 There are    63 symmetry adapted basis functions of A   symmetry.
 Integral buffers will be    262144 words long.
 Raffenetti 2 integral format.
 Two-electron integral symmetry is turned on.
    63 basis functions,    99 primitive gaussians,    63 cartesian basis functions
    10 alpha electrons        9 beta electrons
       nuclear repulsion energy        37.1494648913 Hartrees.
 NAtoms=    7 NActive=    7 NUniq=    7 SFac= 7.50D-01 NAtFMM=   80 NAOKFM=F Big=F
 One-electron integrals computed using PRISM.
 NBasis=    63 RedAO= T  NBF=    63
 NBsUse=    63 1.00D-06 NBFU=    63
 Harris functional with IExCor=  205 diagonalized for initial guess.
 ExpMin= 4.38D-02 ExpMax= 5.48D+03 ExpMxC= 8.25D+02 IAcc=2 IRadAn=         0 AccDes= 0.00D+00
 HarFok:  IExCor=  205 AccDes= 0.00D+00 IRadAn=         0 IDoV= 1
 ScaDFX=  1.000000  1.000000  1.000000  1.000000
 FoFCou: FMM=F IPFlag=           0 FMFlag=      100000 FMFlg1=           0
         NFxFlg=           0 DoJE=T BraDBF=F KetDBF=T FulRan=T
         Omega=  0.000000  0.000000  1.000000  0.000000  0.000000 ICntrl=     500 IOpCl=  0
         NMat0=    1 NMatS0=    1 NMatT0=    0 NMatD0=    1 NMtDS0=    0 NMtDT0=    0
         I1Cent=           4 NGrid=           0.
 Petite list used in FoFCou.
 Initial guess orbital symmetries:
 Alpha Orbitals:
       Occupied  (A) (A) (A) (A) (A) (A) (A) (A) (A) (A)
       Virtual   (A) (A) (A) (A) (A) (A) (A) (A) (A) (A) (A) (A)
                 (A) (A) (A) (A) (A) (A) (A) (A) (A) (A) (A) (A)
                 (A) (A) (A) (A) (A) (A) (A) (A) (A) (A) (A) (A)
                 (A) (A) (A) (A) (A) (A) (A) (A) (A) (A) (A) (A)
                 (A) (A) (A) (A) (A)
 Beta  Orbitals:
       Occupied  (A) (A) (A) (A) (A) (A) (A) (A) (A)
       Virtual   (A) (A) (A) (A) (A) (A) (A) (A) (A) (A) (A) (A)
                 (A) (A) (A) (A) (A) (A) (A) (A) (A) (A) (A) (A)
                 (A) (A) (A) (A) (A) (A) (A) (A) (A) (A) (A) (A)
                 (A) (A) (A) (A) (A) (A) (A) (A) (A) (A) (A) (A)
                 (A) (A) (A) (A) (A) (A)
 The electronic state of the initial guess is 2-A.
 Initial guess <Sx>= 0.0000 <Sy>= 0.0000 <Sz>= 0.5000 <S**2>= 0.7500 S= 0.5000
 Requested convergence on RMS density matrix=1.00D-08 within 128 cycles.
 Requested convergence on MAX density matrix=1.00D-06.
 Requested convergence on             energy=1.00D-06.
 No special actions if energy rises.
 Keep R1 and R2 ints in memory in canonical form, NReq=4917112.
 SCF Done:  E(UHF) =  -115.551952868     A.U. after   16 cycles
             Convg  =    0.7228D-08             -V/T =  2.0012
 <Sx>= 0.0000 <Sy>= 0.0000 <Sz>= 0.5000 <S**2>= 0.7798 S= 0.5148
 <L.S>= 0.000000000000E+00
 Annihilation of the first spin contaminant:
 S**2 before annihilation     0.7798,   after     0.7503
 Range of M.O.s used for correlation:     1    63
 NBasis=    63 NAE=    10 NBE=     9 NFC=     0 NFV=     0
 NROrb=     63 NOA=    10 NOB=     9 NVA=    53 NVB=    54
 Symmetrizing basis deriv contribution to polar:
 IMax=3 JMax=2 DiffMx= 0.00D+00
 G2DrvN: will do     8 centers at a time, making    1 passes doing MaxLOS=2.
 Calling FoFCou, ICntrl=  3107 FMM=F I1Cent=   0 AccDes= 0.00D+00.
 FoFDir/FoFCou used for L=0 through L=2.
 End of G2Drv Frequency-dependent properties file   721 does not exist.
 End of G2Drv Frequency-dependent properties file   722 does not exist.
          IDoAtm=1111111
          Differentiating once with respect to nuclear coordinates.
          Keep R1 and R2 ints in memory in canonical form, NReq=4886831.
          There are    24 degrees of freedom in the 1st order CPHF.  IDoFFX=5.
     18 vectors produced by pass  0 Test12= 4.23D-11 4.17D-07 XBig12= 1.12D-01 2.14D-01.
 AX will form    18 AO Fock derivatives at one time.
     18 vectors produced by pass  1 Test12= 4.23D-11 4.17D-07 XBig12= 2.22D-03 1.71D-02.
     18 vectors produced by pass  2 Test12= 4.23D-11 4.17D-07 XBig12= 8.32D-05 2.50D-03.
     18 vectors produced by pass  3 Test12= 4.23D-11 4.17D-07 XBig12= 1.67D-06 3.18D-04.
     18 vectors produced by pass  4 Test12= 4.23D-11 4.17D-07 XBig12= 3.16D-08 4.36D-05.
      9 vectors produced by pass  5 Test12= 4.23D-11 4.17D-07 XBig12= 4.80D-10 4.27D-06.
      1 vectors produced by pass  6 Test12= 4.23D-11 4.17D-07 XBig12= 5.96D-12 6.50D-07.
 Inverted reduced A of dimension   100 with in-core refinement.
 End of Minotr Frequency-dependent properties file   721 does not exist.
 End of Minotr Frequency-dependent properties file   722 does not exist.

 **********************************************************************

            Population analysis using the SCF density.

 **********************************************************************

 Orbital symmetries:
 Alpha Orbitals:
       Occupied  (A) (A) (A) (A) (A) (A) (A) (A) (A) (A)
       Virtual   (A) (A) (A) (A) (A) (A) (A) (A) (A) (A) (A) (A)
                 (A) (A) (A) (A) (A) (A) (A) (A) (A) (A) (A) (A)
                 (A) (A) (A) (A) (A) (A) (A) (A) (A) (A) (A) (A)
                 (A) (A) (A) (A) (A) (A) (A) (A) (A) (A) (A) (A)
                 (A) (A) (A) (A) (A)
 Beta  Orbitals:
       Occupied  (A) (A) (A) (A) (A) (A) (A) (A) (A)
       Virtual   (A) (A) (A) (A) (A) (A) (A) (A) (A) (A) (A) (A)
                 (A) (A) (A) (A) (A) (A) (A) (A) (A) (A) (A) (A)
                 (A) (A) (A) (A) (A) (A) (A) (A) (A) (A) (A) (A)
                 (A) (A) (A) (A) (A) (A) (A) (A) (A) (A) (A) (A)
                 (A) (A) (A) (A) (A) (A)
 The electronic state is 2-A.
 Alpha  occ. eigenvalues --  -20.63825 -11.21851  -1.39346  -0.96498  -0.73540
 Alpha  occ. eigenvalues --   -0.65349  -0.56553  -0.55803  -0.54599  -0.46289
 Alpha virt. eigenvalues --    0.09200   0.11431   0.12577   0.12646   0.20542
 Alpha virt. eigenvalues --    0.25343   0.26815   0.32884   0.34868   0.34873
 Alpha virt. eigenvalues --    0.39539   0.41556   0.52871   0.83510   0.83582
 Alpha virt. eigenvalues --    0.87875   1.17692   1.18447   1.20865   1.24854
 Alpha virt. eigenvalues --    1.32255   1.36471   1.38870   1.39134   1.52937
 Alpha virt. eigenvalues --    1.61386   1.63260   1.75190   1.81959   1.88342
 Alpha virt. eigenvalues --    1.95513   2.07684   2.35494   2.38468   2.42335
 Alpha virt. eigenvalues --    2.43628   2.47569   2.69373   2.78027   2.82668
 Alpha virt. eigenvalues --    2.95390   2.97605   3.01871   3.10009   3.26353
 Alpha virt. eigenvalues --    3.31152   3.62375   3.74433   3.83981   3.84149
 Alpha virt. eigenvalues --    4.08217   4.47770   4.95263
  Beta  occ. eigenvalues --  -20.60261 -11.20722  -1.26439  -0.92737  -0.66757
  Beta  occ. eigenvalues --   -0.55402  -0.55145  -0.50727  -0.49389
  Beta virt. eigenvalues --    0.05246   0.09429   0.12135   0.12703   0.13982
  Beta virt. eigenvalues --    0.21450   0.27244   0.27290   0.33825   0.35397
  Beta virt. eigenvalues --    0.35423   0.39869   0.42075   0.58164   0.83852
  Beta virt. eigenvalues --    0.83953   0.93416   1.18806   1.19270   1.22147
  Beta virt. eigenvalues --    1.25388   1.33606   1.37976   1.41028   1.47673
  Beta virt. eigenvalues --    1.54660   1.63253   1.65211   1.79215   1.82604
  Beta virt. eigenvalues --    1.93650   2.01019   2.12724   2.35360   2.38392
  Beta virt. eigenvalues --    2.42796   2.44185   2.48937   2.70783   2.79860
  Beta virt. eigenvalues --    2.84788   2.95547   2.97796   3.03156   3.11114
  Beta virt. eigenvalues --    3.27009   3.32134   3.63045   3.75580   3.84469
  Beta virt. eigenvalues --    3.84667   4.10609   4.50440   4.96509
          Condensed to atoms (all electrons):
              1          2          3          4          5          6
     1  C    5.022841   0.396993   0.401341   0.397004   0.371924  -0.087688
     2  H    0.396993   0.551092  -0.027739  -0.029573  -0.028326   0.003821
     3  H    0.401341  -0.027739   0.527787  -0.027741  -0.022149   0.003550
     4  H    0.397004  -0.029573  -0.027741   0.551044  -0.028317   0.003820
     5  H    0.371924  -0.028326  -0.022149  -0.028317   0.662132  -0.135506
     6  O   -0.087688   0.003821   0.003550   0.003820  -0.135506   8.402568
     7  H    0.006993  -0.000273   0.000055  -0.000272   0.003012   0.251605
              7
     1  C    0.006993
     2  H   -0.000273
     3  H    0.000055
     4  H   -0.000272
     5  H    0.003012
     6  O    0.251605
     7  H    0.377471
 Mulliken atomic charges:
              1
     1  C   -0.509407
     2  H    0.134005
     3  H    0.144896
     4  H    0.134036
     5  H    0.177231
     6  O   -0.442170
     7  H    0.361409
 Sum of Mulliken atomic charges =   0.00000
 Mulliken charges with hydrogens summed into heavy atoms:
              1
     1  C    0.080761
     6  O   -0.080761
 Sum of Mulliken charges with hydrogens summed into heavy atoms =   0.00000
          Atomic-Atomic Spin Densities.
              1          2          3          4          5          6
     1  C    0.469753  -0.011876  -0.012196  -0.011878   0.079017  -0.068934
     2  H   -0.011876  -0.023331   0.001765   0.001166   0.006961   0.002121
     3  H   -0.012196   0.001765  -0.015529   0.001766   0.001877   0.002870
     4  H   -0.011878   0.001166   0.001766  -0.023314   0.006952   0.002123
     5  H    0.079017   0.006961   0.001877   0.006952  -0.230017  -0.058414
     6  O   -0.068934   0.002121   0.002870   0.002123  -0.058414   0.970830
     7  H    0.001952  -0.000025  -0.000055  -0.000025   0.002325  -0.004741
              7
     1  C    0.001952
     2  H   -0.000025
     3  H   -0.000055
     4  H   -0.000025
     5  H    0.002325
     6  O   -0.004741
     7  H   -0.033896
 Mulliken atomic spin densities:
              1
     1  C    0.445837
     2  H   -0.023218
     3  H   -0.019501
     4  H   -0.023210
     5  H   -0.191298
     6  O    0.845855
     7  H   -0.034465
 Sum of Mulliken atomic spin densities =   1.00000
 APT atomic charges:
              1
     1  C   -1.217574
     2  H    0.360161
     3  H    0.391450
     4  H    0.360231
     5  H    0.221558
     6  O   -0.709157
     7  H    0.593332
 Sum of APT charges=   0.00000
 APT Atomic charges with hydrogens summed into heavy atoms:
              1
     1  C    0.115825
     2  H    0.000000
     3  H    0.000000
     4  H    0.000000
     5  H    0.000000
     6  O   -0.115825
     7  H    0.000000
 Sum of APT charges=   0.00000
 Electronic spatial extent (au):  <R**2>=            158.6680
 Charge=              0.0000 electrons
 Dipole moment (field-independent basis, Debye):
    X=              0.0335    Y=             -1.6710    Z=              0.0000  Tot=              1.6713
 Quadrupole moment (field-independent basis, Debye-Ang):
   XX=            -12.6784   YY=            -13.2195   ZZ=            -15.1616
   XY=              3.0779   XZ=              0.0000   YZ=             -0.0001
 Traceless Quadrupole moment (field-independent basis, Debye-Ang):
   XX=              1.0081   YY=              0.4670   ZZ=             -1.4751
   XY=              3.0779   XZ=              0.0000   YZ=             -0.0001
 Octapole moment (field-independent basis, Debye-Ang**2):
  XXX=            -11.2426  YYY=             -1.0808  ZZZ=              0.0031  XYY=             -3.5140
  XXY=             -4.7473  XXZ=             -0.0001  XZZ=             -0.6907  YZZ=             -0.8241
  YYZ=             -0.0031  XYZ=             -0.0004
 Hexadecapole moment (field-independent basis, Debye-Ang**3):
 XXXX=           -147.9040 YYYY=            -20.9174 ZZZZ=            -21.2047 XXXY=              9.8251
 XXXZ=             -0.0002 YYYX=              4.3427 YYYZ=              0.0001 ZZZX=              0.0056
 ZZZY=             -0.0003 XXYY=            -25.4944 XXZZ=            -30.3513 YYZZ=             -7.1562
 XXYZ=             -0.0011 YYXZ=             -0.0056 ZZXY=             -0.3208
 N-N= 3.714946489134D+01 E-N=-5.132416751970D+02  KE= 1.716100714544D+02
  Exact polarizability:   0.000   0.000   0.000   0.000   0.000   0.000
 Approx polarizability:  21.230   0.511  15.070   0.000   0.000  13.788
                          Isotropic Fermi Contact Couplings
        Atom                 a.u.       MegaHertz       Gauss      10(-4) cm-1
     1  C(13)              0.15982     179.66391      64.10855      59.92943
     2  H(1)              -0.00693     -30.95814     -11.04663     -10.32652
     3  H(1)              -0.00507     -22.65046      -8.08225      -7.55538
     4  H(1)              -0.00692     -30.94149     -11.04069     -10.32097
     5  H(1)              -0.05387    -240.80469     -85.92510     -80.32380
     6  O(17)              0.15839     -96.01577     -34.26081     -32.02741
     7  H(1)              -0.01935     -86.47877     -30.85778     -28.84621
 --------------------------------------------------------
       Center         ----  Spin Dipole Couplings  ----
                      3XX-RR        3YY-RR        3ZZ-RR
 --------------------------------------------------------
     1   Atom        0.413793     -0.207445     -0.206349
     2   Atom        0.004350     -0.014951      0.010601
     3   Atom        0.005645      0.024027     -0.029672
     4   Atom        0.004353     -0.015138      0.010785
     5   Atom        0.284769     -0.142157     -0.142611
     6   Atom        2.605502     -1.081361     -1.524140
     7   Atom       -0.013834      0.136903     -0.123068
 --------------------------------------------------------
                        XY            XZ            YZ
 --------------------------------------------------------
     1   Atom       -0.020768      0.000000      0.000005
     2   Atom       -0.009562     -0.014008      0.024306
     3   Atom        0.016864     -0.000036     -0.000106
     4   Atom       -0.009510      0.014044     -0.024206
     5   Atom       -0.001325      0.000000      0.000001
     6   Atom       -1.369709      0.000005     -0.000002
     7   Atom        0.070095      0.000000      0.000000
 --------------------------------------------------------


 ---------------------------------------------------------------------------------
              Anisotropic Spin Dipole Couplings in Principal Axis System
 ---------------------------------------------------------------------------------

       Atom             a.u.   MegaHertz   Gauss  10(-4) cm-1        Axes

              Baa    -0.2081   -27.930    -9.966    -9.317  0.0334  0.9994 -0.0030
     1 C(13)  Bbb    -0.2063   -27.690    -9.880    -9.236  0.0001  0.0030  1.0000
              Bcc     0.4145    55.620    19.847    18.553  0.9994 -0.0334  0.0000
 
              Baa    -0.0297   -15.828    -5.648    -5.280  0.0327  0.8606 -0.5082
     2 H(1)   Bbb    -0.0051    -2.702    -0.964    -0.901  0.8727  0.2232  0.4342
              Bcc     0.0347    18.530     6.612     6.181 -0.4871  0.4577  0.7438
 
              Baa    -0.0297   -15.832    -5.649    -5.281  0.0001  0.0020  1.0000
     3 H(1)   Bbb    -0.0044    -2.332    -0.832    -0.778  0.8598 -0.5106  0.0009
              Bcc     0.0340    18.163     6.481     6.059  0.5106  0.8598 -0.0017
 
              Baa    -0.0297   -15.828    -5.648    -5.280  0.0328  0.8626  0.5048
     4 H(1)   Bbb    -0.0051    -2.701    -0.964    -0.901  0.8727  0.2215 -0.4351
              Bcc     0.0347    18.529     6.611     6.180  0.4871 -0.4548  0.7456
 
              Baa    -0.1426   -76.091   -27.151   -25.381  0.0000 -0.0026  1.0000
     5 H(1)   Bbb    -0.1422   -75.851   -27.065   -25.301  0.0031  1.0000  0.0026
              Bcc     0.2848   151.941    54.216    50.682  1.0000 -0.0031  0.0000
 
              Baa    -1.5345   111.037    39.621    37.038  0.3141  0.9494  0.0001
     6 O(17)  Bbb    -1.5241   110.286    39.353    36.787  0.0000 -0.0001  1.0000
              Bcc     3.0587  -221.323   -78.973   -73.825  0.9494 -0.3141  0.0000
 
              Baa    -0.1231   -65.663   -23.430   -21.903  0.0000  0.0000  1.0000
     7 H(1)   Bbb    -0.0414   -22.085    -7.880    -7.367  0.9307 -0.3659  0.0000
              Bcc     0.1645    87.748    31.311    29.270  0.3659  0.9307  0.0000
 

 ---------------------------------------------------------------------------------

 Calling FoFJK, ICntrl=    100147 FMM=F ISym2X=0 I1Cent= 0 IOpClX= 1 NMat=1 NMatS=1 NMatT=0.
 ***** Axes restored to original set *****
 -------------------------------------------------------------------
 Center     Atomic                   Forces (Hartrees/Bohr)
 Number     Number              X              Y              Z
 -------------------------------------------------------------------
      1        6           0.001558527   -0.012667813    0.004784255
      2        1           0.005071761    0.002147683    0.009248169
      3        1           0.006214679   -0.000840319   -0.009661072
      4        1          -0.010251706   -0.003278381   -0.000135653
      5        1          -0.017230800    0.049340183   -0.000349775
      6        8           0.016450274   -0.045025229   -0.000872049
      7        1          -0.001812736    0.010323875   -0.003013875
 -------------------------------------------------------------------
 Cartesian Forces:  Max     0.049340183 RMS     0.016474013

 GradGradGradGradGradGradGradGradGradGradGradGradGradGradGradGradGradGrad
 Berny optimization.
 Internal  Forces:  Max     0.037595903 RMS     0.011501648
 Search for a saddle point.
 Step number   1 out of a maximum of   28
 All quantities printed in internal units (Hartrees-Bohrs-Radians)
 Swaping is turned off.
 Second derivative matrix not updated -- analytic derivatives used.
 The second derivative matrix:
                          R1        R2        R3        R4        R5
           R1           0.40529
           R2           0.00216   0.40656
           R3           0.00223   0.00216   0.40529
           R4           0.00384   0.00271   0.00384   0.16115
           R5          -0.00189  -0.00170  -0.00189   0.12356  -0.00973
           R6          -0.00027  -0.00037  -0.00027   0.00541  -0.01082
           A1           0.00824   0.00797  -0.00355  -0.01456   0.00990
           A2           0.00814  -0.00363   0.00814  -0.01467   0.00955
           A3           0.00176  -0.00704  -0.00722   0.01591  -0.00884
           A4          -0.00355   0.00797   0.00823  -0.01456   0.00990
           A5          -0.00736   0.00178  -0.00736   0.01198  -0.01167
           A6          -0.00722  -0.00704   0.00176   0.01590  -0.00884
           A7          -0.00062  -0.00181  -0.00062   0.00689  -0.01932
           A8           0.00119  -0.00340   0.00119   0.00202  -0.00035
           A9          -0.00170   0.00000   0.00170   0.00000   0.00000
           D1           0.00010  -0.00599   0.00614   0.00043   0.00049
           D2           0.00669   0.00000  -0.00669   0.00000   0.00000
           D3          -0.00614   0.00599  -0.00010  -0.00043  -0.00049
                          R6        A1        A2        A3        A4
           R6           0.56914
           A1           0.00125   0.07015
           A2           0.00113  -0.00441   0.07128
           A3          -0.00081  -0.03180  -0.03164   0.09077
           A4           0.00125  -0.00408  -0.00441   0.00038   0.07015
           A5          -0.00201  -0.03025   0.00081  -0.01406  -0.03025
           A6          -0.00081   0.00038  -0.03164  -0.01366  -0.03180
           A7          -0.00131   0.00183   0.00235  -0.00352   0.00183
           A8           0.00140  -0.00208   0.01008   0.00146  -0.00208
           A9           0.00000  -0.00443   0.00000  -0.00253   0.00443
           D1          -0.00003  -0.02395   0.02267   0.00122  -0.00002
           D2           0.00000   0.02297   0.00000   0.00910  -0.02297
           D3           0.00003   0.00002  -0.02267  -0.00679   0.02395
                          A5        A6        A7        A8        A9
           A5           0.08780
           A6          -0.01405   0.09076
           A7           0.00102  -0.00351   0.06954
           A8          -0.00883   0.00146  -0.00597   0.02622
           A9           0.00000   0.00253   0.00001  -0.00001   0.00571
           D1          -0.00670   0.00679   0.00024   0.00289   0.00115
           D2           0.00000  -0.00910   0.00000   0.00000  -0.00497
           D3           0.00671  -0.00122  -0.00024  -0.00289   0.00115
                          D1        D2        D3
           D1           0.02122
           D2          -0.01084   0.02212
           D3          -0.01053  -0.01084   0.02122
     Eigenvalues ---   -0.08483  -0.00043   0.00520   0.02347   0.07205
     Eigenvalues ---    0.08491   0.08635   0.12453   0.12639   0.12679
     Eigenvalues ---    0.23032   0.40416   0.40504   0.41130   0.56939
     Eigenvalues --- 1000.000001000.000001000.00000
 Eigenvectors required to have negative eigenvalues:
                          R5        R4        A7        A5        A4
   1                    0.85653  -0.46169   0.13494   0.07720  -0.07513
                          A1        A2        A6        A3        A8
   1                   -0.07513  -0.07407   0.07357   0.07356   0.02651
 RFO step:  Lambda0=1.270679834D-02 Lambda=-8.58118562D-03.
 Linear search not attempted -- option 19 set.
 Maximum step size (   0.300) exceeded in Quadratic search.
    -- Step size scaled by   0.340
 Iteration  1 RMS(Cart)=  0.07078832 RMS(Int)=  0.00518376
 Iteration  2 RMS(Cart)=  0.00410806 RMS(Int)=  0.00028734
 Iteration  3 RMS(Cart)=  0.00001574 RMS(Int)=  0.00028658
 Iteration  4 RMS(Cart)=  0.00000000 RMS(Int)=  0.00028658
 Variable       Old X    -DE/DX   Delta X   Delta X   Delta X     New X
                                 (Linear)    (Quad)   (Total)
    R1        2.02201   0.01025   0.00000   0.00538   0.00538   2.02739
    R2        2.02201   0.00956   0.00000   0.00542   0.00543   2.02743
    R3        2.02201   0.01025   0.00000   0.00549   0.00549   2.02750
    R4        2.26767  -0.01467   0.00000   0.05595   0.05595   2.32362
    R5        2.45664   0.03760   0.00000  -0.08406  -0.08406   2.37259
    R6        1.81414  -0.00673   0.00000  -0.00674  -0.00674   1.80739
    A1        1.91063   0.00444   0.00000   0.02692   0.02671   1.93735
    A2        1.91063   0.00422   0.00000   0.02711   0.02686   1.93749
    A3        1.91063  -0.00228   0.00000  -0.02425  -0.02447   1.88617
    A4        1.91063   0.00444   0.00000   0.02426   0.02352   1.93416
    A5        1.91063  -0.00854   0.00000  -0.03670  -0.03714   1.87349
    A6        1.91063  -0.00229   0.00000  -0.01734  -0.01780   1.89283
    A7        1.91114  -0.01557   0.00000  -0.10062  -0.10062   1.81052
    A8        3.14159   0.00470   0.00000   0.01042   0.01036   3.15195
    A9        3.14159  -0.00001   0.00000   0.06718   0.06723   3.20883
    D1        1.04526   0.00044   0.00000   0.14110   0.14114   1.18640
    D2        3.13965   0.00000   0.00000   0.14848   0.14804  -2.99550
    D3       -1.04914  -0.00044   0.00000   0.13668   0.13709  -0.91204
         Item               Value     Threshold  Converged?
 Maximum Force            0.037596     0.000450     NO 
 RMS     Force            0.011502     0.000300     NO 
 Maximum Displacement     0.171185     0.001800     NO 
 RMS     Displacement     0.072647     0.001200     NO 
 Predicted change in Energy= 1.205481D-03
 GradGradGradGradGradGradGradGradGradGradGradGradGradGradGradGradGradGrad

                          Input orientation:                          
 ---------------------------------------------------------------------
 Center     Atomic      Atomic             Coordinates (Angstroms)
 Number     Number       Type             X           Y           Z
 ---------------------------------------------------------------------
      1          6           0        0.743726    1.763802   -0.864631
      2          1           0        1.115645    2.269461    0.005418
      3          1           0        1.085318    2.241573   -1.762464
      4          1           0       -0.327474    1.705824   -0.847365
      5          1           0        1.195436    0.620171   -0.863344
      6          8           0        1.612614   -0.563983   -0.871553
      7          1           0        1.167380   -0.966773   -0.127048
 ---------------------------------------------------------------------
                    Distance matrix (angstroms):
                    1          2          3          4          5
     1  C    0.000000
     2  H    1.072846   0.000000
     3  H    1.072871   1.768361   0.000000
     4  H    1.072907   1.768478   1.766470   0.000000
     5  H    1.229608   1.865816   1.857279   1.870334   0.000000
     6  O    2.484673   3.007401   2.990469   2.986059   1.255519
     7  H    2.859992   3.239357   3.602055   3.145826   1.749660
                    6          7
     6  O    0.000000
     7  H    0.956431   0.000000
 Stoichiometry    CH5O(2)
 Framework group  C1[X(CH5O)]
 Deg. of freedom    15
 Full point group                 C1      NOp   1
 Largest Abelian subgroup         C1      NOp   1
 Largest concise Abelian subgroup C1      NOp   1
                         Standard orientation:                         
 ---------------------------------------------------------------------
 Center     Atomic      Atomic             Coordinates (Angstroms)
 Number     Number       Type             X           Y           Z
 ---------------------------------------------------------------------
      1          6           0       -1.201924   -0.010081   -0.000105
      2          1           0       -1.529026   -0.408339    0.940849
      3          1           0       -1.576286    0.984463   -0.147716
      4          1           0       -1.491545   -0.650745   -0.810537
      5          1           0        0.025514    0.059716    0.021285
      6          8           0        1.279821    0.110502   -0.000238
      7          1           0        1.544323   -0.808627   -0.001344
 ---------------------------------------------------------------------
 Rotational constants (GHZ):    127.5467666      9.2950766      9.1588100
 Standard basis: 6-31+G(d,p) (6D, 7F)
 There are    63 symmetry adapted basis functions of A   symmetry.
 Integral buffers will be    262144 words long.
 Raffenetti 2 integral format.
 Two-electron integral symmetry is turned on.
    63 basis functions,    99 primitive gaussians,    63 cartesian basis functions
    10 alpha electrons        9 beta electrons
       nuclear repulsion energy        37.3629951739 Hartrees.
 NAtoms=    7 NActive=    7 NUniq=    7 SFac= 7.50D-01 NAtFMM=   80 NAOKFM=F Big=F
 One-electron integrals computed using PRISM.
 NBasis=    63 RedAO= T  NBF=    63
 NBsUse=    63 1.00D-06 NBFU=    63
 Initial guess read from the read-write file.
 B after Tr=     0.000000    0.000000    0.000000
         Rot=    1.000000    0.000000    0.000000    0.000000 Ang=   0.00 deg.
 Initial guess orbital symmetries:
 Alpha Orbitals:
       Occupied  (A) (A) (A) (A) (A) (A) (A) (A) (A) (A)
       Virtual   (A) (A) (A) (A) (A) (A) (A) (A) (A) (A) (A) (A)
                 (A) (A) (A) (A) (A) (A) (A) (A) (A) (A) (A) (A)
                 (A) (A) (A) (A) (A) (A) (A) (A) (A) (A) (A) (A)
                 (A) (A) (A) (A) (A) (A) (A) (A) (A) (A) (A) (A)
                 (A) (A) (A) (A) (A)
 Beta  Orbitals:
       Occupied  (A) (A) (A) (A) (A) (A) (A) (A) (A)
       Virtual   (A) (A) (A) (A) (A) (A) (A) (A) (A) (A) (A) (A)
                 (A) (A) (A) (A) (A) (A) (A) (A) (A) (A) (A) (A)
                 (A) (A) (A) (A) (A) (A) (A) (A) (A) (A) (A) (A)
                 (A) (A) (A) (A) (A) (A) (A) (A) (A) (A) (A) (A)
                 (A) (A) (A) (A) (A) (A)
 Initial guess <Sx>= 0.0000 <Sy>= 0.0000 <Sz>= 0.5000 <S**2>= 1.1158 S= 0.6687
 Harris functional with IExCor=  205 diagonalized for initial guess.
 ExpMin= 4.38D-02 ExpMax= 5.48D+03 ExpMxC= 8.25D+02 IAcc=2 IRadAn=         0 AccDes= 0.00D+00
 HarFok:  IExCor=  205 AccDes= 0.00D+00 IRadAn=         0 IDoV= 1
 ScaDFX=  1.000000  1.000000  1.000000  1.000000
 FoFCou: FMM=F IPFlag=           0 FMFlag=      100000 FMFlg1=           0
         NFxFlg=           0 DoJE=T BraDBF=F KetDBF=T FulRan=T
         Omega=  0.000000  0.000000  1.000000  0.000000  0.000000 ICntrl=     500 IOpCl=  0
         NMat0=    1 NMatS0=    1 NMatT0=    0 NMatD0=    1 NMtDS0=    0 NMtDT0=    0
         I1Cent=           4 NGrid=           0.
 Petite list used in FoFCou.
 Requested convergence on RMS density matrix=1.00D-08 within 128 cycles.
 Requested convergence on MAX density matrix=1.00D-06.
 Requested convergence on             energy=1.00D-06.
 No special actions if energy rises.
 Keep R1 and R2 ints in memory in canonical form, NReq=4917112.
 SCF Done:  E(UHF) =  -115.550744637     A.U. after   20 cycles
             Convg  =    0.2173D-08             -V/T =  2.0015
 <Sx>= 0.0000 <Sy>= 0.0000 <Sz>= 0.5000 <S**2>= 0.7874 S= 0.5186
 <L.S>= 0.000000000000E+00
 Annihilation of the first spin contaminant:
 S**2 before annihilation     0.7874,   after     0.7505
 Calling FoFJK, ICntrl=      2127 FMM=F ISym2X=0 I1Cent= 0 IOpClX= 1 NMat=1 NMatS=1 NMatT=0.
 ***** Axes restored to original set *****
 -------------------------------------------------------------------
 Center     Atomic                   Forces (Hartrees/Bohr)
 Number     Number              X              Y              Z
 -------------------------------------------------------------------
      1        6           0.000546741   -0.005814990    0.002974248
      2        1           0.003596740    0.001431773    0.006122416
      3        1           0.004180755   -0.000708021   -0.006427628
      4        1          -0.006767047   -0.002587838    0.000096408
      5        1          -0.011440654    0.030869930   -0.001004506
      6        8           0.009901691   -0.028948672    0.000862025
      7        1          -0.000018225    0.005757818   -0.002622962
 -------------------------------------------------------------------
 Cartesian Forces:  Max     0.030869930 RMS     0.010394409

 GradGradGradGradGradGradGradGradGradGradGradGradGradGradGradGradGradGrad
 Berny optimization.
 Internal  Forces:  Max     0.025168616 RMS     0.007417399
 Search for a saddle point.
 Step number   2 out of a maximum of   28
 All quantities printed in internal units (Hartrees-Bohrs-Radians)
 Swaping is turned off.
 Update second derivatives using D2CorX and points    1    2
 The second derivative matrix:
                          R1        R2        R3        R4        R5
           R1           0.40528
           R2           0.00215   0.40656
           R3           0.00223   0.00215   0.40528
           R4           0.00365   0.00254   0.00364   0.15793
           R5          -0.00178  -0.00162  -0.00176   0.12674  -0.01187
           R6          -0.00026  -0.00037  -0.00026   0.00562  -0.01092
           A1           0.00822   0.00796  -0.00357  -0.01537   0.01026
           A2           0.00812  -0.00363   0.00812  -0.01550   0.00993
           A3           0.00179  -0.00702  -0.00718   0.01682  -0.00944
           A4          -0.00357   0.00796   0.00822  -0.01530   0.01026
           A5          -0.00733   0.00179  -0.00732   0.01317  -0.01227
           A6          -0.00720  -0.00702   0.00178   0.01657  -0.00929
           A7          -0.00072  -0.00196  -0.00071   0.00839  -0.01820
           A8           0.00120  -0.00339   0.00120   0.00188  -0.00048
           A9          -0.00173   0.00000   0.00167  -0.00193   0.00074
           D1           0.00002  -0.00601   0.00605  -0.00379   0.00231
           D2           0.00661  -0.00002  -0.00679  -0.00440   0.00186
           D3          -0.00622   0.00597  -0.00019  -0.00456   0.00133
                          R6        A1        A2        A3        A4
           R6           0.56914
           A1           0.00126   0.07014
           A2           0.00113  -0.00442   0.07126
           A3          -0.00083  -0.03171  -0.03154   0.09061
           A4           0.00126  -0.00410  -0.00443   0.00048   0.07012
           A5          -0.00203  -0.03020   0.00086  -0.01422  -0.03019
           A6          -0.00083   0.00046  -0.03156  -0.01378  -0.03172
           A7          -0.00113   0.00106   0.00160  -0.00316   0.00121
           A8           0.00138  -0.00200   0.01016   0.00142  -0.00201
           A9           0.00000  -0.00440   0.00001  -0.00234   0.00442
           D1          -0.00001  -0.02397   0.02261   0.00170  -0.00012
           D2           0.00002   0.02297  -0.00004   0.00959  -0.02306
           D3           0.00005  -0.00001  -0.02274  -0.00631   0.02384
                          A5        A6        A7        A8        A9
           A5           0.08769
           A6          -0.01418   0.09067
           A7           0.00196  -0.00326   0.07560
           A8          -0.00894   0.00143  -0.00661   0.02629
           A9           0.00004   0.00268  -0.00214   0.00022   0.00593
           D1          -0.00650   0.00715  -0.00392   0.00334   0.00138
           D2           0.00019  -0.00872  -0.00443   0.00048  -0.00469
           D3           0.00693  -0.00085  -0.00422  -0.00246   0.00134
                          D1        D2        D3
           D1           0.02122
           D2          -0.01075   0.02231
           D3          -0.01060  -0.01083   0.02108
     Eigenvalues ---   -0.09048  -0.00084   0.00523   0.02347   0.07773
     Eigenvalues ---    0.08486   0.08730   0.12459   0.12637   0.12651
     Eigenvalues ---    0.23042   0.40416   0.40503   0.41126   0.56939
     Eigenvalues --- 1000.000001000.000001000.00000
 Eigenvectors required to have negative eigenvalues:
                          R5        R4        A7        A5        A3
   1                    0.85119  -0.46979   0.11930   0.08185   0.07789
                          A6        A1        A2        A4        D1
   1                    0.07680  -0.07588  -0.07380  -0.07314  -0.03995
 RFO step:  Lambda0=5.449001221D-03 Lambda=-3.26177035D-03.
 Linear search not attempted -- option 19 set.
 Maximum step size (   0.300) exceeded in Quadratic search.
    -- Step size scaled by   0.373
 Iteration  1 RMS(Cart)=  0.05594141 RMS(Int)=  0.00421198
 Iteration  2 RMS(Cart)=  0.00327301 RMS(Int)=  0.00015749
 Iteration  3 RMS(Cart)=  0.00000711 RMS(Int)=  0.00015724
 Iteration  4 RMS(Cart)=  0.00000000 RMS(Int)=  0.00015724
 Variable       Old X    -DE/DX   Delta X   Delta X   Delta X     New X
                                 (Linear)    (Quad)   (Total)
    R1        2.02739   0.00689   0.00000   0.00427   0.00427   2.03166
    R2        2.02743   0.00639   0.00000   0.00433   0.00433   2.03176
    R3        2.02750   0.00690   0.00000   0.00442   0.00442   2.03192
    R4        2.32362  -0.00771   0.00000   0.04504   0.04504   2.36866
    R5        2.37259   0.02517   0.00000  -0.04452  -0.04452   2.32807
    R6        1.80739  -0.00446   0.00000  -0.00457  -0.00457   1.80283
    A1        1.93735   0.00296   0.00000   0.01942   0.01925   1.95660
    A2        1.93749   0.00286   0.00000   0.01930   0.01910   1.95659
    A3        1.88617  -0.00180   0.00000  -0.02048  -0.02064   1.86552
    A4        1.93416   0.00302   0.00000   0.01711   0.01672   1.95087
    A5        1.87349  -0.00587   0.00000  -0.02781  -0.02806   1.84543
    A6        1.89283  -0.00173   0.00000  -0.01103  -0.01129   1.88154
    A7        1.81052  -0.00812   0.00000  -0.02708  -0.02708   1.78344
    A8        3.15195   0.00297   0.00000   0.00866   0.00864   3.16059
    A9        3.20883  -0.00013   0.00000   0.04967   0.04969   3.25852
    D1        1.18640   0.00033   0.00000   0.16316   0.16317   1.34957
    D2       -2.99550  -0.00001   0.00000   0.16660   0.16641  -2.82909
    D3       -0.91204  -0.00021   0.00000   0.16095   0.16112  -0.75092
         Item               Value     Threshold  Converged?
 Maximum Force            0.025169     0.000450     NO 
 RMS     Force            0.007417     0.000300     NO 
 Maximum Displacement     0.132294     0.001800     NO 
 RMS     Displacement     0.056450     0.001200     NO 
 Predicted change in Energy= 5.433078D-04
 GradGradGradGradGradGradGradGradGradGradGradGradGradGradGradGradGradGrad

                          Input orientation:                          
 ---------------------------------------------------------------------
 Center     Atomic      Atomic             Coordinates (Angstroms)
 Number     Number       Type             X           Y           Z
 ---------------------------------------------------------------------
      1          6           0        0.741824    1.770419   -0.859055
      2          1           0        1.129111    2.286617    0.000830
      3          1           0        1.068600    2.217648   -1.780563
      4          1           0       -0.327993    1.669009   -0.822217
      5          1           0        1.236646    0.618860   -0.845856
      6          8           0        1.647084   -0.542718   -0.844583
      7          1           0        1.097374   -0.949761   -0.179544
 ---------------------------------------------------------------------
                    Distance matrix (angstroms):
                    1          2          3          4          5
     1  C    0.000000
     2  H    1.075106   0.000000
     3  H    1.075162   1.783754   0.000000
     4  H    1.075244   1.783816   1.780422   0.000000
     5  H    1.253440   1.873461   1.859581   1.884534   0.000000
     6  O    2.484011   2.998025   2.971586   2.965327   1.231959
     7  H    2.826222   3.241556   3.549165   3.050026   1.709953
                    6          7
     6  O    0.000000
     7  H    0.954014   0.000000
 Stoichiometry    CH5O(2)
 Framework group  C1[X(CH5O)]
 Deg. of freedom    15
 Full point group                 C1      NOp   1
 Largest Abelian subgroup         C1      NOp   1
 Largest concise Abelian subgroup C1      NOp   1
                         Standard orientation:                         
 ---------------------------------------------------------------------
 Center     Atomic      Atomic             Coordinates (Angstroms)
 Number     Number       Type             X           Y           Z
 ---------------------------------------------------------------------
      1          6           0        1.204013    0.009982   -0.000255
      2          1           0        1.527270    0.250343    0.996533
      3          1           0        1.553623   -0.956139   -0.317045
      4          1           0        1.462661    0.778906   -0.705950
      5          1           0       -0.046104   -0.074989    0.032940
      6          8           0       -1.277128   -0.109393   -0.000511
      7          1           0       -1.504501    0.817130   -0.000865
 ---------------------------------------------------------------------
 Rotational constants (GHZ):    125.4545749      9.3464875      9.2073085
 Standard basis: 6-31+G(d,p) (6D, 7F)
 There are    63 symmetry adapted basis functions of A   symmetry.
 Integral buffers will be    262144 words long.
 Raffenetti 2 integral format.
 Two-electron integral symmetry is turned on.
    63 basis functions,    99 primitive gaussians,    63 cartesian basis functions
    10 alpha electrons        9 beta electrons
       nuclear repulsion energy        37.4131766603 Hartrees.
 NAtoms=    7 NActive=    7 NUniq=    7 SFac= 7.50D-01 NAtFMM=   80 NAOKFM=F Big=F
 One-electron integrals computed using PRISM.
 NBasis=    63 RedAO= T  NBF=    63
 NBsUse=    63 1.00D-06 NBFU=    63
 Initial guess read from the read-write file.
 B after Tr=     0.000000    0.000000    0.000000
         Rot=    1.000000    0.000000    0.000000    0.000000 Ang=   0.00 deg.
 Initial guess orbital symmetries:
 Alpha Orbitals:
       Occupied  (A) (A) (A) (A) (A) (A) (A) (A) (A) (A)
       Virtual   (A) (A) (A) (A) (A) (A) (A) (A) (A) (A) (A) (A)
                 (A) (A) (A) (A) (A) (A) (A) (A) (A) (A) (A) (A)
                 (A) (A) (A) (A) (A) (A) (A) (A) (A) (A) (A) (A)
                 (A) (A) (A) (A) (A) (A) (A) (A) (A) (A) (A) (A)
                 (A) (A) (A) (A) (A)
 Beta  Orbitals:
       Occupied  (A) (A) (A) (A) (A) (A) (A) (A) (A)
       Virtual   (A) (A) (A) (A) (A) (A) (A) (A) (A) (A) (A) (A)
                 (A) (A) (A) (A) (A) (A) (A) (A) (A) (A) (A) (A)
                 (A) (A) (A) (A) (A) (A) (A) (A) (A) (A) (A) (A)
                 (A) (A) (A) (A) (A) (A) (A) (A) (A) (A) (A) (A)
                 (A) (A) (A) (A) (A) (A)
 Initial guess <Sx>= 0.0000 <Sy>= 0.0000 <Sz>= 0.5000 <S**2>= 1.2263 S= 0.7150
 Harris functional with IExCor=  205 diagonalized for initial guess.
 ExpMin= 4.38D-02 ExpMax= 5.48D+03 ExpMxC= 8.25D+02 IAcc=2 IRadAn=         0 AccDes= 0.00D+00
 HarFok:  IExCor=  205 AccDes= 0.00D+00 IRadAn=         0 IDoV= 1
 ScaDFX=  1.000000  1.000000  1.000000  1.000000
 FoFCou: FMM=F IPFlag=           0 FMFlag=      100000 FMFlg1=           0
         NFxFlg=           0 DoJE=T BraDBF=F KetDBF=T FulRan=T
         Omega=  0.000000  0.000000  1.000000  0.000000  0.000000 ICntrl=     500 IOpCl=  0
         NMat0=    1 NMatS0=    1 NMatT0=    0 NMatD0=    1 NMtDS0=    0 NMtDT0=    0
         I1Cent=           4 NGrid=           0.
 Petite list used in FoFCou.
 Requested convergence on RMS density matrix=1.00D-08 within 128 cycles.
 Requested convergence on MAX density matrix=1.00D-06.
 Requested convergence on             energy=1.00D-06.
 No special actions if energy rises.
 Keep R1 and R2 ints in memory in canonical form, NReq=4917112.
 SCF Done:  E(UHF) =  -115.550212866     A.U. after   19 cycles
             Convg  =    0.8217D-08             -V/T =  2.0017
 <Sx>= 0.0000 <Sy>= 0.0000 <Sz>= 0.5000 <S**2>= 0.7912 S= 0.5204
 <L.S>= 0.000000000000E+00
 Annihilation of the first spin contaminant:
 S**2 before annihilation     0.7912,   after     0.7505
 Calling FoFJK, ICntrl=      2127 FMM=F ISym2X=0 I1Cent= 0 IOpClX= 1 NMat=1 NMatS=1 NMatT=0.
 ***** Axes restored to original set *****
 -------------------------------------------------------------------
 Center     Atomic                   Forces (Hartrees/Bohr)
 Number     Number              X              Y              Z
 -------------------------------------------------------------------
      1        6          -0.000249766   -0.001369229    0.001734979
      2        1           0.002386462    0.000909777    0.003830431
      3        1           0.002692359   -0.000571649   -0.004041104
      4        1          -0.004215914   -0.001858062    0.000239904
      5        1          -0.006836697    0.016381652   -0.001174916
      6        8           0.005788313   -0.016915789    0.001072652
      7        1           0.000435243    0.003423300   -0.001661946
 -------------------------------------------------------------------
 Cartesian Forces:  Max     0.016915789 RMS     0.005868728

 GradGradGradGradGradGradGradGradGradGradGradGradGradGradGradGradGradGrad
 Berny optimization.
 Internal  Forces:  Max     0.014795080 RMS     0.004364164
 Search for a saddle point.
 Step number   3 out of a maximum of   28
 All quantities printed in internal units (Hartrees-Bohrs-Radians)
 Swaping is turned off.
 Update second derivatives using D2CorX and points    1    2    3
 The second derivative matrix:
                          R1        R2        R3        R4        R5
           R1           0.40528
           R2           0.00215   0.40656
           R3           0.00222   0.00215   0.40528
           R4           0.00353   0.00243   0.00350   0.15520
           R5          -0.00169  -0.00154  -0.00166   0.12914  -0.01388
           R6          -0.00026  -0.00037  -0.00026   0.00580  -0.01106
           A1           0.00821   0.00795  -0.00359  -0.01600   0.01073
           A2           0.00811  -0.00364   0.00810  -0.01609   0.01036
           A3           0.00180  -0.00701  -0.00717   0.01740  -0.00986
           A4          -0.00359   0.00795   0.00820  -0.01592   0.01074
           A5          -0.00733   0.00179  -0.00732   0.01386  -0.01273
           A6          -0.00719  -0.00702   0.00179   0.01693  -0.00955
           A7          -0.00074  -0.00199  -0.00073   0.00906  -0.01852
           A8           0.00121  -0.00338   0.00121   0.00177  -0.00044
           A9          -0.00172   0.00002   0.00167  -0.00299   0.00138
           D1           0.00000  -0.00600   0.00601  -0.00743   0.00475
           D2           0.00660   0.00000  -0.00682  -0.00807   0.00430
           D3          -0.00624   0.00598  -0.00023  -0.00814   0.00373
                          R6        A1        A2        A3        A4
           R6           0.56913
           A1           0.00128   0.07006
           A2           0.00116  -0.00449   0.07120
           A3          -0.00086  -0.03164  -0.03149   0.09057
           A4           0.00129  -0.00419  -0.00451   0.00056   0.07001
           A5          -0.00205  -0.03016   0.00089  -0.01424  -0.03012
           A6          -0.00084   0.00050  -0.03153  -0.01381  -0.03168
           A7          -0.00113   0.00100   0.00152  -0.00305   0.00120
           A8           0.00138  -0.00198   0.01019   0.00139  -0.00200
           A9           0.00002  -0.00442   0.00003  -0.00237   0.00435
           D1           0.00011  -0.02421   0.02247   0.00179  -0.00048
           D2           0.00013   0.02274  -0.00017   0.00967  -0.02341
           D3           0.00016  -0.00025  -0.02288  -0.00622   0.02349
                          A5        A6        A7        A8        A9
           A5           0.08773
           A6          -0.01419   0.09065
           A7           0.00218  -0.00320   0.07617
           A8          -0.00899   0.00141  -0.00674   0.02632
           A9          -0.00010   0.00267  -0.00265   0.00034   0.00632
           D1          -0.00666   0.00723  -0.00505   0.00362   0.00209
           D2           0.00000  -0.00866  -0.00562   0.00077  -0.00392
           D3           0.00677  -0.00078  -0.00533  -0.00218   0.00203
                          D1        D2        D3
           D1           0.02199
           D2          -0.00982   0.02341
           D3          -0.00985  -0.00992   0.02182
     Eigenvalues ---   -0.09633   0.00221   0.00535   0.02345   0.07865
     Eigenvalues ---    0.08476   0.08771   0.12453   0.12632   0.12635
     Eigenvalues ---    0.23028   0.40416   0.40503   0.41124   0.56939
     Eigenvalues --- 1000.000001000.000001000.00000
 Eigenvectors required to have negative eigenvalues:
                          R5        R4        A7        A5        A3
   1                    0.84260  -0.47404   0.11325   0.08496   0.08134
                          A6        A1        D1        A2        A4
   1                    0.07865  -0.07558  -0.07465  -0.07257  -0.07129
 RFO step:  Lambda0=1.593576594D-03 Lambda=-1.43175104D-03.
 Linear search not attempted -- option 19 set.
 Iteration  1 RMS(Cart)=  0.05298034 RMS(Int)=  0.00454445
 Iteration  2 RMS(Cart)=  0.00367648 RMS(Int)=  0.00046330
 Iteration  3 RMS(Cart)=  0.00002059 RMS(Int)=  0.00046300
 Iteration  4 RMS(Cart)=  0.00000000 RMS(Int)=  0.00046300
 Variable       Old X    -DE/DX   Delta X   Delta X   Delta X     New X
                                 (Linear)    (Quad)   (Total)
    R1        2.03166   0.00436   0.00000   0.00761   0.00761   2.03927
    R2        2.03176   0.00403   0.00000   0.00753   0.00753   2.03929
    R3        2.03192   0.00438   0.00000   0.00784   0.00784   2.03975
    R4        2.36866  -0.00290   0.00000   0.06925   0.06925   2.43791
    R5        2.32807   0.01480   0.00000  -0.05245  -0.05245   2.27562
    R6        1.80283  -0.00287   0.00000  -0.00742  -0.00742   1.79540
    A1        1.95660   0.00190   0.00000   0.02803   0.02686   1.98346
    A2        1.95659   0.00182   0.00000   0.02908   0.02844   1.98503
    A3        1.86552  -0.00133   0.00000  -0.03257  -0.03330   1.83222
    A4        1.95087   0.00199   0.00000   0.02999   0.02947   1.98035
    A5        1.84543  -0.00380   0.00000  -0.04498  -0.04567   1.79976
    A6        1.88154  -0.00125   0.00000  -0.01982  -0.02029   1.86125
    A7        1.78344  -0.00457   0.00000  -0.05079  -0.05079   1.73265
    A8        3.16059   0.00176   0.00000   0.01590   0.01586   3.17645
    A9        3.25852  -0.00035   0.00000  -0.04009  -0.04015   3.21836
    D1        1.34957   0.00022   0.00000   0.15739   0.15691   1.50648
    D2       -2.82909  -0.00006   0.00000   0.14474   0.14532  -2.68377
    D3       -0.75092  -0.00006   0.00000   0.15418   0.15409  -0.59683
         Item               Value     Threshold  Converged?
 Maximum Force            0.014795     0.000450     NO 
 RMS     Force            0.004364     0.000300     NO 
 Maximum Displacement     0.102034     0.001800     NO 
 RMS     Displacement     0.053142     0.001200     NO 
 Predicted change in Energy= 4.216725D-05
 GradGradGradGradGradGradGradGradGradGradGradGradGradGradGradGradGradGrad

                          Input orientation:                          
 ---------------------------------------------------------------------
 Center     Atomic      Atomic             Coordinates (Angstroms)
 Number     Number       Type             X           Y           Z
 ---------------------------------------------------------------------
      1          6           0        0.730951    1.782604   -0.854635
      2          1           0        1.149776    2.285275    0.003524
      3          1           0        1.063437    2.187260   -1.798174
      4          1           0       -0.338206    1.645263   -0.798702
      5          1           0        1.256073    0.604320   -0.840027
      6          8           0        1.687235   -0.519635   -0.809492
      7          1           0        1.043380   -0.915012   -0.233481
 ---------------------------------------------------------------------
                    Distance matrix (angstroms):
                    1          2          3          4          5
     1  C    0.000000
     2  H    1.079134   0.000000
     3  H    1.079147   1.806427   0.000000
     4  H    1.079392   1.807560   1.804801   0.000000
     5  H    1.290085   1.883743   1.860337   1.904467   0.000000
     6  O    2.493356   2.969407   2.948541   2.964678   1.204204
     7  H    2.785781   3.210814   3.474587   2.963657   1.649699
                    6          7
     6  O    0.000000
     7  H    0.950085   0.000000
 Stoichiometry    CH5O(2)
 Framework group  C1[X(CH5O)]
 Deg. of freedom    15
 Full point group                 C1      NOp   1
 Largest Abelian subgroup         C1      NOp   1
 Largest concise Abelian subgroup C1      NOp   1
                         Standard orientation:                         
 ---------------------------------------------------------------------
 Center     Atomic      Atomic             Coordinates (Angstroms)
 Number     Number       Type             X           Y           Z
 ---------------------------------------------------------------------
      1          6           0        1.212730    0.009464   -0.000069
      2          1           0        1.497198    0.087627    1.037957
      3          1           0        1.519641   -0.915018   -0.464499
      4          1           0        1.454317    0.884648   -0.583829
      5          1           0       -0.074016   -0.082398    0.012841
      6          8           0       -1.277889   -0.107326   -0.000437
      7          1           0       -1.450402    0.826964    0.001441
 ---------------------------------------------------------------------
 Rotational constants (GHZ):    122.4922697      9.3545399      9.2126711
 Standard basis: 6-31+G(d,p) (6D, 7F)
 There are    63 symmetry adapted basis functions of A   symmetry.
 Integral buffers will be    262144 words long.
 Raffenetti 2 integral format.
 Two-electron integral symmetry is turned on.
    63 basis functions,    99 primitive gaussians,    63 cartesian basis functions
    10 alpha electrons        9 beta electrons
       nuclear repulsion energy        37.4134310584 Hartrees.
 NAtoms=    7 NActive=    7 NUniq=    7 SFac= 7.50D-01 NAtFMM=   80 NAOKFM=F Big=F
 One-electron integrals computed using PRISM.
 NBasis=    63 RedAO= T  NBF=    63
 NBsUse=    63 1.00D-06 NBFU=    63
 Initial guess read from the read-write file.
 B after Tr=     0.000000    0.000000    0.000000
         Rot=    1.000000    0.000000    0.000000    0.000000 Ang=   0.00 deg.
 Initial guess orbital symmetries:
 Alpha Orbitals:
       Occupied  (A) (A) (A) (A) (A) (A) (A) (A) (A) (A)
       Virtual   (A) (A) (A) (A) (A) (A) (A) (A) (A) (A) (A) (A)
                 (A) (A) (A) (A) (A) (A) (A) (A) (A) (A) (A) (A)
                 (A) (A) (A) (A) (A) (A) (A) (A) (A) (A) (A) (A)
                 (A) (A) (A) (A) (A) (A) (A) (A) (A) (A) (A) (A)
                 (A) (A) (A) (A) (A)
 Beta  Orbitals:
       Occupied  (A) (A) (A) (A) (A) (A) (A) (A) (A)
       Virtual   (A) (A) (A) (A) (A) (A) (A) (A) (A) (A) (A) (A)
                 (A) (A) (A) (A) (A) (A) (A) (A) (A) (A) (A) (A)
                 (A) (A) (A) (A) (A) (A) (A) (A) (A) (A) (A) (A)
                 (A) (A) (A) (A) (A) (A) (A) (A) (A) (A) (A) (A)
                 (A) (A) (A) (A) (A) (A)
 Initial guess <Sx>= 0.0000 <Sy>= 0.0000 <Sz>= 0.5000 <S**2>= 0.7925 S= 0.5210
 Harris functional with IExCor=  205 diagonalized for initial guess.
 ExpMin= 4.38D-02 ExpMax= 5.48D+03 ExpMxC= 8.25D+02 IAcc=2 IRadAn=         0 AccDes= 0.00D+00
 HarFok:  IExCor=  205 AccDes= 0.00D+00 IRadAn=         0 IDoV= 1
 ScaDFX=  1.000000  1.000000  1.000000  1.000000
 FoFCou: FMM=F IPFlag=           0 FMFlag=      100000 FMFlg1=           0
         NFxFlg=           0 DoJE=T BraDBF=F KetDBF=T FulRan=T
         Omega=  0.000000  0.000000  1.000000  0.000000  0.000000 ICntrl=     500 IOpCl=  0
         NMat0=    1 NMatS0=    1 NMatT0=    0 NMatD0=    1 NMtDS0=    0 NMtDT0=    0
         I1Cent=           4 NGrid=           0.
 Petite list used in FoFCou.
 Requested convergence on RMS density matrix=1.00D-08 within 128 cycles.
 Requested convergence on MAX density matrix=1.00D-06.
 Requested convergence on             energy=1.00D-06.
 No special actions if energy rises.
 Keep R1 and R2 ints in memory in canonical form, NReq=4917112.
 SCF Done:  E(UHF) =  -115.550263640     A.U. after   16 cycles
             Convg  =    0.3212D-08             -V/T =  2.0020
 <Sx>= 0.0000 <Sy>= 0.0000 <Sz>= 0.5000 <S**2>= 0.7941 S= 0.5218
 <L.S>= 0.000000000000E+00
 Annihilation of the first spin contaminant:
 S**2 before annihilation     0.7941,   after     0.7506
 Calling FoFJK, ICntrl=      2127 FMM=F ISym2X=0 I1Cent= 0 IOpClX= 1 NMat=1 NMatS=1 NMatT=0.
 ***** Axes restored to original set *****
 -------------------------------------------------------------------
 Center     Atomic                   Forces (Hartrees/Bohr)
 Number     Number              X              Y              Z
 -------------------------------------------------------------------
      1        6          -0.001812630    0.004945114    0.000234523
      2        1           0.000114896   -0.000063646    0.000200991
      3        1           0.000162564   -0.000267154   -0.000214369
      4        1          -0.000198411   -0.000235482   -0.000030824
      5        1           0.003128116   -0.005260018   -0.001186003
      6        8          -0.002111449    0.002706556    0.000925155
      7        1           0.000716914   -0.001825371    0.000070527
 -------------------------------------------------------------------
 Cartesian Forces:  Max     0.005260018 RMS     0.001993345

 GradGradGradGradGradGradGradGradGradGradGradGradGradGradGradGradGradGrad
 Berny optimization.
 Internal  Forces:  Max     0.004708734 RMS     0.001428712
 Search for a saddle point.
 Step number   4 out of a maximum of   28
 All quantities printed in internal units (Hartrees-Bohrs-Radians)
 Swaping is turned off.
 Update second derivatives using D2CorX and points    2    3    4
 The second derivative matrix:
                          R1        R2        R3        R4        R5
           R1           0.40525
           R2           0.00213   0.40654
           R3           0.00220   0.00213   0.40525
           R4           0.00302   0.00197   0.00294   0.14732
           R5          -0.00147  -0.00136  -0.00142   0.13329  -0.01571
           R6          -0.00028  -0.00039  -0.00027   0.00585  -0.01096
           A1           0.00813   0.00789  -0.00368  -0.01775   0.01143
           A2           0.00804  -0.00369   0.00802  -0.01777   0.01098
           A3           0.00184  -0.00698  -0.00711   0.01897  -0.01033
           A4          -0.00366   0.00789   0.00811  -0.01761   0.01137
           A5          -0.00723   0.00186  -0.00720   0.01636  -0.01361
           A6          -0.00715  -0.00699   0.00184   0.01802  -0.00993
           A7          -0.00096  -0.00223  -0.00094   0.00815  -0.01698
           A8           0.00119  -0.00339   0.00118   0.00103  -0.00021
           A9          -0.00167   0.00006   0.00173  -0.00184   0.00094
           D1          -0.00024  -0.00616   0.00568  -0.01571   0.00724
           D2           0.00637  -0.00016  -0.00713  -0.01595   0.00668
           D3          -0.00647   0.00583  -0.00054  -0.01616   0.00609
                          R6        A1        A2        A3        A4
           R6           0.56918
           A1           0.00122   0.06981
           A2           0.00108  -0.00470   0.07103
           A3          -0.00074  -0.03152  -0.03142   0.09062
           A4           0.00121  -0.00440  -0.00469   0.00063   0.06984
           A5          -0.00191  -0.02988   0.00110  -0.01430  -0.02990
           A6          -0.00078   0.00062  -0.03143  -0.01383  -0.03158
           A7          -0.00074   0.00012   0.00055  -0.00180   0.00022
           A8           0.00132  -0.00204   0.01015   0.00137  -0.00204
           A9           0.00007  -0.00427   0.00015  -0.00243   0.00448
           D1          -0.00051  -0.02486   0.02208   0.00155  -0.00088
           D2          -0.00046   0.02212  -0.00055   0.00943  -0.02379
           D3          -0.00045  -0.00085  -0.02323  -0.00651   0.02314
                          A5        A6        A7        A8        A9
           A5           0.08747
           A6          -0.01430   0.09060
           A7           0.00377  -0.00251   0.07926
           A8          -0.00896   0.00143  -0.00732   0.02633
           A9          -0.00026   0.00260  -0.00200   0.00037   0.00624
           D1          -0.00634   0.00737  -0.01165   0.00373   0.00241
           D2           0.00031  -0.00853  -0.01189   0.00087  -0.00361
           D3           0.00702  -0.00067  -0.01187  -0.00206   0.00232
                          D1        D2        D3
           D1           0.02325
           D2          -0.00863   0.02453
           D3          -0.00836  -0.00852   0.02351
     Eigenvalues ---   -0.10635   0.00285   0.00534   0.02341   0.08224
     Eigenvalues ---    0.08451   0.09096   0.12383   0.12587   0.12624
     Eigenvalues ---    0.22950   0.40416   0.40502   0.41111   0.56943
     Eigenvalues --- 1000.000001000.000001000.00000
 Eigenvectors required to have negative eigenvalues:
                          R5        R4        D1        D2        D3
   1                    0.82246  -0.49006  -0.11611  -0.11085  -0.10895
                          A5        A3        A6        A7        A1
   1                    0.09474   0.08760   0.08185   0.07667  -0.07327
 RFO step:  Lambda0=9.721363485D-05 Lambda=-3.79846766D-04.
 Linear search not attempted -- option 19 set.
 Iteration  1 RMS(Cart)=  0.05958873 RMS(Int)=  0.00390682
 Iteration  2 RMS(Cart)=  0.00314108 RMS(Int)=  0.00005658
 Iteration  3 RMS(Cart)=  0.00001739 RMS(Int)=  0.00005544
 Iteration  4 RMS(Cart)=  0.00000000 RMS(Int)=  0.00005544
 Variable       Old X    -DE/DX   Delta X   Delta X   Delta X     New X
                                 (Linear)    (Quad)   (Total)
    R1        2.03927   0.00017   0.00000   0.00116   0.00116   2.04043
    R2        2.03929   0.00013   0.00000   0.00163   0.00163   2.04092
    R3        2.03975   0.00022   0.00000   0.00176   0.00176   2.04152
    R4        2.43791   0.00471   0.00000  -0.00227  -0.00227   2.43564
    R5        2.27562  -0.00130   0.00000   0.06611   0.06611   2.34173
    R6        1.79540   0.00032   0.00000   0.00225   0.00225   1.79766
    A1        1.98346   0.00031   0.00000  -0.00266  -0.00269   1.98077
    A2        1.98503   0.00021   0.00000  -0.00405  -0.00396   1.98107
    A3        1.83222  -0.00011   0.00000   0.00182   0.00185   1.83407
    A4        1.98035   0.00018   0.00000  -0.00265  -0.00274   1.97761
    A5        1.79976  -0.00050   0.00000   0.00091   0.00086   1.80062
    A6        1.86125  -0.00026   0.00000   0.00872   0.00872   1.86997
    A7        1.73265   0.00348   0.00000   0.10718   0.10718   1.83983
    A8        3.17645   0.00001   0.00000   0.02223   0.02220   3.19865
    A9        3.21836  -0.00030   0.00000  -0.04965  -0.04965   3.16872
    D1        1.50648   0.00000   0.00000   0.10792   0.10782   1.61430
    D2       -2.68377   0.00002   0.00000   0.10351   0.10345  -2.58031
    D3       -0.59683  -0.00007   0.00000   0.11226   0.11241  -0.48442
         Item               Value     Threshold  Converged?
 Maximum Force            0.004709     0.000450     NO 
 RMS     Force            0.001429     0.000300     NO 
 Maximum Displacement     0.199291     0.001800     NO 
 RMS     Displacement     0.060262     0.001200     NO 
 Predicted change in Energy=-1.513360D-04
 GradGradGradGradGradGradGradGradGradGradGradGradGradGradGradGradGradGrad

                          Input orientation:                          
 ---------------------------------------------------------------------
 Center     Atomic      Atomic             Coordinates (Angstroms)
 Number     Number       Type             X           Y           Z
 ---------------------------------------------------------------------
      1          6           0        0.726576    1.802683   -0.858902
      2          1           0        1.155564    2.313479   -0.009838
      3          1           0        1.053496    2.197972   -1.809316
      4          1           0       -0.344798    1.680930   -0.792317
      5          1           0        1.245020    0.622859   -0.837617
      6          8           0        1.699638   -0.527375   -0.760994
      7          1           0        1.057148   -1.020472   -0.262004
 ---------------------------------------------------------------------
                    Distance matrix (angstroms):
                    1          2          3          4          5
     1  C    0.000000
     2  H    1.079747   0.000000
     3  H    1.080008   1.806068   0.000000
     4  H    1.080324   1.806510   1.804673   0.000000
     5  H    1.288884   1.884520   1.860607   1.910258   0.000000
     6  O    2.526976   2.988428   2.990651   3.009537   1.239188
     7  H    2.904440   3.344922   3.571074   3.089378   1.751332
                    6          7
     6  O    0.000000
     7  H    0.951278   0.000000
 Stoichiometry    CH5O(2)
 Framework group  C1[X(CH5O)]
 Deg. of freedom    15
 Full point group                 C1      NOp   1
 Largest Abelian subgroup         C1      NOp   1
 Largest concise Abelian subgroup C1      NOp   1
                         Standard orientation:                         
 ---------------------------------------------------------------------
 Center     Atomic      Atomic             Coordinates (Angstroms)
 Number     Number       Type             X           Y           Z
 ---------------------------------------------------------------------
      1          6           0        1.232997    0.012515    0.000652
      2          1           0        1.507535   -0.019882    1.044411
      3          1           0        1.550324   -0.857439   -0.555136
      4          1           0        1.486707    0.944666   -0.482904
      5          1           0       -0.052203   -0.084132   -0.011292
      6          8           0       -1.291112   -0.107818    0.000118
      7          1           0       -1.561452    0.804239    0.000069
 ---------------------------------------------------------------------
 Rotational constants (GHZ):    123.5789085      9.0697130      8.9414391
 Standard basis: 6-31+G(d,p) (6D, 7F)
 There are    63 symmetry adapted basis functions of A   symmetry.
 Integral buffers will be    262144 words long.
 Raffenetti 2 integral format.
 Two-electron integral symmetry is turned on.
    63 basis functions,    99 primitive gaussians,    63 cartesian basis functions
    10 alpha electrons        9 beta electrons
       nuclear repulsion energy        37.0343069357 Hartrees.
 NAtoms=    7 NActive=    7 NUniq=    7 SFac= 7.50D-01 NAtFMM=   80 NAOKFM=F Big=F
 One-electron integrals computed using PRISM.
 NBasis=    63 RedAO= T  NBF=    63
 NBsUse=    63 1.00D-06 NBFU=    63
 Initial guess read from the read-write file.
 B after Tr=     0.000000    0.000000    0.000000
         Rot=    1.000000    0.000000    0.000000    0.000000 Ang=   0.00 deg.
 Initial guess orbital symmetries:
 Alpha Orbitals:
       Occupied  (A) (A) (A) (A) (A) (A) (A) (A) (A) (A)
       Virtual   (A) (A) (A) (A) (A) (A) (A) (A) (A) (A) (A) (A)
                 (A) (A) (A) (A) (A) (A) (A) (A) (A) (A) (A) (A)
                 (A) (A) (A) (A) (A) (A) (A) (A) (A) (A) (A) (A)
                 (A) (A) (A) (A) (A) (A) (A) (A) (A) (A) (A) (A)
                 (A) (A) (A) (A) (A)
 Beta  Orbitals:
       Occupied  (A) (A) (A) (A) (A) (A) (A) (A) (A)
       Virtual   (A) (A) (A) (A) (A) (A) (A) (A) (A) (A) (A) (A)
                 (A) (A) (A) (A) (A) (A) (A) (A) (A) (A) (A) (A)
                 (A) (A) (A) (A) (A) (A) (A) (A) (A) (A) (A) (A)
                 (A) (A) (A) (A) (A) (A) (A) (A) (A) (A) (A) (A)
                 (A) (A) (A) (A) (A) (A)
 Initial guess <Sx>= 0.0000 <Sy>= 0.0000 <Sz>= 0.5000 <S**2>= 0.7955 S= 0.5225
 Harris functional with IExCor=  205 diagonalized for initial guess.
 ExpMin= 4.38D-02 ExpMax= 5.48D+03 ExpMxC= 8.25D+02 IAcc=2 IRadAn=         0 AccDes= 0.00D+00
 HarFok:  IExCor=  205 AccDes= 0.00D+00 IRadAn=         0 IDoV= 1
 ScaDFX=  1.000000  1.000000  1.000000  1.000000
 FoFCou: FMM=F IPFlag=           0 FMFlag=      100000 FMFlg1=           0
         NFxFlg=           0 DoJE=T BraDBF=F KetDBF=T FulRan=T
         Omega=  0.000000  0.000000  1.000000  0.000000  0.000000 ICntrl=     500 IOpCl=  0
         NMat0=    1 NMatS0=    1 NMatT0=    0 NMatD0=    1 NMtDS0=    0 NMtDT0=    0
         I1Cent=           4 NGrid=           0.
 Petite list used in FoFCou.
 Requested convergence on RMS density matrix=1.00D-08 within 128 cycles.
 Requested convergence on MAX density matrix=1.00D-06.
 Requested convergence on             energy=1.00D-06.
 No special actions if energy rises.
 Keep R1 and R2 ints in memory in canonical form, NReq=4917112.
 SCF Done:  E(UHF) =  -115.549820813     A.U. after   16 cycles
             Convg  =    0.5568D-08             -V/T =  2.0022
 <Sx>= 0.0000 <Sy>= 0.0000 <Sz>= 0.5000 <S**2>= 0.7964 S= 0.5229
 <L.S>= 0.000000000000E+00
 Annihilation of the first spin contaminant:
 S**2 before annihilation     0.7964,   after     0.7506
 Calling FoFJK, ICntrl=      2127 FMM=F ISym2X=0 I1Cent= 0 IOpClX= 1 NMat=1 NMatS=1 NMatT=0.
 ***** Axes restored to original set *****
 -------------------------------------------------------------------
 Center     Atomic                   Forces (Hartrees/Bohr)
 Number     Number              X              Y              Z
 -------------------------------------------------------------------
      1        6           0.002606125   -0.006778064    0.000147798
      2        1          -0.000226639    0.000099661   -0.000189167
      3        1          -0.000250723    0.000245577    0.000132982
      4        1           0.000311286    0.000255719   -0.000088582
      5        1          -0.005988357    0.005856023    0.002325282
      6        8           0.006356063   -0.004765920   -0.002502126
      7        1          -0.002807755    0.005087004    0.000173813
 -------------------------------------------------------------------
 Cartesian Forces:  Max     0.006778064 RMS     0.003323006

 GradGradGradGradGradGradGradGradGradGradGradGradGradGradGradGradGradGrad
 Berny optimization.
 Internal  Forces:  Max     0.010384922 RMS     0.002925571
 Search for a saddle point.
 Step number   5 out of a maximum of   28
 All quantities printed in internal units (Hartrees-Bohrs-Radians)
 Swaping is turned off.
 Update second derivatives using D2CorX and points    3    4    5
 The second derivative matrix:
                          R1        R2        R3        R4        R5
           R1           0.40527
           R2           0.00215   0.40655
           R3           0.00222   0.00215   0.40529
           R4           0.00346   0.00238   0.00356   0.15401
           R5          -0.00143  -0.00138  -0.00129   0.13709  -0.01744
           R6          -0.00024  -0.00035  -0.00022   0.00636  -0.01056
           A1           0.00816   0.00791  -0.00364  -0.01706   0.01151
           A2           0.00807  -0.00368   0.00806  -0.01719   0.01105
           A3           0.00181  -0.00700  -0.00716   0.01807  -0.01032
           A4          -0.00362   0.00792   0.00816  -0.01682   0.01147
           A5          -0.00728   0.00182  -0.00728   0.01492  -0.01362
           A6          -0.00716  -0.00700   0.00184   0.01811  -0.01013
           A7          -0.00014  -0.00154   0.00028   0.02428  -0.01253
           A8           0.00122  -0.00339   0.00126   0.00321  -0.00098
           A9          -0.00181   0.00000   0.00146  -0.00754   0.00210
           D1           0.00006  -0.00607   0.00628  -0.00209   0.00379
           D2           0.00664  -0.00008  -0.00658  -0.00313   0.00331
           D3          -0.00617   0.00592   0.00007  -0.00229   0.00250
                          R6        A1        A2        A3        A4
           R6           0.56921
[...]
                    10                     11                     12
                     A                      A                      A
 Frequencies --  1561.5912              1576.2901              3218.0136
 Red. masses --     1.0648                 1.0355                 1.0204
 Frc consts  --     1.5298                 1.5159                 6.2260
 IR Inten    --     2.0676                17.0275                11.1393
  Atom  AN      X      Y      Z        X      Y      Z        X      Y      Z
     1   6     0.00   0.00   0.07     0.01   0.04   0.00    -0.03   0.00   0.00
     2   1     0.23   0.38  -0.10     0.11  -0.45   0.32     0.13  -0.29  -0.49
     3   1     0.00   0.00  -0.76    -0.32   0.14   0.00     0.15   0.55   0.00
     4   1    -0.23  -0.38  -0.10     0.11  -0.45  -0.31     0.13  -0.28   0.49
     5   1     0.00   0.00   0.10     0.05   0.45   0.00    -0.02   0.00   0.00
     6   8     0.00   0.00   0.00     0.01  -0.02   0.00     0.00   0.00   0.00
     7   1     0.00   0.00   0.01    -0.21   0.03   0.00     0.00   0.00   0.00
                    13                     14                     15
                     A                      A                      A
 Frequencies --  3348.6389              3350.7017              4107.9061
 Red. masses --     1.1103                 1.1101                 1.0671
 Frc consts  --     7.3353                 7.3432                10.6093
 IR Inten    --    16.0221                12.6448                60.3729
  Atom  AN      X      Y      Z        X      Y      Z        X      Y      Z
     1   6     0.00   0.00   0.10     0.00   0.10   0.00     0.00   0.00   0.00
     2   1     0.17  -0.35  -0.59     0.10  -0.18  -0.34     0.00   0.00   0.00
     3   1     0.00   0.00   0.02    -0.24  -0.78   0.00     0.00   0.00   0.00
     4   1    -0.17   0.35  -0.58     0.10  -0.19   0.34     0.00   0.00   0.00
     5   1     0.00   0.00   0.01     0.00   0.01   0.00    -0.02   0.01   0.00
     6   8     0.00   0.00   0.00     0.00   0.00   0.00     0.01   0.06   0.00
     7   1     0.00   0.00   0.00     0.00   0.00   0.00    -0.20  -0.98   0.00

 -------------------
 - Thermochemistry -
 -------------------
 Temperature   298.150 Kelvin.  Pressure   1.00000 Atm.
 Atom     1 has atomic number  6 and mass  12.00000
 Atom     2 has atomic number  1 and mass   1.00783
 Atom     3 has atomic number  1 and mass   1.00783
 Atom     4 has atomic number  1 and mass   1.00783
 Atom     5 has atomic number  1 and mass   1.00783
 Atom     6 has atomic number  8 and mass  15.99491
 Atom     7 has atomic number  1 and mass   1.00783
 Molecular mass:    33.03404 amu.
 Principal axes and moments of inertia in atomic units:
                           1         2         3
     Eigenvalues --    14.71320 195.07449 198.02286
           X            0.99976   0.02181   0.00000
           Y           -0.02181   0.99976   0.00000
           Z            0.00000   0.00000   1.00000
 This molecule is an asymmetric top.
 Rotational symmetry number  1.
 Rotational temperatures (Kelvin)      5.88681     0.44400     0.43739
 Rotational constants (GHZ):         122.66137     9.25155     9.11380
    1 imaginary frequencies ignored.
 Zero-point vibrational energy     141459.4 (Joules/Mol)
                                   33.80960 (Kcal/Mol)
 Warning -- explicit consideration of   4 degrees of freedom as
           vibrations may cause significant error
 Vibrational temperatures:     70.06   561.03   616.74   819.62  1378.26
          (Kelvin)           1813.82  1904.93  2168.91  2246.78  2267.93
                             4630.00  4817.94  4820.91  5910.35
 
 Zero-point correction=                           0.053879 (Hartree/Particle)
 Thermal correction to Energy=                    0.058407
 Thermal correction to Enthalpy=                  0.059351
 Thermal correction to Gibbs Free Energy=         0.027899
 Sum of electronic and zero-point Energies=           -115.496419
 Sum of electronic and thermal Energies=              -115.491891
 Sum of electronic and thermal Enthalpies=            -115.490947
 Sum of electronic and thermal Free Energies=         -115.522399
 
                     E (Thermal)             CV                S
                      KCal/Mol        Cal/Mol-Kelvin    Cal/Mol-Kelvin
 Total                   36.651             12.858             66.197
 Electronic               0.000              0.000              1.377
 Translational            0.889              2.981             36.416
 Rotational               0.889              2.981             20.969
 Vibrational             34.874              6.896              7.435
 Vibration     1          0.595              1.978              4.870
 Vibration     2          0.758              1.492              1.000
 Vibration     3          0.790              1.408              0.863
 Vibration     4          0.926              1.097              0.505
                       Q            Log10(Q)             Ln(Q)
 Total Bot       0.147038D-12        -12.832570        -29.548085
 Total V=0       0.891272D+12         11.950010         27.515916
 Vib (Bot)       0.115437D-23        -23.937656        -55.118490
 Vib (Bot)    1  0.424596D+01          0.627976          1.445967
 Vib (Bot)    2  0.460433D+00         -0.336833         -0.775587
 Vib (Bot)    3  0.406904D+00         -0.390508         -0.899178
 Vib (Bot)    4  0.270260D+00         -0.568219         -1.308372
 Vib (V=0)       0.699721D+01          0.844925          1.945511
 Vib (V=0)    1  0.477530D+01          0.679000          1.563456
 Vib (V=0)    2  0.117971D+01          0.071773          0.165264
 Vib (V=0)    3  0.114465D+01          0.058672          0.135097
 Vib (V=0)    4  0.106837D+01          0.028720          0.066131
 Electronic      0.200000D+01          0.301030          0.693147
 Translational   0.746273D+07          6.872898         15.825432
 Rotational      0.853410D+04          3.931158          9.051826
 ***** Axes restored to original set *****
 -------------------------------------------------------------------
 Center     Atomic                   Forces (Hartrees/Bohr)
 Number     Number              X              Y              Z
 -------------------------------------------------------------------
      1        6           0.000000189   -0.000000707   -0.000000034
      2        1           0.000000269    0.000000450    0.000000080
      3        1           0.000000112    0.000000366    0.000000025
      4        1          -0.000000309    0.000000345    0.000000110
      5        1          -0.000000920    0.000004161   -0.000003224
      6        8          -0.000000253   -0.000000418    0.000002625
      7        1           0.000000912   -0.000004198    0.000000418
 -------------------------------------------------------------------
 Cartesian Forces:  Max     0.000004198 RMS     0.000001626

 GradGradGradGradGradGradGradGradGradGradGradGradGradGradGradGradGradGrad
 Berny optimization.
 Internal  Forces:  Max     0.000007341 RMS     0.000002094
 Search for a saddle point.
 Step number   1 out of a maximum of    2
 All quantities printed in internal units (Hartrees-Bohrs-Radians)
 Swaping is turned off.
 Second derivative matrix not updated -- analytic derivatives used.
 The second derivative matrix:
                          R1        R2        R3        R4        R5
           R1           0.38661
           R2           0.00126   0.38723
           R3           0.00137   0.00126   0.38662
           R4           0.00298   0.00292   0.00298   0.05607
           R5          -0.00147  -0.00188  -0.00148   0.17354  -0.05156
           R6          -0.00017  -0.00030  -0.00017   0.00702  -0.01367
           A1           0.00770   0.00735  -0.00412  -0.01847   0.01470
           A2           0.00747  -0.00402   0.00747  -0.01774   0.01351
           A3          -0.00064  -0.00637  -0.00650   0.02255  -0.01631
           A4          -0.00412   0.00735   0.00770  -0.01847   0.01470
           A5          -0.00654   0.00008  -0.00653   0.02161  -0.01976
           A6          -0.00650  -0.00637  -0.00064   0.02255  -0.01632
           A7           0.00074  -0.00112   0.00073  -0.00623   0.02664
           A8           0.00108  -0.00314   0.00109   0.00246  -0.00789
           A9          -0.00152   0.00000   0.00153   0.00000   0.00001
           D1           0.00009  -0.00505   0.00483   0.00028   0.00107
           D2           0.00540   0.00000  -0.00540   0.00000   0.00000
           D3          -0.00483   0.00505  -0.00009  -0.00028  -0.00107
                          R6        A1        A2        A3        A4
           R6           0.60506
           A1           0.00152   0.06307
           A2           0.00136  -0.00662   0.06191
           A3          -0.00141  -0.02792  -0.02774   0.08279
           A4           0.00152  -0.00671  -0.00662  -0.00523   0.06307
           A5          -0.00256  -0.02679  -0.00543  -0.00431  -0.02679
           A6          -0.00141  -0.00524  -0.02774  -0.00442  -0.02792
           A7           0.00621  -0.00177  -0.00088   0.00024  -0.00177
           A8           0.00135  -0.00094   0.00789  -0.00063  -0.00093
           A9           0.00000  -0.00286   0.00000  -0.00085   0.00286
           D1          -0.00003  -0.02333   0.02132   0.00191  -0.00032
           D2           0.00000   0.02221   0.00000   0.00542  -0.02221
           D3           0.00003   0.00032  -0.02132  -0.00443   0.02334
                          A5        A6        A7        A8        A9
           A5           0.08120
           A6          -0.00430   0.08278
           A7           0.00496   0.00024   0.11939
           A8          -0.00639  -0.00063  -0.00427   0.02659
           A9           0.00000   0.00085   0.00000   0.00000   0.00702
           D1          -0.00444   0.00442   0.00006   0.00118   0.00069
           D2           0.00000  -0.00542   0.00000   0.00000  -0.00219
           D3           0.00444  -0.00191  -0.00006  -0.00118   0.00069
                          D1        D2        D3
           D1           0.01820
           D2          -0.00890   0.01816
           D3          -0.00924  -0.00890   0.01820
     Eigenvalues ---   -0.19417   0.00007   0.00677   0.02572   0.07623
     Eigenvalues ---    0.07729   0.10409   0.10720   0.11941   0.13034
     Eigenvalues ---    0.19071   0.38610   0.38664   0.39056   0.60546
     Eigenvalues --- 1000.000001000.000001000.00000
 Eigenvectors required to have negative eigenvalues:
                          R5        R4        A5        A6        A3
   1                    0.78314  -0.58436   0.09215   0.08199   0.08198
                          A7        A4        A1        A2        A8
   1                   -0.08062  -0.07147  -0.07147  -0.06685   0.03781
 Angle between quadratic step and forces=  87.37 degrees.
 Linear search not attempted -- option 19 set.
 Iteration  1 RMS(Cart)=  0.00056071 RMS(Int)=  0.00000055
 Iteration  2 RMS(Cart)=  0.00000045 RMS(Int)=  0.00000000
 Variable       Old X    -DE/DX   Delta X   Delta X   Delta X     New X
                                 (Linear)    (Quad)   (Total)
    R1        2.04010   0.00000   0.00000   0.00000   0.00000   2.04010
    R2        2.04019   0.00000   0.00000   0.00000   0.00000   2.04019
    R3        2.04010   0.00000   0.00000   0.00000   0.00000   2.04010
    R4        2.43485   0.00000   0.00000   0.00002   0.00002   2.43487
    R5        2.30298   0.00000   0.00000   0.00000   0.00000   2.30298
    R6        1.79640   0.00000   0.00000   0.00000   0.00000   1.79640
    A1        1.97990   0.00000   0.00000   0.00001   0.00001   1.97990
    A2        1.98492   0.00000   0.00000   0.00000   0.00000   1.98492
    A3        1.85158   0.00000   0.00000  -0.00006  -0.00006   1.85152
    A4        1.97991   0.00000   0.00000  -0.00001  -0.00001   1.97990
    A5        1.79510   0.00000   0.00000   0.00000   0.00000   1.79510
    A6        1.85146   0.00000   0.00000   0.00006   0.00006   1.85152
    A7        1.75406   0.00001   0.00000   0.00006   0.00006   1.75412
    A8        3.19368   0.00000   0.00000   0.00000   0.00000   3.19367
    A9        3.14150   0.00000   0.00000   0.00009   0.00009   3.14160
    D1        1.05017   0.00000   0.00000   0.00191   0.00191   1.05208
    D2        3.13975   0.00000   0.00000   0.00190   0.00190  -3.14154
    D3       -1.05388   0.00000   0.00000   0.00191   0.00191  -1.05197
         Item               Value     Threshold  Converged?
 Maximum Force            0.000007     0.000450     YES
 RMS     Force            0.000002     0.000300     YES
 Maximum Displacement     0.001332     0.001800     YES
 RMS     Displacement     0.000561     0.001200     YES
 Predicted change in Energy=-6.727097D-10
 Optimization completed.
    -- Stationary point found.
                           ----------------------------
                           !   Optimized Parameters   !
                           ! (Angstroms and Degrees)  !
 --------------------------                            --------------------------
 ! Name  Definition              Value          Derivative Info.                !
 --------------------------------------------------------------------------------
 ! R1    R(1,2)                  1.0796         -DE/DX =    0.0                 !
 ! R2    R(1,3)                  1.0796         -DE/DX =    0.0                 !
 ! R3    R(1,4)                  1.0796         -DE/DX =    0.0                 !
 ! R4    R(1,5)                  1.2885         -DE/DX =    0.0                 !
 ! R5    R(5,6)                  1.2187         -DE/DX =    0.0                 !
 ! R6    R(6,7)                  0.9506         -DE/DX =    0.0                 !
 ! A1    A(2,1,3)              113.4397         -DE/DX =    0.0                 !
 ! A2    A(2,1,4)              113.7275         -DE/DX =    0.0                 !
 ! A3    A(2,1,5)              106.0878         -DE/DX =    0.0                 !
 ! A4    A(3,1,4)              113.4405         -DE/DX =    0.0                 !
 ! A5    A(3,1,5)              102.8519         -DE/DX =    0.0                 !
 ! A6    A(4,1,5)              106.0809         -DE/DX =    0.0                 !
 ! A7    A(5,6,7)              100.5003         -DE/DX =    0.0                 !
 ! A8    L(1,5,6,3,-1)         182.9842         -DE/DX =    0.0                 !
 ! A9    L(1,5,6,3,-2)         179.9949         -DE/DX =    0.0                 !
 ! D1    D(2,1,6,7)             60.1702         -DE/DX =    0.0                 !
 ! D2    D(3,1,6,7)           -180.1058         -DE/DX =    0.0                 !
 ! D3    D(4,1,6,7)            -60.383          -DE/DX =    0.0                 !
 --------------------------------------------------------------------------------
 GradGradGradGradGradGradGradGradGradGradGradGradGradGradGradGradGradGrad

 1|1|UNPC-DESKTOP-319GPER|Freq|UHF|6-31+G(d,p)|C1H5O1(2)|SAGAD|08-Oct-2
 020|0||#N Geom=AllCheck Guess=TCheck SCRF=Check GenChk UHF/6-31+G(d,p)
  Freq||calculation of fransition state methane-hydroxil radical with H
 F||0,2|C,0.7246282988,1.7856702851,-0.8600484169|H,1.1220205661,2.2222
 43293,0.043813506|H,1.1201248644,2.2295107087,-1.7612567873|H,-0.35114
 61117,1.6952079876,-0.8622344629|H,1.1840308997,0.5828205587,-0.907501
 345|O,1.5890099518,-0.5665637345,-0.8974405201|H,1.2039773757,-0.87881
 44686,-0.0863190283||Version=IA32W-G09RevA.02|State=2-A|HF=-115.550298
 3|S2=0.795221|S2-1=0.|S2A=0.750597|RMSD=1.368e-009|RMSF=1.626e-006|Zer
 oPoint=0.053879|Thermal=0.0584072|Dipole=-0.5158021,0.4499886,0.579411
 2|DipoleDeriv=0.2515982,-0.4719428,0.0058673,-0.4762021,1.4157394,0.00
 10105,0.0083754,-0.0059708,0.0763126,0.0185137,0.049398,-0.044082,0.03
 05097,-0.1442561,-0.065445,-0.0536446,-0.0454256,-0.0540125,0.0266198,
 0.0444385,0.0409271,0.027209,-0.1223771,0.066297,0.0509323,0.0382878,-
 0.0374149,-0.1232511,0.0369903,-0.0004948,0.0655776,-0.1179569,0.00289
 3,0.0034559,-0.0014217,0.0615684,-0.1611707,0.8325474,-0.0019177,0.827
 4343,-2.2139798,0.0212925,0.00107,0.0129349,0.1261196,-0.3049098,-0.57
 59525,-0.09047,-0.4691048,0.8365092,-0.0534376,-0.1528983,0.121075,-0.
 3873903,0.2926,0.0845211,0.0901702,-0.0054237,0.3463215,0.0273897,0.14
 27093,-0.1194796,0.2148171|Polar=20.7155506,-9.2888517,44.5664835,-0.2
 290278,-0.7875771,18.0863358|HyperPolar=-33.3316233,17.1335333,-22.849
 6423,62.8398596,4.8694899,-4.2930938,13.0454804,4.3753405,17.8938826,9
 .4950963|PG=C01 [X(C1H5O1)]|NImag=1||0.57858412,0.15532475,0.20153943,
 0.00030757,-0.00079061,0.63429861,-0.09557941,-0.05518252,-0.09054756,
 0.09539377,-0.06017891,-0.08358307,-0.11178442,0.05601624,0.09198348,-
 0.09308827,-0.10363715,-0.27303129,0.10273859,0.11419117,0.28720292,-0
 .09453162,-0.05639317,0.08987403,0.00678226,0.00681708,-0.01134256,0.0
 9463793,-0.06134022,-0.08448356,0.11430342,0.00667996,0.00940689,-0.01
 366760,0.05695289,0.09360309,0.09274951,0.10626270,-0.27204185,0.01101
 368,0.01363758,-0.01850854,-0.10191989,-0.11660797,0.28586643,-0.36191
 197,-0.03567828,-0.00043776,-0.00724042,0.00039021,0.00175849,-0.00748
 865,0.00046409,-0.00191805,0.38359304,-0.02579529,-0.03021347,0.000198
 24,-0.01501557,0.00106459,0.00142849,-0.01537116,0.00107264,-0.0014948
 1,0.03264328,0.03837141,-0.00073879,-0.00000253,-0.06007362,-0.0296750
 0,-0.00034151,0.00393573,0.02956902,0.00028598,0.00409894,0.00065448,-
 0.00011635,0.05262156,-0.00410842,-0.07673740,-0.00191219,-0.00122228,
 0.00065080,-0.00097174,-0.00149940,0.00174785,0.00139205,-0.00877004,0
 .02783224,0.00040968,-0.00032769,-0.08053903,0.18713851,0.00306254,0.0
 1296132,-0.03066255,0.00311592,0.01395822,-0.03309058,-0.00345801,0.00
 431990,-0.02306966,-0.00004537,0.12788009,-0.29504867,0.00030135,-0.00
 312645,-0.03141366,0.00602886,-0.01566717,-0.00048376,-0.00570999,0.01
 639641,-0.00026926,-0.00007619,0.00052586,-0.00053331,-0.00503131,-0.0
 1173604,0.05741071,-0.02514136,0.07515572,0.00461292,0.00188723,-0.003
 60534,0.00092654,0.00302927,-0.00564659,-0.00163627,0.00246740,-0.0056
 3869,0.00005824,0.01582665,-0.09538012,0.01135203,0.10764042,0.0743542
 4,-0.19131635,-0.00697017,-0.00517877,0.01217871,-0.00123893,-0.006558
 32,0.01407621,0.00247608,-0.00231373,0.01240732,0.00008397,-0.07339048
 ,0.20749555,-0.00799725,0.09339362,0.02989933,0.00509354,-0.00829968,0
 .00111005,0.00002397,0.00154701,0.00076501,-0.00111320,0.00100546,0.00
 122499,-0.00005923,0.00014672,-0.00003957,-0.00149792,0.02792451,-0.02
 520813,-0.22109257,-0.16667303,0.46403575,0.00268866,-0.00648910,-0.00
 189702,-0.00002116,-0.00009009,-0.00002105,-0.00092979,0.00114201,0.00
 031896,-0.00064937,0.00134519,-0.00027764,0.00010118,0.01679962,-0.006
 86476,-0.10570961,-0.08030656,0.21864540,0.10452008,-0.00182555,0.0009
 1851,0.00198100,-0.00028066,-0.00038805,-0.00019190,0.00059447,-0.0005
 8468,-0.00081557,0.00017453,0.00036717,0.00013580,-0.00798310,-0.01276
 259,0.02160463,-0.05827862,-0.08474078,0.14434901,0.06759893,0.0971904
 2,-0.00462493,0.00959371,0.00115175,0.00041747,-0.00158267,0.00011992,
 0.00064258,-0.00171569,-0.00037071,0.00007825,-0.00068815,-0.00000974,
 0.00761142,-0.01886356,0.00049740,0.20577911,0.18031934,-0.44188811,-0
 .20990390,-0.16706298,0.44049949||-0.00000019,0.00000071,0.00000003,-0
 .00000027,-0.00000045,-0.00000008,-0.00000011,-0.00000037,-0.00000003,
 0.00000031,-0.00000035,-0.00000011,0.00000092,-0.00000416,0.00000322,0
 .00000025,0.00000042,-0.00000262,-0.00000091,0.00000420,-0.00000042|||
 @


 MAN IS A SINGULAR CREATURE.  HE HAS A SET OF GIFTS
 WHICH MAKE HIM UNIQUE AMONG THE ANIMALS: SO THAT, 
 UNLIKE THEM, HE IS NOT A FIGURE IN THE LANDSCAPE --
 HE IS A SHAPER OF THE LANDSCAPE.

                       -- JACOB BRONOWSKI
 Job cpu time:  0 days  0 hours  0 minutes  4.0 seconds.
 File lengths (MBytes):  RWF=      8 Int=      0 D2E=      0 Chk=      1 Scr=      1
 Normal termination of Gaussian 09 at Thu Oct 08 02:56:20 2020.
