 Entering Link 1 = C:\G09W\l1.exe PID=     12452.
  
 Copyright (c) 1988,1990,1992,1993,1995,1998,2003,2009, Gaussian, Inc.
                  All Rights Reserved.
  
 This is part of the Gaussian(R) 09 program.  It is based on
 the Gaussian(R) 03 system (copyright 2003, Gaussian, Inc.),
 the Gaussian(R) 98 system (copyright 1998, Gaussian, Inc.),
 the Gaussian(R) 94 system (copyright 1995, Gaussian, Inc.),
 the Gaussian 92(TM) system (copyright 1992, Gaussian, Inc.),
 the Gaussian 90(TM) system (copyright 1990, Gaussian, Inc.),
 the Gaussian 88(TM) system (copyright 1988, Gaussian, Inc.),
 the Gaussian 86(TM) system (copyright 1986, Carnegie Mellon
 University), and the Gaussian 82(TM) system (copyright 1983,
 Carnegie Mellon University). Gaussian is a federally registered
 trademark of Gaussian, Inc.
  
 This software contains proprietary and confidential information,
 including trade secrets, belonging to Gaussian, Inc.
  
 This software is provided under written license and may be
 used, copied, transmitted, or stored only in accord with that
 written license.
  
 The following legend is applicable only to US Government
 contracts under FAR:
  
                    RESTRICTED RIGHTS LEGEND
  
 Use, reproduction and disclosure by the US Government is
 subject to restrictions as set forth in subparagraphs (a)
 and (c) of the Commercial Computer Software - Restricted
 Rights clause in FAR 52.227-19.
  
 Gaussian, Inc.
 340 Quinnipiac St., Bldg. 40, Wallingford CT 06492
  
  
 ---------------------------------------------------------------
 Warning -- This program may not be used in any manner that
 competes with the business of Gaussian, Inc. or will provide
 assistance to any competitor of Gaussian, Inc.  The licensee
 of this program is prohibited from giving any competitor of
 Gaussian, Inc. access to this program.  By using this program,
 the user acknowledges that Gaussian, Inc. is engaged in the
 business of creating and licensing software in the field of
 computational chemistry and represents and warrants to the
 licensee that it is not a competitor of Gaussian, Inc. and that
 it will not use this program in any manner prohibited above.
 ---------------------------------------------------------------
  

 Cite this work as:
 Gaussian 09, Revision A.02,
 M. J. Frisch, G. W. Trucks, H. B. Schlegel, G. E. Scuseria, 
 M. A. Robb, J. R. Cheeseman, G. Scalmani, V. Barone, B. Mennucci, 
 G. A. Petersson, H. Nakatsuji, M. Caricato, X. Li, H. P. Hratchian, 
 A. F. Izmaylov, J. Bloino, G. Zheng, J. L. Sonnenberg, M. Hada, 
 M. Ehara, K. Toyota, R. Fukuda, J. Hasegawa, M. Ishida, T. Nakajima, 
 Y. Honda, O. Kitao, H. Nakai, T. Vreven, J. A. Montgomery, Jr., 
 J. E. Peralta, F. Ogliaro, M. Bearpark, J. J. Heyd, E. Brothers, 
 K. N. Kudin, V. N. Staroverov, R. Kobayashi, J. Normand, 
 K. Raghavachari, A. Rendell, J. C. Burant, S. S. Iyengar, J. Tomasi, 
 M. Cossi, N. Rega, J. M. Millam, M. Klene, J. E. Knox, J. B. Cross, 
 V. Bakken, C. Adamo, J. Jaramillo, R. Gomperts, R. E. Stratmann, 
 O. Yazyev, A. J. Austin, R. Cammi, C. Pomelli, J. W. Ochterski, 
 R. L. Martin, K. Morokuma, V. G. Zakrzewski, G. A. Voth, 
 P. Salvador, J. J. Dannenberg, S. Dapprich, A. D. Daniels, 
 O. Farkas, J. B. Foresman, J. V. Ortiz, J. Cioslowski, 
 and D. J. Fox, Gaussian, Inc., Wallingford CT, 2009.
 
 ******************************************
 Gaussian 09:  IA32W-G09RevA.02 11-Jun-2009
                29-Oct-2020 
 ******************************************
 %chk=C:\Users\sagad\Documents\rayGit\FQ\quimicaComputacional\class3Eteno\reactiv
 os\etheneM062x.chk
 %nprocshared=4
 Will use up to    4 processors via shared memory.
 %mem=500mb
 ------------------------------------
 # opt freq=noraman 6-31+g(d,p) m062x
 ------------------------------------
 1/14=-1,18=20,19=15,26=3,38=1/1,3;
 2/9=110,12=2,17=6,18=5,40=1/2;
 3/5=1,6=6,7=111,11=2,16=1,25=1,30=1,71=1,74=-55/1,2,3;
 4//1;
 5/5=2,38=5/2;
 6/7=2,8=2,9=2,10=2,28=1/1;
 7//1,2,3,16;
 1/14=-1,18=20,19=15/3(2);
 2/9=110/2;
 99//99;
 2/9=110/2;
 3/5=1,6=6,7=111,11=2,16=1,25=1,30=1,71=1,74=-55/1,2,3;
 4/5=5,16=3/1;
 5/5=2,38=5/2;
 7//1,2,3,16;
 1/14=-1,18=20,19=15/3(-5);
 2/9=110/2;
 6/7=2,8=2,9=2,10=2,19=2,28=1/1;
 99/9=1/99;
 ------------
 Ethene M062x
 ------------
 Symbolic Z-matrix:
 Charge =  0 Multiplicity = 1
 C                    -3.48624  -2.95107   0. 
 H                    -2.95307  -3.87878   0. 
 H                    -4.55624  -2.95107   0. 
 C                    -2.81096  -1.77609   0. 
 H                    -3.34413  -0.84839   0. 
 H                    -1.74096  -1.77609   0. 
 

 GradGradGradGradGradGradGradGradGradGradGradGradGradGradGradGradGradGrad
 Berny optimization.
 Initialization pass.
                           ----------------------------
                           !    Initial Parameters    !
                           ! (Angstroms and Degrees)  !
 --------------------------                            --------------------------
 ! Name  Definition              Value          Derivative Info.                !
 --------------------------------------------------------------------------------
 ! R1    R(1,2)                  1.07           estimate D2E/DX2                !
 ! R2    R(1,3)                  1.07           estimate D2E/DX2                !
 ! R3    R(1,4)                  1.3552         estimate D2E/DX2                !
 ! R4    R(4,5)                  1.07           estimate D2E/DX2                !
 ! R5    R(4,6)                  1.07           estimate D2E/DX2                !
 ! A1    A(2,1,3)              119.8865         estimate D2E/DX2                !
 ! A2    A(2,1,4)              120.2269         estimate D2E/DX2                !
 ! A3    A(3,1,4)              119.8865         estimate D2E/DX2                !
 ! A4    A(1,4,5)              120.2269         estimate D2E/DX2                !
 ! A5    A(1,4,6)              119.8865         estimate D2E/DX2                !
 ! A6    A(5,4,6)              119.8865         estimate D2E/DX2                !
 ! D1    D(2,1,4,5)            180.0            estimate D2E/DX2                !
 ! D2    D(2,1,4,6)              0.0            estimate D2E/DX2                !
 ! D3    D(3,1,4,5)              0.0            estimate D2E/DX2                !
 ! D4    D(3,1,4,6)            180.0            estimate D2E/DX2                !
 --------------------------------------------------------------------------------
 Trust Radius=3.00D-01 FncErr=1.00D-07 GrdErr=1.00D-06
 Number of steps in this run=  25 maximum allowed number of steps= 100.
 GradGradGradGradGradGradGradGradGradGradGradGradGradGradGradGradGradGrad

                          Input orientation:                          
 ---------------------------------------------------------------------
 Center     Atomic      Atomic             Coordinates (Angstroms)
 Number     Number       Type             X           Y           Z
 ---------------------------------------------------------------------
      1          6           0       -3.486239   -2.951070    0.000000
      2          1           0       -2.953075   -3.878775    0.000000
      3          1           0       -4.556239   -2.951070    0.000000
      4          6           0       -2.810964   -1.776093    0.000000
      5          1           0       -3.344128   -0.848388    0.000000
      6          1           0       -1.740964   -1.776093    0.000000
 ---------------------------------------------------------------------
                    Distance matrix (angstroms):
                    1          2          3          4          5
     1  C    0.000000
     2  H    1.070000   0.000000
     3  H    1.070000   1.852234   0.000000
     4  C    1.355200   2.107479   2.103938   0.000000
     5  H    2.107479   3.055514   2.427032   1.070000   0.000000
     6  H    2.103938   2.427032   3.050630   1.070000   1.852234
                    6
     6  H    0.000000
 Stoichiometry    C2H4
 Framework group  C2H[SGH(C2H4)]
 Deg. of freedom     5
 Full point group                 C2H     NOp   4
 Largest Abelian subgroup         C2H     NOp   4
 Largest concise Abelian subgroup C2      NOp   2
                         Standard orientation:                         
 ---------------------------------------------------------------------
 Center     Atomic      Atomic             Coordinates (Angstroms)
 Number     Number       Type             X           Y           Z
 ---------------------------------------------------------------------
      1          6           0        0.000000    0.677600    0.000000
      2          1           0        0.924521    1.216266    0.000000
      3          1           0       -0.927705    1.210764    0.000000
      4          6           0        0.000000   -0.677600    0.000000
      5          1           0       -0.924521   -1.216266    0.000000
      6          1           0        0.927705   -1.210764    0.000000
 ---------------------------------------------------------------------
 Rotational constants (GHZ):    146.1648690     29.8053188     24.7569806
 Standard basis: 6-31+G(d,p) (6D, 7F)
 There are    22 symmetry adapted basis functions of AG  symmetry.
 There are     7 symmetry adapted basis functions of BG  symmetry.
 There are     7 symmetry adapted basis functions of AU  symmetry.
 There are    22 symmetry adapted basis functions of BU  symmetry.
 Integral buffers will be    262144 words long.
 Raffenetti 2 integral format.
 Two-electron integral symmetry is turned on.
    58 basis functions,    92 primitive gaussians,    58 cartesian basis functions
     8 alpha electrons        8 beta electrons
       nuclear repulsion energy        33.3121054968 Hartrees.
 NAtoms=    6 NActive=    6 NUniq=    3 SFac= 3.00D+00 NAtFMM=   80 NAOKFM=F Big=F
 One-electron integrals computed using PRISM.
 NBasis=    58 RedAO= T  NBF=    22     7     7    22
 NBsUse=    58 1.00D-06 NBFU=    22     7     7    22
 Harris functional with IExCor= 1009 diagonalized for initial guess.
 ExpMin= 4.38D-02 ExpMax= 3.05D+03 ExpMxC= 4.57D+02 IAcc=2 IRadAn=         0 AccDes= 0.00D+00
 HarFok:  IExCor= 1009 AccDes= 0.00D+00 IRadAn=         0 IDoV= 1
 ScaDFX=  1.000000  1.000000  1.000000  1.000000
 FoFCou: FMM=F IPFlag=           0 FMFlag=      100000 FMFlg1=           0
         NFxFlg=           0 DoJE=T BraDBF=F KetDBF=T FulRan=T
         Omega=  0.000000  0.000000  1.000000  0.000000  0.000000 ICntrl=     500 IOpCl=  0
         NMat0=    1 NMatS0=    1 NMatT0=    0 NMatD0=    1 NMtDS0=    0 NMtDT0=    0
         I1Cent=           4 NGrid=           0.
 Petite list used in FoFCou.
 Initial guess orbital symmetries:
       Occupied  (AG) (BU) (AG) (BU) (BU) (AG) (AG) (AU)
       Virtual   (BG) (AG) (BU) (BU) (AU) (AG) (AG) (BG) (AG) (BU)
                 (BU) (BU) (BU) (AG) (AG) (BU) (AU) (BU) (BG) (AG)
                 (BU) (AG) (AG) (BU) (BU) (AG) (AU) (BG) (AU) (AG)
                 (BU) (AG) (AG) (BU) (BG) (BU) (AU) (BG) (BU) (BG)
                 (AU) (AG) (AG) (BU) (AG) (BU) (BU) (AG) (AG) (BU)
 The electronic state of the initial guess is 1-AG.
 Requested convergence on RMS density matrix=1.00D-08 within 128 cycles.
 Requested convergence on MAX density matrix=1.00D-06.
 Requested convergence on             energy=1.00D-06.
 No special actions if energy rises.
 Keep R1 ints in memory in canonical form, NReq=2417035.
 SCF Done:  E(RM062X) =  -78.5447918518     A.U. after    8 cycles
             Convg  =    0.3243D-08             -V/T =  2.0092

 **********************************************************************

            Population analysis using the SCF density.

 **********************************************************************

 Orbital symmetries:
       Occupied  (AG) (BU) (AG) (BU) (BU) (AG) (AG) (AU)
       Virtual   (BG) (BU) (AG) (BU) (AU) (AG) (AG) (BG) (BU) (AG)
                 (BU) (BU) (BU) (AG) (AG) (BU) (AU) (BG) (BU) (AG)
                 (BU) (AG) (AG) (BU) (BU) (AG) (BG) (AU) (AU) (AG)
                 (BU) (AG) (AG) (BU) (BG) (BU) (AU) (BG) (BU) (BG)
                 (AU) (AG) (AG) (BU) (AG) (BU) (BU) (AG) (AG) (BU)
 The electronic state is 1-AG.
 Alpha  occ. eigenvalues --  -10.55125 -10.55027  -0.85734  -0.66729  -0.54804
 Alpha  occ. eigenvalues --   -0.47650  -0.42814  -0.32866
 Alpha virt. eigenvalues --    0.02421   0.04372   0.04507   0.06134   0.08527
 Alpha virt. eigenvalues --    0.09278   0.10112   0.14169   0.17294   0.22163
 Alpha virt. eigenvalues --    0.24629   0.29169   0.38425   0.39269   0.61630
 Alpha virt. eigenvalues --    0.68649   0.72960   0.77564   0.80993   0.85342
 Alpha virt. eigenvalues --    0.96728   0.99476   1.02312   1.06572   1.19079
 Alpha virt. eigenvalues --    1.26786   1.43695   1.44087   1.57556   1.92265
 Alpha virt. eigenvalues --    1.97552   2.02133   2.05360   2.13073   2.18652
 Alpha virt. eigenvalues --    2.29375   2.39374   2.50238   2.55757   2.60285
 Alpha virt. eigenvalues --    2.72422   2.77291   2.77599   3.00000   3.23854
 Alpha virt. eigenvalues --    3.36413   3.54528   3.74626   4.24726   4.53518
          Condensed to atoms (all electrons):
              1          2          3          4          5          6
     1  C    4.876654   0.392018   0.392031   0.694510  -0.025829  -0.026071
     2  H    0.392018   0.514141  -0.029185  -0.025829   0.003714  -0.006754
     3  H    0.392031  -0.029185   0.514795  -0.026071  -0.006754   0.003766
     4  C    0.694510  -0.025829  -0.026071   4.876654   0.392018   0.392031
     5  H   -0.025829   0.003714  -0.006754   0.392018   0.514141  -0.029185
     6  H   -0.026071  -0.006754   0.003766   0.392031  -0.029185   0.514795
 Mulliken atomic charges:
              1
     1  C   -0.303313
     2  H    0.151895
     3  H    0.151418
     4  C   -0.303313
     5  H    0.151895
     6  H    0.151418
 Sum of Mulliken atomic charges =   0.00000
 Mulliken charges with hydrogens summed into heavy atoms:
              1
     1  C    0.000000
     4  C    0.000000
 Sum of Mulliken charges with hydrogens summed into heavy atoms =   0.00000
 Electronic spatial extent (au):  <R**2>=             83.1350
 Charge=              0.0000 electrons
 Dipole moment (field-independent basis, Debye):
    X=              0.0000    Y=              0.0000    Z=              0.0000  Tot=              0.0000
 Quadrupole moment (field-independent basis, Debye-Ang):
   XX=            -12.1799   YY=            -12.4234   ZZ=            -15.9800
   XY=              0.0136   XZ=              0.0000   YZ=              0.0000
 Traceless Quadrupole moment (field-independent basis, Debye-Ang):
   XX=              1.3479   YY=              1.1043   ZZ=             -2.4522
   XY=              0.0136   XZ=              0.0000   YZ=              0.0000
 Octapole moment (field-independent basis, Debye-Ang**2):
  XXX=              0.0000  YYY=              0.0000  ZZZ=              0.0000  XYY=              0.0000
  XXY=              0.0000  XXZ=              0.0000  XZZ=              0.0000  YZZ=              0.0000
  YYZ=              0.0000  XYZ=              0.0000
 Hexadecapole moment (field-independent basis, Debye-Ang**3):
 XXXX=            -27.0823 YYYY=            -70.2298 ZZZZ=            -21.4786 XXXY=              0.0040
 XXXZ=              0.0000 YYYX=              0.0620 YYYZ=              0.0000 ZZZX=              0.0000
 ZZZY=              0.0000 XXYY=            -13.5783 XXZZ=             -8.7907 YYZZ=            -16.2448
 XXYZ=              0.0000 YYXZ=              0.0000 ZZXY=              0.0019
 N-N= 3.331210549684D+01 E-N=-2.478804078693D+02  KE= 7.782691717868D+01
 Symmetry AG   KE= 3.951213416473D+01
 Symmetry BG   KE= 6.613058648700D-32
 Symmetry AU   KE= 1.996753611200D+00
 Symmetry BU   KE= 3.631802940274D+01
 Calling FoFJK, ICntrl=      2127 FMM=F ISym2X=1 I1Cent= 0 IOpClX= 0 NMat=1 NMatS=1 NMatT=0.
 ***** Axes restored to original set *****
 -------------------------------------------------------------------
 Center     Atomic                   Forces (Hartrees/Bohr)
 Number     Number              X              Y              Z
 -------------------------------------------------------------------
      1        6           0.020282876    0.036804422    0.000000000
      2        1           0.002560312   -0.010978897    0.000000000
      3        1          -0.010921330   -0.003690912    0.000000000
      4        6          -0.020282876   -0.036804422    0.000000000
      5        1          -0.002560312    0.010978897    0.000000000
      6        1           0.010921330    0.003690912    0.000000000
 -------------------------------------------------------------------
 Cartesian Forces:  Max     0.036804422 RMS     0.015003519

 GradGradGradGradGradGradGradGradGradGradGradGradGradGradGradGradGradGrad
 Berny optimization.
 Internal  Forces:  Max     0.025131488 RMS     0.008830442
 Search for a local minimum.
 Step number   1 out of a maximum of   25
 All quantities printed in internal units (Hartrees-Bohrs-Radians)
 Mixed Optimization -- RFO/linear search
 Second derivative matrix not updated -- first step.
 The second derivative matrix:
                          R1        R2        R3        R4        R5
           R1           0.37230
           R2           0.00000   0.37230
           R3           0.00000   0.00000   0.53930
           R4           0.00000   0.00000   0.00000   0.37230
           R5           0.00000   0.00000   0.00000   0.00000   0.37230
           A1           0.00000   0.00000   0.00000   0.00000   0.00000
           A2           0.00000   0.00000   0.00000   0.00000   0.00000
           A3           0.00000   0.00000   0.00000   0.00000   0.00000
           A4           0.00000   0.00000   0.00000   0.00000   0.00000
           A5           0.00000   0.00000   0.00000   0.00000   0.00000
           A6           0.00000   0.00000   0.00000   0.00000   0.00000
           D1           0.00000   0.00000   0.00000   0.00000   0.00000
           D2           0.00000   0.00000   0.00000   0.00000   0.00000
           D3           0.00000   0.00000   0.00000   0.00000   0.00000
           D4           0.00000   0.00000   0.00000   0.00000   0.00000
                          A1        A2        A3        A4        A5
           A1           0.16000
           A2           0.00000   0.16000
           A3           0.00000   0.00000   0.16000
           A4           0.00000   0.00000   0.00000   0.16000
           A5           0.00000   0.00000   0.00000   0.00000   0.16000
           A6           0.00000   0.00000   0.00000   0.00000   0.00000
           D1           0.00000   0.00000   0.00000   0.00000   0.00000
           D2           0.00000   0.00000   0.00000   0.00000   0.00000
           D3           0.00000   0.00000   0.00000   0.00000   0.00000
           D4           0.00000   0.00000   0.00000   0.00000   0.00000
                          A6        D1        D2        D3        D4
           A6           0.16000
           D1           0.00000   0.02681
           D2           0.00000   0.00000   0.02681
           D3           0.00000   0.00000   0.00000   0.02681
           D4           0.00000   0.00000   0.00000   0.00000   0.02681
     Eigenvalues ---    0.02681   0.02681   0.02681   0.16000   0.16000
     Eigenvalues ---    0.16000   0.16000   0.37230   0.37230   0.37230
     Eigenvalues ---    0.37230   0.539301000.000001000.000001000.00000
 RFO step:  Lambda=-2.83033889D-03 EMin= 2.68137392D-02
 Linear search not attempted -- first point.
 Iteration  1 RMS(Cart)=  0.01324345 RMS(Int)=  0.00021212
 Iteration  2 RMS(Cart)=  0.00024132 RMS(Int)=  0.00000003
 Iteration  3 RMS(Cart)=  0.00000003 RMS(Int)=  0.00000000
 ClnCor:  largest displacement from symmetrization is 5.19D-14 for atom     4.
 Variable       Old X    -DE/DX   Delta X   Delta X   Delta X     New X
                                 (Linear)    (Quad)   (Total)
    R1        2.02201   0.01079   0.00000   0.02878   0.02878   2.05078
    R2        2.02201   0.01092   0.00000   0.02911   0.02911   2.05112
    R3        2.56096  -0.02513   0.00000  -0.04636  -0.04636   2.51460
    R4        2.02201   0.01079   0.00000   0.02878   0.02878   2.05078
    R5        2.02201   0.01092   0.00000   0.02911   0.02911   2.05112
    A1        2.09241  -0.00468   0.00000  -0.02873  -0.02873   2.06368
    A2        2.09836   0.00190   0.00000   0.01164   0.01164   2.11000
    A3        2.09241   0.00278   0.00000   0.01709   0.01709   2.10951
    A4        2.09836   0.00190   0.00000   0.01164   0.01164   2.11000
    A5        2.09241   0.00278   0.00000   0.01709   0.01709   2.10951
    A6        2.09241  -0.00468   0.00000  -0.02873  -0.02873   2.06368
    D1        3.14159   0.00000   0.00000   0.00000   0.00000   3.14159
    D2        0.00000   0.00000   0.00000   0.00000   0.00000   0.00000
    D3        0.00000   0.00000   0.00000   0.00000   0.00000   0.00000
    D4        3.14159   0.00000   0.00000   0.00000   0.00000   3.14159
         Item               Value     Threshold  Converged?
 Maximum Force            0.025131     0.000450     NO 
 RMS     Force            0.008830     0.000300     NO 
 Maximum Displacement     0.021093     0.001800     NO 
 RMS     Displacement     0.013244     0.001200     NO 
 Predicted change in Energy=-1.426500D-03
 GradGradGradGradGradGradGradGradGradGradGradGradGradGradGradGradGradGrad

                          Input orientation:                          
 ---------------------------------------------------------------------
 Center     Atomic      Atomic             Coordinates (Angstroms)
 Number     Number       Type             X           Y           Z
 ---------------------------------------------------------------------
      1          6           0       -3.481043   -2.939909    0.000000
      2          1           0       -2.952784   -3.887886    0.000000
      3          1           0       -4.566319   -2.956738    0.000000
      4          6           0       -2.816160   -1.787255    0.000000
      5          1           0       -3.344419   -0.839277    0.000000
      6          1           0       -1.730884   -1.770425    0.000000
 ---------------------------------------------------------------------
                    Distance matrix (angstroms):
                    1          2          3          4          5
     1  C    0.000000
     2  H    1.085227   0.000000
     3  H    1.085406   1.862935   0.000000
     4  C    1.330669   2.105069   2.104934   0.000000
     5  H    2.105069   3.073661   2.444725   1.085227   0.000000
     6  H    2.104934   2.444725   3.073602   1.085406   1.862935
                    6
     6  H    0.000000
 Stoichiometry    C2H4
 Framework group  C2H[SGH(C2H4)]
 Deg. of freedom     5
 Full point group                 C2H     NOp   4
 Largest Abelian subgroup         C2H     NOp   4
 Largest concise Abelian subgroup C2      NOp   2
                         Standard orientation:                         
 ---------------------------------------------------------------------
 Center     Atomic      Atomic             Coordinates (Angstroms)
 Number     Number       Type             X           Y           Z
 ---------------------------------------------------------------------
      1          6           0        0.000000    0.665334    0.000000
      2          1           0       -0.931256    1.222543    0.000000
      3          1           0        0.931680    1.222182    0.000000
      4          6           0        0.000000   -0.665334    0.000000
      5          1           0        0.931256   -1.222543    0.000000
      6          1           0       -0.931680   -1.222182    0.000000
 ---------------------------------------------------------------------
 Rotational constants (GHZ):    144.4895504     30.3576046     25.0868059
 Standard basis: 6-31+G(d,p) (6D, 7F)
 There are    22 symmetry adapted basis functions of AG  symmetry.
 There are     7 symmetry adapted basis functions of BG  symmetry.
 There are     7 symmetry adapted basis functions of AU  symmetry.
 There are    22 symmetry adapted basis functions of BU  symmetry.
 Integral buffers will be    262144 words long.
 Raffenetti 2 integral format.
 Two-electron integral symmetry is turned on.
    58 basis functions,    92 primitive gaussians,    58 cartesian basis functions
     8 alpha electrons        8 beta electrons
       nuclear repulsion energy        33.3970081361 Hartrees.
 NAtoms=    6 NActive=    6 NUniq=    3 SFac= 3.00D+00 NAtFMM=   80 NAOKFM=F Big=F
 One-electron integrals computed using PRISM.
 NBasis=    58 RedAO= T  NBF=    22     7     7    22
 NBsUse=    58 1.00D-06 NBFU=    22     7     7    22
 Initial guess read from the read-write file.
 B after Tr=     0.000000    0.000000    0.000000
         Rot=    1.000000    0.000000    0.000000    0.000000 Ang=   0.00 deg.
 Initial guess orbital symmetries:
       Occupied  (AG) (BU) (AG) (BU) (BU) (AG) (AG) (AU)
       Virtual   (BG) (BU) (AG) (BU) (AU) (AG) (AG) (BG) (BU) (AG)
                 (BU) (BU) (BU) (AG) (AG) (BU) (AU) (BG) (BU) (AG)
                 (BU) (AG) (AG) (BU) (BU) (AG) (BG) (AU) (AU) (AG)
                 (BU) (AG) (AG) (BU) (BG) (BU) (AU) (BG) (BU) (BG)
                 (AU) (AG) (AG) (BU) (AG) (BU) (BU) (AG) (AG) (BU)
 Harris functional with IExCor= 1009 diagonalized for initial guess.
 ExpMin= 4.38D-02 ExpMax= 3.05D+03 ExpMxC= 4.57D+02 IAcc=2 IRadAn=         0 AccDes= 0.00D+00
 HarFok:  IExCor= 1009 AccDes= 0.00D+00 IRadAn=         0 IDoV= 1
 ScaDFX=  1.000000  1.000000  1.000000  1.000000
 FoFCou: FMM=F IPFlag=           0 FMFlag=      100000 FMFlg1=           0
         NFxFlg=           0 DoJE=T BraDBF=F KetDBF=T FulRan=T
         Omega=  0.000000  0.000000  1.000000  0.000000  0.000000 ICntrl=     500 IOpCl=  0
         NMat0=    1 NMatS0=    1 NMatT0=    0 NMatD0=    1 NMtDS0=    0 NMtDT0=    0
         I1Cent=           4 NGrid=           0.
 Petite list used in FoFCou.
 Requested convergence on RMS density matrix=1.00D-08 within 128 cycles.
 Requested convergence on MAX density matrix=1.00D-06.
 Requested convergence on             energy=1.00D-06.
 No special actions if energy rises.
 Keep R1 ints in memory in canonical form, NReq=2417035.
 SCF Done:  E(RM062X) =  -78.5463215037     A.U. after    9 cycles
             Convg  =    0.7454D-08             -V/T =  2.0095
 Calling FoFJK, ICntrl=      2127 FMM=F ISym2X=1 I1Cent= 0 IOpClX= 0 NMat=1 NMatS=1 NMatT=0.
 ***** Axes restored to original set *****
 -------------------------------------------------------------------
 Center     Atomic                   Forces (Hartrees/Bohr)
 Number     Number              X              Y              Z
 -------------------------------------------------------------------
      1        6           0.001243425    0.002477974    0.000000000
      2        1          -0.001600132   -0.001224844    0.000000000
      3        1          -0.000148094   -0.002027079    0.000000000
      4        6          -0.001243425   -0.002477974    0.000000000
      5        1           0.001600132    0.001224844    0.000000000
      6        1           0.000148094    0.002027079    0.000000000
 -------------------------------------------------------------------
 Cartesian Forces:  Max     0.002477974 RMS     0.001328245

 GradGradGradGradGradGradGradGradGradGradGradGradGradGradGradGradGradGrad
 Berny optimization.
 Using GEDIIS/GDIIS optimizer.
 Internal  Forces:  Max     0.002747266 RMS     0.001257817
 Search for a local minimum.
 Step number   2 out of a maximum of   25
 All quantities printed in internal units (Hartrees-Bohrs-Radians)
 Mixed Optimization -- RFO/linear search
 Update second derivatives using D2CorX and points    1    2
 DE= -1.53D-03 DEPred=-1.43D-03 R= 1.07D+00
 SS=  1.41D+00  RLast= 8.95D-02 DXNew= 5.0454D-01 2.6844D-01
 Trust test= 1.07D+00 RLast= 8.95D-02 DXMaxT set to 3.00D-01
 The second derivative matrix:
                          R1        R2        R3        R4        R5
           R1           0.37371
           R2           0.00189   0.37469
           R3          -0.00951  -0.01077   0.57690
           R4           0.00141   0.00189  -0.00951   0.37371
           R5           0.00189   0.00239  -0.01077   0.00189   0.37469
           A1           0.00977   0.00980  -0.02165   0.00977   0.00980
           A2          -0.00488  -0.00491   0.01106  -0.00488  -0.00491
           A3          -0.00489  -0.00488   0.01059  -0.00489  -0.00488
           A4          -0.00488  -0.00491   0.01106  -0.00488  -0.00491
           A5          -0.00489  -0.00488   0.01059  -0.00489  -0.00488
           A6           0.00977   0.00980  -0.02165   0.00977   0.00980
           D1           0.00000   0.00000   0.00000   0.00000   0.00000
           D2           0.00000   0.00000   0.00000   0.00000   0.00000
           D3           0.00000   0.00000   0.00000   0.00000   0.00000
           D4           0.00000   0.00000   0.00000   0.00000   0.00000
                          A1        A2        A3        A4        A5
           A1           0.15390
           A2           0.00264   0.15888
           A3           0.00346  -0.00152   0.15806
           A4           0.00264  -0.00112  -0.00152   0.15888
           A5           0.00346  -0.00152  -0.00194  -0.00152   0.15806
           A6          -0.00610   0.00264   0.00346   0.00264   0.00346
           D1           0.00000   0.00000   0.00000   0.00000   0.00000
           D2           0.00000   0.00000   0.00000   0.00000   0.00000
           D3           0.00000   0.00000   0.00000   0.00000   0.00000
           D4           0.00000   0.00000   0.00000   0.00000   0.00000
                          A6        D1        D2        D3        D4
           A6           0.15390
           D1           0.00000   0.02681
           D2           0.00000   0.00000   0.02681
           D3           0.00000   0.00000   0.00000   0.02681
           D4           0.00000   0.00000   0.00000   0.00000   0.02681
 Use linear search instead of GDIIS.
     Eigenvalues ---    0.02681   0.02681   0.02681   0.13423   0.16000
     Eigenvalues ---    0.16000   0.16006   0.37224   0.37230   0.37230
     Eigenvalues ---    0.38150   0.582771000.000001000.000001000.00000
 RFO step:  Lambda=-1.47370630D-04 EMin= 2.68137392D-02
 Quartic linear search produced a step of  0.08417.
 Iteration  1 RMS(Cart)=  0.01052801 RMS(Int)=  0.00005369
 Iteration  2 RMS(Cart)=  0.00005405 RMS(Int)=  0.00000000
 Iteration  3 RMS(Cart)=  0.00000000 RMS(Int)=  0.00000000
 ClnCor:  largest displacement from symmetrization is 6.59D-14 for atom     4.
 Variable       Old X    -DE/DX   Delta X   Delta X   Delta X     New X
                                 (Linear)    (Quad)   (Total)
    R1        2.05078   0.00029   0.00242  -0.00014   0.00229   2.05307
    R2        2.05112   0.00018   0.00245  -0.00047   0.00198   2.05310
    R3        2.51460   0.00092  -0.00390   0.00342  -0.00048   2.51412
    R4        2.05078   0.00029   0.00242  -0.00014   0.00229   2.05307
    R5        2.05112   0.00018   0.00245  -0.00047   0.00198   2.05310
    A1        2.06368  -0.00275  -0.00242  -0.01756  -0.01998   2.04370
    A2        2.11000   0.00134   0.00098   0.00867   0.00965   2.11964
    A3        2.10951   0.00141   0.00144   0.00890   0.01034   2.11985
    A4        2.11000   0.00134   0.00098   0.00867   0.00965   2.11964
    A5        2.10951   0.00141   0.00144   0.00890   0.01034   2.11985
    A6        2.06368  -0.00275  -0.00242  -0.01756  -0.01998   2.04370
    D1        3.14159   0.00000   0.00000   0.00000   0.00000   3.14159
    D2        0.00000   0.00000   0.00000   0.00000   0.00000   0.00000
    D3        0.00000   0.00000   0.00000   0.00000   0.00000   0.00000
    D4        3.14159   0.00000   0.00000   0.00000   0.00000   3.14159
         Item               Value     Threshold  Converged?
 Maximum Force            0.002747     0.000450     NO 
 RMS     Force            0.001258     0.000300     NO 
 Maximum Displacement     0.020437     0.001800     NO 
 RMS     Displacement     0.010534     0.001200     NO 
 Predicted change in Energy=-8.349874D-05
 GradGradGradGradGradGradGradGradGradGradGradGradGradGradGradGradGradGrad

                          Input orientation:                          
 ---------------------------------------------------------------------
 Center     Atomic      Atomic             Coordinates (Angstroms)
 Number     Number       Type             X           Y           Z
 ---------------------------------------------------------------------
      1          6           0       -3.481109   -2.939723    0.000000
      2          1           0       -2.961656   -3.893931    0.000000
      3          1           0       -4.567206   -2.967553    0.000000
      4          6           0       -2.816094   -1.787440    0.000000
      5          1           0       -3.335547   -0.833233    0.000000
      6          1           0       -1.729997   -1.759610    0.000000
 ---------------------------------------------------------------------
                    Distance matrix (angstroms):
                    1          2          3          4          5
     1  C    0.000000
     2  H    1.086436   0.000000
     3  H    1.086453   1.853635   0.000000
     4  C    1.330414   2.111514   2.111649   0.000000
     5  H    2.111514   3.083451   2.464205   1.086436   0.000000
     6  H    2.111649   2.464205   3.083647   1.086453   1.853635
                    6
     6  H    0.000000
 Stoichiometry    C2H4
 Framework group  C2H[SGH(C2H4)]
 Deg. of freedom     5
 Full point group                 C2H     NOp   4
 Largest Abelian subgroup         C2H     NOp   4
 Largest concise Abelian subgroup C2      NOp   2
                         Standard orientation:                         
 ---------------------------------------------------------------------
 Center     Atomic      Atomic             Coordinates (Angstroms)
 Number     Number       Type             X           Y           Z
 ---------------------------------------------------------------------
      1          6           0        0.000000    0.665207    0.000000
      2          1           0       -0.926870    1.232002    0.000000
      3          1           0        0.926766    1.232203    0.000000
      4          6           0        0.000000   -0.665207    0.000000
      5          1           0        0.926870   -1.232002    0.000000
      6          1           0       -0.926766   -1.232203    0.000000
 ---------------------------------------------------------------------
 Rotational constants (GHZ):    145.9430404     30.1901977     25.0154332
 Standard basis: 6-31+G(d,p) (6D, 7F)
 There are    22 symmetry adapted basis functions of AG  symmetry.
 There are     7 symmetry adapted basis functions of BG  symmetry.
 There are     7 symmetry adapted basis functions of AU  symmetry.
 There are    22 symmetry adapted basis functions of BU  symmetry.
 Integral buffers will be    262144 words long.
 Raffenetti 2 integral format.
 Two-electron integral symmetry is turned on.
    58 basis functions,    92 primitive gaussians,    58 cartesian basis functions
     8 alpha electrons        8 beta electrons
       nuclear repulsion energy        33.3671206272 Hartrees.
 NAtoms=    6 NActive=    6 NUniq=    3 SFac= 3.00D+00 NAtFMM=   80 NAOKFM=F Big=F
 One-electron integrals computed using PRISM.
 NBasis=    58 RedAO= T  NBF=    22     7     7    22
 NBsUse=    58 1.00D-06 NBFU=    22     7     7    22
 Initial guess read from the read-write file.
 B after Tr=     0.000000    0.000000    0.000000
         Rot=    1.000000    0.000000    0.000000    0.000000 Ang=   0.00 deg.
 Initial guess orbital symmetries:
       Occupied  (AG) (BU) (AG) (BU) (BU) (AG) (AG) (AU)
       Virtual   (BG) (BU) (AG) (BU) (AU) (AG) (AG) (BG) (BU) (AG)
                 (BU) (BU) (AG) (BU) (AG) (BU) (AU) (BG) (BU) (AG)
                 (BU) (AG) (AG) (BU) (BU) (AG) (BG) (AU) (AU) (AG)
                 (BU) (AG) (AG) (BU) (BG) (BU) (AU) (BG) (BU) (BG)
                 (AU) (AG) (AG) (BU) (AG) (BU) (BU) (AG) (AG) (BU)
 Harris functional with IExCor= 1009 diagonalized for initial guess.
 ExpMin= 4.38D-02 ExpMax= 3.05D+03 ExpMxC= 4.57D+02 IAcc=2 IRadAn=         0 AccDes= 0.00D+00
 HarFok:  IExCor= 1009 AccDes= 0.00D+00 IRadAn=         0 IDoV= 1
 ScaDFX=  1.000000  1.000000  1.000000  1.000000
 FoFCou: FMM=F IPFlag=           0 FMFlag=      100000 FMFlg1=           0
         NFxFlg=           0 DoJE=T BraDBF=F KetDBF=T FulRan=T
         Omega=  0.000000  0.000000  1.000000  0.000000  0.000000 ICntrl=     500 IOpCl=  0
         NMat0=    1 NMatS0=    1 NMatT0=    0 NMatD0=    1 NMtDS0=    0 NMtDT0=    0
         I1Cent=           4 NGrid=           0.
 Petite list used in FoFCou.
 Requested convergence on RMS density matrix=1.00D-08 within 128 cycles.
 Requested convergence on MAX density matrix=1.00D-06.
 Requested convergence on             energy=1.00D-06.
 No special actions if energy rises.
 Keep R1 ints in memory in canonical form, NReq=2417035.
 SCF Done:  E(RM062X) =  -78.5464186698     A.U. after    7 cycles
             Convg  =    0.1586D-08             -V/T =  2.0096
 Calling FoFJK, ICntrl=      2127 FMM=F ISym2X=1 I1Cent= 0 IOpClX= 0 NMat=1 NMatS=1 NMatT=0.
 ***** Axes restored to original set *****
 -------------------------------------------------------------------
 Center     Atomic                   Forces (Hartrees/Bohr)
 Number     Number              X              Y              Z
 -------------------------------------------------------------------
      1        6           0.000186984    0.000286756    0.000000000
      2        1          -0.000522939    0.000149803    0.000000000
      3        1           0.000407023   -0.000362361    0.000000000
      4        6          -0.000186984   -0.000286756    0.000000000
      5        1           0.000522939   -0.000149803    0.000000000
      6        1          -0.000407023    0.000362361    0.000000000
 -------------------------------------------------------------------
 Cartesian Forces:  Max     0.000522939 RMS     0.000280886

 GradGradGradGradGradGradGradGradGradGradGradGradGradGradGradGradGradGrad
 Berny optimization.
 Using GEDIIS/GDIIS optimizer.
 Internal  Forces:  Max     0.000520345 RMS     0.000308826
 Search for a local minimum.
 Step number   3 out of a maximum of   25
 All quantities printed in internal units (Hartrees-Bohrs-Radians)
 Mixed Optimization -- En-DIIS/RFO-DIIS
 Update second derivatives using D2CorX and points    1    2    3
 DE= -9.72D-05 DEPred=-8.35D-05 R= 1.16D+00
 SS=  1.41D+00  RLast= 3.49D-02 DXNew= 5.0454D-01 1.0466D-01
 Trust test= 1.16D+00 RLast= 3.49D-02 DXMaxT set to 3.00D-01
 The second derivative matrix:
                          R1        R2        R3        R4        R5
           R1           0.37961
           R2           0.00758   0.38015
           R3          -0.00982  -0.01113   0.57685
           R4           0.00731   0.00758  -0.00982   0.37961
           R5           0.00758   0.00784  -0.01113   0.00758   0.38015
           A1           0.00411   0.00384  -0.02317   0.00411   0.00384
           A2          -0.00236  -0.00223   0.01183  -0.00236  -0.00223
           A3          -0.00175  -0.00161   0.01135  -0.00175  -0.00161
           A4          -0.00236  -0.00223   0.01183  -0.00236  -0.00223
           A5          -0.00175  -0.00161   0.01135  -0.00175  -0.00161
           A6           0.00411   0.00384  -0.02317   0.00411   0.00384
           D1           0.00000   0.00000   0.00000   0.00000   0.00000
           D2           0.00000   0.00000   0.00000   0.00000   0.00000
           D3           0.00000   0.00000   0.00000   0.00000   0.00000
           D4           0.00000   0.00000   0.00000   0.00000   0.00000
                          A1        A2        A3        A4        A5
           A1           0.14457
           A2           0.00753   0.15634
           A3           0.00790  -0.00387   0.15597
           A4           0.00753  -0.00366  -0.00387   0.15634
           A5           0.00790  -0.00387  -0.00403  -0.00387   0.15597
           A6          -0.01543   0.00753   0.00790   0.00753   0.00790
           D1           0.00000   0.00000   0.00000   0.00000   0.00000
           D2           0.00000   0.00000   0.00000   0.00000   0.00000
           D3           0.00000   0.00000   0.00000   0.00000   0.00000
           D4           0.00000   0.00000   0.00000   0.00000   0.00000
                          A6        D1        D2        D3        D4
           A6           0.14457
           D1           0.00000   0.02681
           D2           0.00000   0.00000   0.02681
           D3           0.00000   0.00000   0.00000   0.02681
           D4           0.00000   0.00000   0.00000   0.00000   0.02681
 Use linear search instead of GDIIS.
     Eigenvalues ---    0.02681   0.02681   0.02681   0.10976   0.16000
     Eigenvalues ---    0.16000   0.16005   0.37230   0.37230   0.37230
     Eigenvalues ---    0.40041   0.583011000.000001000.000001000.00000
 RFO step:  Lambda=-2.99186799D-06 EMin= 2.68137392D-02
 Quartic linear search produced a step of  0.20112.
 Iteration  1 RMS(Cart)=  0.00233827 RMS(Int)=  0.00000293
 Iteration  2 RMS(Cart)=  0.00000298 RMS(Int)=  0.00000000
 Iteration  3 RMS(Cart)=  0.00000000 RMS(Int)=  0.00000000
 ClnCor:  largest displacement from symmetrization is 5.21D-14 for atom     6.
 Variable       Old X    -DE/DX   Delta X   Delta X   Delta X     New X
                                 (Linear)    (Quad)   (Total)
    R1        2.05307  -0.00038   0.00046  -0.00128  -0.00082   2.05224
    R2        2.05310  -0.00040   0.00040  -0.00128  -0.00088   2.05222
    R3        2.51412  -0.00010  -0.00010  -0.00069  -0.00079   2.51333
    R4        2.05307  -0.00038   0.00046  -0.00128  -0.00082   2.05224
    R5        2.05310  -0.00040   0.00040  -0.00128  -0.00088   2.05222
    A1        2.04370  -0.00052  -0.00402  -0.00059  -0.00461   2.03909
    A2        2.11964   0.00028   0.00194   0.00044   0.00238   2.12202
    A3        2.11985   0.00024   0.00208   0.00015   0.00223   2.12208
    A4        2.11964   0.00028   0.00194   0.00044   0.00238   2.12202
    A5        2.11985   0.00024   0.00208   0.00015   0.00223   2.12208
    A6        2.04370  -0.00052  -0.00402  -0.00059  -0.00461   2.03909
    D1        3.14159   0.00000   0.00000   0.00000   0.00000   3.14159
    D2        0.00000   0.00000   0.00000   0.00000   0.00000   0.00000
    D3        0.00000   0.00000   0.00000   0.00000   0.00000   0.00000
    D4        3.14159   0.00000   0.00000   0.00000   0.00000   3.14159
         Item               Value     Threshold  Converged?
 Maximum Force            0.000520     0.000450     NO 
 RMS     Force            0.000309     0.000300     NO 
 Maximum Displacement     0.004367     0.001800     NO 
 RMS     Displacement     0.002338     0.001200     NO 
 Predicted change in Energy=-4.309709D-06
 GradGradGradGradGradGradGradGradGradGradGradGradGradGradGradGradGradGrad

                          Input orientation:                          
 ---------------------------------------------------------------------
 Center     Atomic      Atomic             Coordinates (Angstroms)
 Number     Number       Type             X           Y           Z
 ---------------------------------------------------------------------
      1          6           0       -3.480981   -2.939556    0.000000
      2          1           0       -2.963967   -3.894591    0.000000
      3          1           0       -4.566546   -2.969840    0.000000
      4          6           0       -2.816222   -1.787607    0.000000
      5          1           0       -3.333236   -0.832572    0.000000
      6          1           0       -1.730657   -1.757324    0.000000
 ---------------------------------------------------------------------
                    Distance matrix (angstroms):
                    1          2          3          4          5
     1  C    0.000000
     2  H    1.086000   0.000000
     3  H    1.085988   1.850250   0.000000
     4  C    1.329996   2.112157   2.112181   0.000000
     5  H    2.112157   3.084205   2.467583   1.086000   0.000000
     6  H    2.112181   2.467583   3.084229   1.085988   1.850250
                    6
     6  H    0.000000
 Stoichiometry    C2H4
 Framework group  C2H[SGH(C2H4)]
 Deg. of freedom     5
 Full point group                 C2H     NOp   4
 Largest Abelian subgroup         C2H     NOp   4
 Largest concise Abelian subgroup C2      NOp   2
                         Standard orientation:                         
 ---------------------------------------------------------------------
 Center     Atomic      Atomic             Coordinates (Angstroms)
 Number     Number       Type             X           Y           Z
 ---------------------------------------------------------------------
      1          6           0        0.000000    0.664998    0.000000
      2          1           0        0.925147    1.233768    0.000000
      3          1           0       -0.925104    1.233815    0.000000
      4          6           0        0.000000   -0.664998    0.000000
      5          1           0       -0.925147   -1.233768    0.000000
      6          1           0        0.925104   -1.233815    0.000000
 ---------------------------------------------------------------------
 Rotational constants (GHZ):    146.4775534     30.1719720     25.0185594
 Standard basis: 6-31+G(d,p) (6D, 7F)
 There are    22 symmetry adapted basis functions of AG  symmetry.
 There are     7 symmetry adapted basis functions of BG  symmetry.
 There are     7 symmetry adapted basis functions of AU  symmetry.
 There are    22 symmetry adapted basis functions of BU  symmetry.
 Integral buffers will be    262144 words long.
 Raffenetti 2 integral format.
 Two-electron integral symmetry is turned on.
    58 basis functions,    92 primitive gaussians,    58 cartesian basis functions
     8 alpha electrons        8 beta electrons
       nuclear repulsion energy        33.3751834472 Hartrees.
 NAtoms=    6 NActive=    6 NUniq=    3 SFac= 3.00D+00 NAtFMM=   80 NAOKFM=F Big=F
 One-electron integrals computed using PRISM.
 NBasis=    58 RedAO= T  NBF=    22     7     7    22
 NBsUse=    58 1.00D-06 NBFU=    22     7     7    22
 Initial guess read from the read-write file.
 B after Tr=     0.000000    0.000000    0.000000
         Rot=    1.000000    0.000000    0.000000    0.000000 Ang=   0.00 deg.
 Initial guess orbital symmetries:
       Occupied  (AG) (BU) (AG) (BU) (BU) (AG) (AG) (AU)
       Virtual   (BG) (BU) (AG) (BU) (AU) (AG) (AG) (BG) (BU) (AG)
                 (BU) (BU) (AG) (BU) (AG) (BU) (AU) (BG) (BU) (AG)
                 (BU) (AG) (AG) (BU) (BU) (AG) (BG) (AU) (AU) (AG)
                 (BU) (AG) (AG) (BU) (BG) (BU) (AU) (BG) (BU) (BG)
                 (AU) (AG) (AG) (BU) (AG) (BU) (BU) (AG) (AG) (BU)
 Requested convergence on RMS density matrix=1.00D-08 within 128 cycles.
 Requested convergence on MAX density matrix=1.00D-06.
 Requested convergence on             energy=1.00D-06.
 No special actions if energy rises.
 Keep R1 ints in memory in canonical form, NReq=2417035.
 SCF Done:  E(RM062X) =  -78.5464230149     A.U. after   10 cycles
             Convg  =    0.5420D-08             -V/T =  2.0095
 Calling FoFJK, ICntrl=      2127 FMM=F ISym2X=1 I1Cent= 0 IOpClX= 0 NMat=1 NMatS=1 NMatT=0.
 ***** Axes restored to original set *****
 -------------------------------------------------------------------
 Center     Atomic                   Forces (Hartrees/Bohr)
 Number     Number              X              Y              Z
 -------------------------------------------------------------------
      1        6          -0.000075580   -0.000158892    0.000000000
      2        1          -0.000023728    0.000031915    0.000000000
      3        1           0.000032614   -0.000000972    0.000000000
      4        6           0.000075580    0.000158892    0.000000000
      5        1           0.000023728   -0.000031915    0.000000000
      6        1          -0.000032614    0.000000972    0.000000000
 -------------------------------------------------------------------
 Cartesian Forces:  Max     0.000158892 RMS     0.000061106

 GradGradGradGradGradGradGradGradGradGradGradGradGradGradGradGradGradGrad
 Berny optimization.
 Using GEDIIS/GDIIS optimizer.
 Internal  Forces:  Max     0.000144155 RMS     0.000041747
 Search for a local minimum.
 Step number   4 out of a maximum of   25
 All quantities printed in internal units (Hartrees-Bohrs-Radians)
 Mixed Optimization -- En-DIIS/RFO-DIIS
 Swaping is turned off.
 Update second derivatives using D2CorX and points    1    2    3    4
 DE= -4.35D-06 DEPred=-4.31D-06 R= 1.01D+00
 SS=  1.41D+00  RLast= 8.20D-03 DXNew= 5.0454D-01 2.4604D-02
 Trust test= 1.01D+00 RLast= 8.20D-03 DXMaxT set to 3.00D-01
 The second derivative matrix:
                          R1        R2        R3        R4        R5
           R1           0.37259
           R2           0.00064   0.37333
           R3          -0.00072  -0.00172   0.59041
           R4           0.00029   0.00064  -0.00072   0.37259
           R5           0.00064   0.00103  -0.00172   0.00064   0.37333
           A1           0.00247   0.00264  -0.01581   0.00247   0.00264
           A2          -0.00117  -0.00127   0.00778  -0.00117  -0.00127
           A3          -0.00129  -0.00138   0.00803  -0.00129  -0.00138
           A4          -0.00117  -0.00127   0.00778  -0.00117  -0.00127
           A5          -0.00129  -0.00138   0.00803  -0.00129  -0.00138
           A6           0.00247   0.00264  -0.01581   0.00247   0.00264
           D1           0.00000   0.00000   0.00000   0.00000   0.00000
           D2           0.00000   0.00000   0.00000   0.00000   0.00000
           D3           0.00000   0.00000   0.00000   0.00000   0.00000
           D4           0.00000   0.00000   0.00000   0.00000   0.00000
                          A1        A2        A3        A4        A5
           A1           0.14421
           A2           0.00793   0.15602
           A3           0.00787  -0.00395   0.15608
           A4           0.00793  -0.00398  -0.00395   0.15602
           A5           0.00787  -0.00395  -0.00392  -0.00395   0.15608
           A6          -0.01579   0.00793   0.00787   0.00793   0.00787
           D1           0.00000   0.00000   0.00000   0.00000   0.00000
           D2           0.00000   0.00000   0.00000   0.00000   0.00000
           D3           0.00000   0.00000   0.00000   0.00000   0.00000
           D4           0.00000   0.00000   0.00000   0.00000   0.00000
                          A6        D1        D2        D3        D4
           A6           0.14421
           D1           0.00000   0.02681
           D2           0.00000   0.00000   0.02681
           D3           0.00000   0.00000   0.00000   0.02681
           D4           0.00000   0.00000   0.00000   0.00000   0.02681
     Eigenvalues ---    0.02681   0.02681   0.02681   0.11076   0.15999
     Eigenvalues ---    0.16000   0.16000   0.37215   0.37230   0.37230
     Eigenvalues ---    0.37533   0.592021000.000001000.000001000.00000
 En-DIIS/RFO-DIIS IScMMF=        0 using points:     4    3
 RFO step:  Lambda=-3.57062435D-08.
 DIIS coeffs:      1.00948     -0.00948
 Iteration  1 RMS(Cart)=  0.00007322 RMS(Int)=  0.00000000
 Iteration  2 RMS(Cart)=  0.00000000 RMS(Int)=  0.00000000
 ClnCor:  largest displacement from symmetrization is 8.95D-14 for atom     6.
 Variable       Old X    -DE/DX   Delta X   Delta X   Delta X     New X
                                  (DIIS)     (GDIIS)  (Total)
    R1        2.05224  -0.00004  -0.00001  -0.00010  -0.00010   2.05214
    R2        2.05222  -0.00003  -0.00001  -0.00008  -0.00009   2.05213
    R3        2.51333   0.00014  -0.00001   0.00025   0.00024   2.51357
    R4        2.05224  -0.00004  -0.00001  -0.00010  -0.00010   2.05214
    R5        2.05222  -0.00003  -0.00001  -0.00008  -0.00009   2.05213
    A1        2.03909  -0.00001  -0.00004   0.00004   0.00000   2.03909
    A2        2.12202   0.00001   0.00002   0.00000   0.00003   2.12205
    A3        2.12208   0.00000   0.00002  -0.00004  -0.00002   2.12205
    A4        2.12202   0.00001   0.00002   0.00000   0.00003   2.12205
    A5        2.12208   0.00000   0.00002  -0.00004  -0.00002   2.12205
    A6        2.03909  -0.00001  -0.00004   0.00004   0.00000   2.03909
    D1        3.14159   0.00000   0.00000   0.00000   0.00000   3.14159
    D2        0.00000   0.00000   0.00000   0.00000   0.00000   0.00000
    D3        0.00000   0.00000   0.00000   0.00000   0.00000   0.00000
    D4        3.14159   0.00000   0.00000   0.00000   0.00000   3.14159
         Item               Value     Threshold  Converged?
 Maximum Force            0.000144     0.000450     YES
 RMS     Force            0.000042     0.000300     YES
 Maximum Displacement     0.000115     0.001800     YES
 RMS     Displacement     0.000073     0.001200     YES
 Predicted change in Energy=-2.465164D-08
 Optimization completed.
    -- Stationary point found.
                           ----------------------------
                           !   Optimized Parameters   !
                           ! (Angstroms and Degrees)  !
 --------------------------                            --------------------------
 ! Name  Definition              Value          Derivative Info.                !
 --------------------------------------------------------------------------------
 ! R1    R(1,2)                  1.086          -DE/DX =    0.0                 !
 ! R2    R(1,3)                  1.086          -DE/DX =    0.0                 !
 ! R3    R(1,4)                  1.33           -DE/DX =    0.0001              !
 ! R4    R(4,5)                  1.086          -DE/DX =    0.0                 !
 ! R5    R(4,6)                  1.086          -DE/DX =    0.0                 !
 ! A1    A(2,1,3)              116.8312         -DE/DX =    0.0                 !
 ! A2    A(2,1,4)              121.5828         -DE/DX =    0.0                 !
 ! A3    A(3,1,4)              121.586          -DE/DX =    0.0                 !
 ! A4    A(1,4,5)              121.5828         -DE/DX =    0.0                 !
 ! A5    A(1,4,6)              121.586          -DE/DX =    0.0                 !
 ! A6    A(5,4,6)              116.8312         -DE/DX =    0.0                 !
 ! D1    D(2,1,4,5)            180.0            -DE/DX =    0.0                 !
 ! D2    D(2,1,4,6)              0.0            -DE/DX =    0.0                 !
 ! D3    D(3,1,4,5)              0.0            -DE/DX =    0.0                 !
 ! D4    D(3,1,4,6)            180.0            -DE/DX =    0.0                 !
 --------------------------------------------------------------------------------
 GradGradGradGradGradGradGradGradGradGradGradGradGradGradGradGradGradGrad

                          Input orientation:                          
 ---------------------------------------------------------------------
 Center     Atomic      Atomic             Coordinates (Angstroms)
 Number     Number       Type             X           Y           Z
 ---------------------------------------------------------------------
      1          6           0       -3.480981   -2.939556    0.000000
      2          1           0       -2.963967   -3.894591    0.000000
      3          1           0       -4.566546   -2.969840    0.000000
      4          6           0       -2.816222   -1.787607    0.000000
      5          1           0       -3.333236   -0.832572    0.000000
      6          1           0       -1.730657   -1.757324    0.000000
 ---------------------------------------------------------------------
                    Distance matrix (angstroms):
                    1          2          3          4          5
     1  C    0.000000
     2  H    1.086000   0.000000
     3  H    1.085988   1.850250   0.000000
     4  C    1.329996   2.112157   2.112181   0.000000
     5  H    2.112157   3.084205   2.467583   1.086000   0.000000
     6  H    2.112181   2.467583   3.084229   1.085988   1.850250
                    6
     6  H    0.000000
 Stoichiometry    C2H4
 Framework group  C2H[SGH(C2H4)]
 Deg. of freedom     5
 Full point group                 C2H     NOp   4
 Largest Abelian subgroup         C2H     NOp   4
 Largest concise Abelian subgroup C2      NOp   2
                         Standard orientation:                         
 ---------------------------------------------------------------------
 Center     Atomic      Atomic             Coordinates (Angstroms)
 Number     Number       Type             X           Y           Z
 ---------------------------------------------------------------------
      1          6           0        0.000000    0.664998    0.000000
      2          1           0        0.925147    1.233768    0.000000
      3          1           0       -0.925104    1.233815    0.000000
      4          6           0        0.000000   -0.664998    0.000000
      5          1           0       -0.925147   -1.233768    0.000000
      6          1           0        0.925104   -1.233815    0.000000
 ---------------------------------------------------------------------
 Rotational constants (GHZ):    146.4775534     30.1719720     25.0185594

 **********************************************************************

            Population analysis using the SCF density.

 **********************************************************************

 Orbital symmetries:
       Occupied  (AG) (BU) (AG) (BU) (BU) (AG) (AG) (AU)
       Virtual   (BG) (BU) (AG) (BU) (AU) (AG) (AG) (BG) (BU) (AG)
                 (BU) (BU) (AG) (BU) (AG) (BU) (AU) (BG) (BU) (AG)
                 (BU) (AG) (AG) (BU) (BU) (AG) (BG) (AU) (AU) (AG)
                 (BU) (AG) (AG) (BU) (BG) (BU) (AU) (BG) (BU) (BG)
                 (AU) (AG) (AG) (BU) (AG) (BU) (BU) (AG) (AG) (BU)
 The electronic state is 1-AG.
 Alpha  occ. eigenvalues --  -10.55162 -10.55049  -0.86005  -0.66295  -0.54170
 Alpha  occ. eigenvalues --   -0.48432  -0.41777  -0.33341
 Alpha virt. eigenvalues --    0.02763   0.04308   0.04461   0.06165   0.08430
 Alpha virt. eigenvalues --    0.09361   0.10126   0.14366   0.17266   0.22265
 Alpha virt. eigenvalues --    0.23344   0.28823   0.39115   0.39323   0.61041
 Alpha virt. eigenvalues --    0.69104   0.72589   0.77681   0.82571   0.85570
 Alpha virt. eigenvalues --    0.95091   0.98847   1.02230   1.06131   1.20484
 Alpha virt. eigenvalues --    1.24489   1.43722   1.44291   1.58575   1.89609
 Alpha virt. eigenvalues --    1.97509   2.03576   2.08364   2.11421   2.18652
 Alpha virt. eigenvalues --    2.26675   2.39316   2.46703   2.56039   2.63068
 Alpha virt. eigenvalues --    2.69528   2.73824   2.77023   3.02817   3.17636
 Alpha virt. eigenvalues --    3.33818   3.47856   3.76317   4.26022   4.53540
          Condensed to atoms (all electrons):
              1          2          3          4          5          6
     1  C    4.869587   0.388929   0.388931   0.703417  -0.024402  -0.024401
     2  H    0.388929   0.517905  -0.030437  -0.024402   0.003627  -0.006650
     3  H    0.388931  -0.030437   0.517897  -0.024401  -0.006650   0.003626
     4  C    0.703417  -0.024402  -0.024401   4.869587   0.388929   0.388931
     5  H   -0.024402   0.003627  -0.006650   0.388929   0.517905  -0.030437
     6  H   -0.024401  -0.006650   0.003626   0.388931  -0.030437   0.517897
 Mulliken atomic charges:
              1
     1  C   -0.302061
     2  H    0.151028
     3  H    0.151033
     4  C   -0.302061
     5  H    0.151028
     6  H    0.151033
 Sum of Mulliken atomic charges =   0.00000
 Mulliken charges with hydrogens summed into heavy atoms:
              1
     1  C    0.000000
     4  C    0.000000
 Sum of Mulliken charges with hydrogens summed into heavy atoms =   0.00000
 Electronic spatial extent (au):  <R**2>=             83.0720
 Charge=              0.0000 electrons
 Dipole moment (field-independent basis, Debye):
    X=              0.0000    Y=              0.0000    Z=              0.0000  Tot=              0.0000
 Quadrupole moment (field-independent basis, Debye-Ang):
   XX=            -12.3312   YY=            -12.2879   ZZ=            -15.9366
   XY=             -0.0001   XZ=              0.0000   YZ=              0.0000
 Traceless Quadrupole moment (field-independent basis, Debye-Ang):
   XX=              1.1874   YY=              1.2307   ZZ=             -2.4180
   XY=             -0.0001   XZ=              0.0000   YZ=              0.0000
 Octapole moment (field-independent basis, Debye-Ang**2):
  XXX=              0.0000  YYY=              0.0000  ZZZ=              0.0000  XYY=              0.0000
  XXY=              0.0000  XXZ=              0.0000  XZZ=              0.0000  YZZ=              0.0000
  YYZ=              0.0000  XYZ=              0.0000
 Hexadecapole moment (field-independent basis, Debye-Ang**3):
 XXXX=            -27.6916 YYYY=            -69.6565 ZZZZ=            -21.1220 XXXY=             -0.0001
 XXXZ=              0.0000 YYYX=             -0.0007 YYYZ=              0.0000 ZZZX=              0.0000
 ZZZY=              0.0000 XXYY=            -13.6002 XXZZ=             -8.8150 YYZZ=            -16.1955
 XXYZ=              0.0000 YYXZ=              0.0000 ZZXY=             -0.0001
 N-N= 3.337518344718D+01 E-N=-2.480015991084D+02  KE= 7.780563584158D+01
 Symmetry AG   KE= 3.952128848699D+01
 Symmetry BG   KE= 5.375310565475D-32
 Symmetry AU   KE= 2.016891976419D+00
 Symmetry BU   KE= 3.626745537817D+01
 1|1|UNPC-DESKTOP-319GPER|FOpt|RM062X|6-31+G(d,p)|C2H4|SAGAD|29-Oct-202
 0|0||# opt freq=noraman 6-31+g(d,p) m062x||Ethene M062x||0,1|C,-3.4809
 807217,-2.9395559321,0.|H,-2.9639668199,-3.8945911066,0.|H,-4.56654631
 86,-2.9698396841,0.|C,-2.8162221883,-1.7876073579,0.|H,-3.3332360901,-
 0.8325721834,0.|H,-1.7306565914,-1.7573236059,0.||Version=IA32W-G09Rev
 A.02|State=1-AG|HF=-78.546423|RMSD=5.420e-009|RMSF=6.111e-005|Dipole=0
 .,0.,0.|Quadrupole=0.8909029,0.9068416,-1.7977445,0.013976,0.,0.|PG=C0
 2H [SGH(C2H4)]||@


 CLIMB THE MOUNTAINS AND GET THEIR GOOD TIDINGS.
 NATURE'S PEACE WILL FLOW INTO YOU AS SUNSHINE FLOWS INTO TREES.
 THE WINDS WILL BLOW THEIR OWN FRESHNESS INTO YOU, 
 AND CARES WILL DROP OFF LIKE AUTUMN LEAVES.

                                         -- JOHN MUIR
 Job cpu time:  0 days  0 hours  0 minutes  8.0 seconds.
 File lengths (MBytes):  RWF=      5 Int=      0 D2E=      0 Chk=      1 Scr=      1
 Normal termination of Gaussian 09 at Thu Oct 29 02:42:26 2020.
 Link1:  Proceeding to internal job step number  2.
 ----------------------------------------------------------------------
 #N Geom=AllCheck Guess=TCheck SCRF=Check GenChk RM062X/6-31+G(d,p) Fre
 q
 ----------------------------------------------------------------------
 1/10=4,29=7,30=1,38=1,40=1/1,3;
 2/12=2,40=1/2;
 3/5=1,6=6,7=111,11=2,14=-4,16=1,25=1,30=1,70=2,71=2,74=-55,116=1/1,2,3;
 4/5=101/1;
 5/5=2,98=1/2;
 8/6=4,10=90,11=11/1;
 11/6=1,8=1,9=11,15=111,16=1/1,2,10;
 10/6=1/2;
 6/7=2,8=2,9=2,10=2,18=1,28=1/1;
 7/8=1,10=1,25=1/1,2,3,16;
 1/10=4,30=1/3;
 99//99;
 ------------
 Ethene M062x
 ------------
 Redundant internal coordinates taken from checkpoint file:
 C:\Users\sagad\Documents\rayGit\FQ\quimicaComputacional\class3Eteno\reactivos\etheneM062x.chk
 Charge =  0 Multiplicity = 1
 C,0,-3.4809807217,-2.9395559321,0.
 H,0,-2.9639668199,-3.8945911066,0.
 H,0,-4.5665463186,-2.9698396841,0.
 C,0,-2.8162221883,-1.7876073579,0.
 H,0,-3.3332360901,-0.8325721834,0.
 H,0,-1.7306565914,-1.7573236059,0.
 Recover connectivity data from disk.

 GradGradGradGradGradGradGradGradGradGradGradGradGradGradGradGradGradGrad
 Berny optimization.
 Initialization pass.
                           ----------------------------
                           !    Initial Parameters    !
                           ! (Angstroms and Degrees)  !
 --------------------------                            --------------------------
 ! Name  Definition              Value          Derivative Info.                !
 --------------------------------------------------------------------------------
 ! R1    R(1,2)                  1.086          calculate D2E/DX2 analytically  !
 ! R2    R(1,3)                  1.086          calculate D2E/DX2 analytically  !
 ! R3    R(1,4)                  1.33           calculate D2E/DX2 analytically  !
 ! R4    R(4,5)                  1.086          calculate D2E/DX2 analytically  !
 ! R5    R(4,6)                  1.086          calculate D2E/DX2 analytically  !
 ! A1    A(2,1,3)              116.8312         calculate D2E/DX2 analytically  !
 ! A2    A(2,1,4)              121.5828         calculate D2E/DX2 analytically  !
 ! A3    A(3,1,4)              121.586          calculate D2E/DX2 analytically  !
 ! A4    A(1,4,5)              121.5828         calculate D2E/DX2 analytically  !
 ! A5    A(1,4,6)              121.586          calculate D2E/DX2 analytically  !
 ! A6    A(5,4,6)              116.8312         calculate D2E/DX2 analytically  !
 ! D1    D(2,1,4,5)            180.0            calculate D2E/DX2 analytically  !
 ! D2    D(2,1,4,6)              0.0            calculate D2E/DX2 analytically  !
 ! D3    D(3,1,4,5)              0.0            calculate D2E/DX2 analytically  !
 ! D4    D(3,1,4,6)            180.0            calculate D2E/DX2 analytically  !
 --------------------------------------------------------------------------------
 Trust Radius=3.00D-01 FncErr=1.00D-07 GrdErr=1.00D-07
 Number of steps in this run=   2 maximum allowed number of steps=   2.
 GradGradGradGradGradGradGradGradGradGradGradGradGradGradGradGradGradGrad

                          Input orientation:                          
 ---------------------------------------------------------------------
 Center     Atomic      Atomic             Coordinates (Angstroms)
 Number     Number       Type             X           Y           Z
 ---------------------------------------------------------------------
      1          6           0       -3.480981   -2.939556    0.000000
      2          1           0       -2.963967   -3.894591    0.000000
      3          1           0       -4.566546   -2.969840    0.000000
      4          6           0       -2.816222   -1.787607    0.000000
      5          1           0       -3.333236   -0.832572    0.000000
      6          1           0       -1.730657   -1.757324    0.000000
 ---------------------------------------------------------------------
                    Distance matrix (angstroms):
                    1          2          3          4          5
     1  C    0.000000
     2  H    1.086000   0.000000
     3  H    1.085988   1.850250   0.000000
     4  C    1.329996   2.112157   2.112181   0.000000
     5  H    2.112157   3.084205   2.467583   1.086000   0.000000
     6  H    2.112181   2.467583   3.084229   1.085988   1.850250
                    6
     6  H    0.000000
 Stoichiometry    C2H4
 Framework group  C2H[SGH(C2H4)]
 Deg. of freedom     5
 Full point group                 C2H     NOp   4
 Largest Abelian subgroup         C2H     NOp   4
 Largest concise Abelian subgroup C2      NOp   2
                         Standard orientation:                         
 ---------------------------------------------------------------------
 Center     Atomic      Atomic             Coordinates (Angstroms)
 Number     Number       Type             X           Y           Z
 ---------------------------------------------------------------------
      1          6           0        0.000000    0.664998    0.000000
      2          1           0        0.925147    1.233768    0.000000
      3          1           0       -0.925104    1.233815    0.000000
      4          6           0        0.000000   -0.664998    0.000000
      5          1           0       -0.925147   -1.233768    0.000000
      6          1           0        0.925104   -1.233815    0.000000
 ---------------------------------------------------------------------
 Rotational constants (GHZ):    146.4775534     30.1719720     25.0185594
 Standard basis: 6-31+G(d,p) (6D, 7F)
 There are    22 symmetry adapted basis functions of AG  symmetry.
 There are     7 symmetry adapted basis functions of BG  symmetry.
 There are     7 symmetry adapted basis functions of AU  symmetry.
 There are    22 symmetry adapted basis functions of BU  symmetry.
 Integral buffers will be    262144 words long.
 Raffenetti 2 integral format.
 Two-electron integral symmetry is turned on.
    58 basis functions,    92 primitive gaussians,    58 cartesian basis functions
     8 alpha electrons        8 beta electrons
       nuclear repulsion energy        33.3751834472 Hartrees.
 NAtoms=    6 NActive=    6 NUniq=    3 SFac= 3.00D+00 NAtFMM=   80 NAOKFM=F Big=F
 One-electron integrals computed using PRISM.
 NBasis=    58 RedAO= T  NBF=    22     7     7    22
 NBsUse=    58 1.00D-06 NBFU=    22     7     7    22
 Initial guess read from the checkpoint file:  C:\Users\sagad\Documents\rayGit\FQ
 \quimicaComputacional\class3Eteno\reactivos\etheneM062x.chk
 B after Tr=     0.000000    0.000000    0.000000
         Rot=    1.000000    0.000000    0.000000    0.000000 Ang=   0.00 deg.
 Initial guess orbital symmetries:
       Occupied  (AG) (BU) (AG) (BU) (BU) (AG) (AG) (AU)
       Virtual   (BG) (BU) (AG) (BU) (AU) (AG) (AG) (BG) (BU) (AG)
                 (BU) (BU) (AG) (BU) (AG) (BU) (AU) (BG) (BU) (AG)
                 (BU) (AG) (AG) (BU) (BU) (AG) (BG) (AU) (AU) (AG)
                 (BU) (AG) (AG) (BU) (BG) (BU) (AU) (BG) (BU) (BG)
                 (AU) (AG) (AG) (BU) (AG) (BU) (BU) (AG) (AG) (BU)
 Requested convergence on RMS density matrix=1.00D-08 within 128 cycles.
 Requested convergence on MAX density matrix=1.00D-06.
 Requested convergence on             energy=1.00D-06.
 No special actions if energy rises.
 Keep R1 ints in memory in canonical form, NReq=2417035.
 SCF Done:  E(RM062X) =  -78.5464230149     A.U. after    1 cycles
             Convg  =    0.6975D-09             -V/T =  2.0095
 Range of M.O.s used for correlation:     1    58
 NBasis=    58 NAE=     8 NBE=     8 NFC=     0 NFV=     0
 NROrb=     58 NOA=     8 NOB=     8 NVA=    50 NVB=    50

 **** Warning!!: The largest alpha MO coefficient is  0.37720399D+02

 Symmetrizing basis deriv contribution to polar:
 IMax=3 JMax=2 DiffMx= 0.00D+00
 G2DrvN: will do     7 centers at a time, making    1 passes doing MaxLOS=2.
 Calling FoFCou, ICntrl=  3107 FMM=F I1Cent=   0 AccDes= 0.00D+00.
 FoFDir/FoFCou used for L=0 through L=2.
 End of G2Drv Frequency-dependent properties file   721 does not exist.
 End of G2Drv Frequency-dependent properties file   722 does not exist.
          IDoAtm=111111
          Differentiating once with respect to electric field.
                with respect to dipole field.
          Differentiating once with respect to nuclear coordinates.
          Keep R1 ints in memory in canonical form, NReq=2286014.
          There are    12 degrees of freedom in the 1st order CPHF.  IDoFFX=4.
     12 vectors produced by pass  0 Test12= 3.33D-15 8.33D-09 XBig12= 2.11D+01 3.71D+00.
 AX will form    12 AO Fock derivatives at one time.
     12 vectors produced by pass  1 Test12= 3.33D-15 8.33D-09 XBig12= 2.98D+00 7.23D-01.
     12 vectors produced by pass  2 Test12= 3.33D-15 8.33D-09 XBig12= 1.04D-01 1.25D-01.
     12 vectors produced by pass  3 Test12= 3.33D-15 8.33D-09 XBig12= 9.07D-04 8.70D-03.
     12 vectors produced by pass  4 Test12= 3.33D-15 8.33D-09 XBig12= 4.18D-06 5.04D-04.
     12 vectors produced by pass  5 Test12= 3.33D-15 8.33D-09 XBig12= 1.79D-08 3.13D-05.
      5 vectors produced by pass  6 Test12= 3.33D-15 8.33D-09 XBig12= 8.72D-11 3.34D-06.
      2 vectors produced by pass  7 Test12= 3.33D-15 8.33D-09 XBig12= 2.29D-13 1.60D-07.
      1 vectors produced by pass  8 Test12= 3.33D-15 8.33D-09 XBig12= 1.25D-15 1.72D-08.
 Inverted reduced A of dimension    80 with in-core refinement.
 Isotropic polarizability for W=    0.000000       24.16 Bohr**3.
 End of Minotr Frequency-dependent properties file   721 does not exist.
 End of Minotr Frequency-dependent properties file   722 does not exist.

 **********************************************************************

            Population analysis using the SCF density.

 **********************************************************************

 Orbital symmetries:
       Occupied  (AG) (BU) (AG) (BU) (BU) (AG) (AG) (AU)
       Virtual   (BG) (BU) (AG) (BU) (AU) (AG) (AG) (BG) (BU) (AG)
                 (BU) (BU) (AG) (BU) (AG) (BU) (AU) (BG) (BU) (AG)
                 (BU) (AG) (AG) (BU) (BU) (AG) (BG) (AU) (AU) (AG)
                 (BU) (AG) (AG) (BU) (BG) (BU) (AU) (BG) (BU) (BG)
                 (AU) (AG) (AG) (BU) (AG) (BU) (BU) (AG) (AG) (BU)
 The electronic state is 1-AG.
 Alpha  occ. eigenvalues --  -10.55162 -10.55049  -0.86005  -0.66295  -0.54170
 Alpha  occ. eigenvalues --   -0.48432  -0.41777  -0.33341
 Alpha virt. eigenvalues --    0.02763   0.04308   0.04461   0.06165   0.08430
 Alpha virt. eigenvalues --    0.09361   0.10126   0.14366   0.17266   0.22265
 Alpha virt. eigenvalues --    0.23344   0.28823   0.39115   0.39323   0.61041
 Alpha virt. eigenvalues --    0.69104   0.72589   0.77681   0.82571   0.85570
 Alpha virt. eigenvalues --    0.95091   0.98847   1.02230   1.06131   1.20484
 Alpha virt. eigenvalues --    1.24489   1.43722   1.44291   1.58575   1.89609
 Alpha virt. eigenvalues --    1.97509   2.03576   2.08364   2.11421   2.18652
 Alpha virt. eigenvalues --    2.26675   2.39316   2.46703   2.56039   2.63068
 Alpha virt. eigenvalues --    2.69528   2.73824   2.77023   3.02817   3.17636
 Alpha virt. eigenvalues --    3.33818   3.47856   3.76317   4.26022   4.53540
          Condensed to atoms (all electrons):
              1          2          3          4          5          6
     1  C    4.869587   0.388929   0.388931   0.703417  -0.024402  -0.024401
     2  H    0.388929   0.517905  -0.030437  -0.024402   0.003627  -0.006650
     3  H    0.388931  -0.030437   0.517897  -0.024401  -0.006650   0.003626
     4  C    0.703417  -0.024402  -0.024401   4.869587   0.388929   0.388931
     5  H   -0.024402   0.003627  -0.006650   0.388929   0.517905  -0.030437
     6  H   -0.024401  -0.006650   0.003626   0.388931  -0.030437   0.517897
 Mulliken atomic charges:
              1
     1  C   -0.302061
     2  H    0.151028
     3  H    0.151033
     4  C   -0.302061
     5  H    0.151028
     6  H    0.151033
 Sum of Mulliken atomic charges =   0.00000
 Mulliken charges with hydrogens summed into heavy atoms:
              1
     1  C    0.000000
     4  C    0.000000
 Sum of Mulliken charges with hydrogens summed into heavy atoms =   0.00000
 APT atomic charges:
              1
     1  C   -0.083108
     2  H    0.041549
     3  H    0.041559
     4  C   -0.083108
     5  H    0.041549
     6  H    0.041559
 Sum of APT charges=   0.00000
 APT Atomic charges with hydrogens summed into heavy atoms:
              1
     1  C    0.000000
     2  H    0.000000
     3  H    0.000000
     4  C    0.000000
     5  H    0.000000
     6  H    0.000000
 Sum of APT charges=   0.00000
 Electronic spatial extent (au):  <R**2>=             83.0720
 Charge=              0.0000 electrons
 Dipole moment (field-independent basis, Debye):
    X=              0.0000    Y=              0.0000    Z=              0.0000  Tot=              0.0000
 Quadrupole moment (field-independent basis, Debye-Ang):
   XX=            -12.3312   YY=            -12.2879   ZZ=            -15.9366
   XY=             -0.0001   XZ=              0.0000   YZ=              0.0000
 Traceless Quadrupole moment (field-independent basis, Debye-Ang):
   XX=              1.1874   YY=              1.2307   ZZ=             -2.4180
   XY=             -0.0001   XZ=              0.0000   YZ=              0.0000
 Octapole moment (field-independent basis, Debye-Ang**2):
  XXX=              0.0000  YYY=              0.0000  ZZZ=              0.0000  XYY=              0.0000
  XXY=              0.0000  XXZ=              0.0000  XZZ=              0.0000  YZZ=              0.0000
  YYZ=              0.0000  XYZ=              0.0000
 Hexadecapole moment (field-independent basis, Debye-Ang**3):
 XXXX=            -27.6916 YYYY=            -69.6565 ZZZZ=            -21.1220 XXXY=             -0.0001
 XXXZ=              0.0000 YYYX=             -0.0007 YYYZ=              0.0000 ZZZX=              0.0000
 ZZZY=              0.0000 XXYY=            -13.6002 XXZZ=             -8.8150 YYZZ=            -16.1955
 XXYZ=              0.0000 YYXZ=              0.0000 ZZXY=             -0.0001
 N-N= 3.337518344718D+01 E-N=-2.480015991745D+02  KE= 7.780563587051D+01
 Symmetry AG   KE= 3.952128847842D+01
 Symmetry BG   KE= 5.502961118685D-32
 Symmetry AU   KE= 2.016892014094D+00
 Symmetry BU   KE= 3.626745537799D+01
  Exact polarizability:  21.247   0.000  34.231   0.000   0.000  17.008
 Approx polarizability:  21.810   0.000  39.990   0.000   0.000  17.612
 Calling FoFJK, ICntrl=    100127 FMM=F ISym2X=1 I1Cent= 0 IOpClX= 0 NMat=1 NMatS=1 NMatT=0.
 Full mass-weighted force constant matrix:
 Low frequencies ---  -21.4021   -0.0007   -0.0005    0.0004    4.7057   95.4838
 Low frequencies ---  833.6430  996.8488 1000.6473
 Diagonal vibrational polarizability:
        0.0748524       0.1390477       3.3541583
 Harmonic frequencies (cm**-1), IR intensities (KM/Mole), Raman scattering
 activities (A**4/AMU), depolarization ratios for plane and unpolarized
 incident light, reduced masses (AMU), force constants (mDyne/A),
 and normal coordinates:
                     1                      2                      3
                    BU                     AU                     BG
 Frequencies --   833.6430               996.8488              1000.6353
 Red. masses --     1.0423                 1.1607                 1.5169
 Frc consts  --     0.4268                 0.6796                 0.8949
 IR Inten    --     0.6067               123.8537                 0.0000
  Atom  AN      X      Y      Z        X      Y      Z        X      Y      Z
     1   6    -0.04   0.00   0.00     0.00   0.00  -0.08     0.00   0.00   0.15
     2   1     0.24  -0.44   0.00     0.00   0.00   0.50     0.00   0.00  -0.49
     3   1     0.24   0.44   0.00     0.00   0.00   0.50     0.00   0.00  -0.49
     4   6    -0.04   0.00   0.00     0.00   0.00  -0.08     0.00   0.00  -0.15
     5   1     0.24  -0.44   0.00     0.00   0.00   0.50     0.00   0.00   0.49
     6   1     0.24   0.44   0.00     0.00   0.00   0.50     0.00   0.00   0.49
                     4                      5                      6
                    AU                     AG                     AG
 Frequencies --  1067.4878              1235.5989              1387.1081
 Red. masses --     1.0078                 1.5224                 1.2000
 Frc consts  --     0.6766                 1.3694                 1.3603
 IR Inten    --     0.0000                 0.0000                 0.0000
  Atom  AN      X      Y      Z        X      Y      Z        X      Y      Z
     1   6     0.00   0.00   0.00     0.15   0.00   0.00     0.00   0.09   0.00
     2   1     0.00   0.00   0.50    -0.14   0.47   0.00    -0.20   0.45   0.00
     3   1     0.00   0.00  -0.50    -0.14  -0.47   0.00     0.20   0.45   0.00
     4   6     0.00   0.00   0.00    -0.15   0.00   0.00     0.00  -0.09   0.00
     5   1     0.00   0.00   0.50     0.14  -0.47   0.00     0.20  -0.45   0.00
     6   1     0.00   0.00  -0.50     0.14   0.47   0.00    -0.20  -0.45   0.00
                     7                      8                      9
                    BU                     AG                     BU
 Frequencies --  1473.8356              1719.6873              3165.7081
 Red. masses --     1.1123                 3.2819                 1.0474
 Frc consts  --     1.4235                 5.7183                 6.1848
 IR Inten    --     8.9159                 0.0000                10.6465
  Atom  AN      X      Y      Z        X      Y      Z        X      Y      Z
     1   6     0.00   0.07   0.00     0.00   0.32   0.00     0.00  -0.04   0.00
     2   1     0.28  -0.41   0.00     0.38  -0.23   0.00     0.43   0.25   0.00
     3   1    -0.28  -0.41   0.00    -0.38  -0.23   0.00    -0.43   0.25   0.00
     4   6     0.00   0.07   0.00     0.00  -0.32   0.00     0.00  -0.04   0.00
     5   1     0.28  -0.41   0.00    -0.38   0.23   0.00     0.43   0.25   0.00
     6   1    -0.28  -0.41   0.00     0.38   0.23   0.00    -0.43   0.25   0.00
                    10                     11                     12
                    AG                     AG                     BU
 Frequencies --  3182.3988              3247.3475              3271.7423
 Red. masses --     1.0756                 1.1157                 1.1181
 Frc consts  --     6.4180                 6.9322                 7.0519
 IR Inten    --     0.0000                 0.0000                20.4282
  Atom  AN      X      Y      Z        X      Y      Z        X      Y      Z
     1   6     0.00   0.06   0.00    -0.07   0.00   0.00     0.07   0.00   0.00
     2   1    -0.43  -0.26   0.00     0.42   0.26   0.00    -0.42  -0.26   0.00
     3   1     0.43  -0.26   0.00     0.42  -0.26   0.00    -0.42   0.26   0.00
     4   6     0.00  -0.06   0.00     0.07   0.00   0.00     0.07   0.00   0.00
     5   1     0.43   0.26   0.00    -0.42  -0.26   0.00    -0.42  -0.26   0.00
     6   1    -0.43   0.26   0.00    -0.42   0.26   0.00    -0.42   0.26   0.00

 -------------------
 - Thermochemistry -
 -------------------
 Temperature   298.150 Kelvin.  Pressure   1.00000 Atm.
 Atom     1 has atomic number  6 and mass  12.00000
 Atom     2 has atomic number  1 and mass   1.00783
 Atom     3 has atomic number  1 and mass   1.00783
 Atom     4 has atomic number  6 and mass  12.00000
 Atom     5 has atomic number  1 and mass   1.00783
 Atom     6 has atomic number  1 and mass   1.00783
 Molecular mass:    28.03130 amu.
 Principal axes and moments of inertia in atomic units:
                           1         2         3
     Eigenvalues --    12.32094  59.81516  72.13610
           X            0.00000   1.00000   0.00000
           Y            1.00000   0.00000   0.00000
           Z            0.00000   0.00000   1.00000
 This molecule is an asymmetric top.
 Rotational symmetry number  2.
 Rotational temperatures (Kelvin)      7.02981     1.44802     1.20070
 Rotational constants (GHZ):         146.47755    30.17197    25.01856
 Zero-point vibrational energy     135070.6 (Joules/Mol)
                                   32.28265 (Kcal/Mol)
 Vibrational temperatures:   1199.42  1434.24  1439.69  1535.87  1777.75
          (Kelvin)           1995.74  2120.52  2474.24  4554.74  4578.76
                             4672.20  4707.30
 
 Zero-point correction=                           0.051446 (Hartree/Particle)
 Thermal correction to Energy=                    0.054480
 Thermal correction to Enthalpy=                  0.055424
 Thermal correction to Gibbs Free Energy=         0.029920
 Sum of electronic and zero-point Energies=            -78.494977
 Sum of electronic and thermal Energies=               -78.491943
 Sum of electronic and thermal Enthalpies=             -78.490999
 Sum of electronic and thermal Free Energies=          -78.516503
 
                     E (Thermal)             CV                S
                      KCal/Mol        Cal/Mol-Kelvin    Cal/Mol-Kelvin
 Total                   34.186              8.034             53.677
 Electronic               0.000              0.000              0.000
 Translational            0.889              2.981             35.927
 Rotational               0.889              2.981             17.237
 Vibrational             32.409              2.073              0.513
                       Q            Log10(Q)             Ln(Q)
 Total Bot       0.172881D-13        -13.762252        -31.688756
 Total V=0       0.796280D+10          9.901066         22.798046
 Vib (Bot)       0.227095D-23        -23.643792        -54.441844
 Vib (V=0)       0.104598D+01          0.019525          0.044959
 Electronic      0.100000D+01          0.000000          0.000000
 Translational   0.583338D+07          6.765920         15.579107
 Rotational      0.130503D+04          3.115620          7.173981
 ***** Axes restored to original set *****
 -------------------------------------------------------------------
 Center     Atomic                   Forces (Hartrees/Bohr)
 Number     Number              X              Y              Z
 -------------------------------------------------------------------
      1        6          -0.000075580   -0.000158892    0.000000000
      2        1          -0.000023728    0.000031915    0.000000000
      3        1           0.000032614   -0.000000972    0.000000000
      4        6           0.000075580    0.000158892    0.000000000
      5        1           0.000023728   -0.000031915    0.000000000
      6        1          -0.000032614    0.000000972    0.000000000
 -------------------------------------------------------------------
 Cartesian Forces:  Max     0.000158892 RMS     0.000061106

 GradGradGradGradGradGradGradGradGradGradGradGradGradGradGradGradGradGrad
 Berny optimization.
 Internal  Forces:  Max     0.000144156 RMS     0.000041747
 Search for a local minimum.
 Step number   1 out of a maximum of    2
 All quantities printed in internal units (Hartrees-Bohrs-Radians)
 Second derivative matrix not updated -- analytic derivatives used.
 The second derivative matrix:
                          R1        R2        R3        R4        R5
           R1           0.36494
           R2           0.00168   0.36497
           R3           0.00576   0.00576   0.65486
           R4          -0.00046   0.00062   0.00576   0.36494
           R5           0.00062  -0.00046   0.00576   0.00168   0.36497
           A1           0.00649   0.00649  -0.02115  -0.00112  -0.00112
           A2           0.00480  -0.01129   0.01058   0.00410  -0.00298
           A3          -0.01129   0.00480   0.01058  -0.00298   0.00410
           A4           0.00410  -0.00298   0.01058   0.00480  -0.01129
           A5          -0.00298   0.00410   0.01058  -0.01129   0.00480
           A6          -0.00112  -0.00112  -0.02115   0.00649   0.00649
           D1           0.00000   0.00000   0.00000   0.00000   0.00000
           D2           0.00000   0.00000   0.00000   0.00000   0.00000
           D3           0.00000   0.00000   0.00000   0.00000   0.00000
           D4           0.00000   0.00000   0.00000   0.00000   0.00000
                          A1        A2        A3        A4        A5
           A1           0.07264
           A2          -0.03632   0.08100
           A3          -0.03632  -0.04468   0.08100
           A4          -0.00155   0.01000  -0.00845   0.08100
           A5          -0.00155  -0.00845   0.00999  -0.04468   0.08100
           A6           0.00310  -0.00155  -0.00155  -0.03632  -0.03632
           D1           0.00000   0.00000   0.00000   0.00000   0.00000
           D2           0.00000   0.00000   0.00000   0.00000   0.00000
           D3           0.00000   0.00000   0.00000   0.00000   0.00000
           D4           0.00000   0.00000   0.00000   0.00000   0.00000
                          A6        D1        D2        D3        D4
           A6           0.07264
           D1           0.00000   0.03308
           D2           0.00000   0.00830   0.02659
           D3           0.00000   0.00830  -0.01000   0.02659
           D4           0.00000  -0.01648   0.00830   0.00830   0.03308
     Eigenvalues ---    0.03319   0.03659   0.04956   0.10365   0.10693
     Eigenvalues ---    0.11074   0.14169   0.36464   0.36467   0.36678
     Eigenvalues ---    0.36714   0.657731000.000001000.000001000.00000
 Angle between quadratic step and forces=  18.27 degrees.
 Linear search not attempted -- first point.
 Iteration  1 RMS(Cart)=  0.00006646 RMS(Int)=  0.00000000
 Iteration  2 RMS(Cart)=  0.00000000 RMS(Int)=  0.00000000
 ClnCor:  largest displacement from symmetrization is 1.66D-13 for atom     4.
 Variable       Old X    -DE/DX   Delta X   Delta X   Delta X     New X
                                 (Linear)    (Quad)   (Total)
    R1        2.05224  -0.00004   0.00000  -0.00011  -0.00011   2.05213
    R2        2.05222  -0.00003   0.00000  -0.00009  -0.00009   2.05213
    R3        2.51333   0.00014   0.00000   0.00022   0.00022   2.51355
    R4        2.05224  -0.00004   0.00000  -0.00011  -0.00011   2.05213
    R5        2.05222  -0.00003   0.00000  -0.00009  -0.00009   2.05213
    A1        2.03909  -0.00001   0.00000   0.00001   0.00001   2.03910
    A2        2.12202   0.00001   0.00000   0.00003   0.00003   2.12205
    A3        2.12208   0.00000   0.00000  -0.00003  -0.00003   2.12204
    A4        2.12202   0.00001   0.00000   0.00003   0.00003   2.12205
    A5        2.12208   0.00000   0.00000  -0.00003  -0.00003   2.12204
    A6        2.03909  -0.00001   0.00000   0.00001   0.00001   2.03910
    D1        3.14159   0.00000   0.00000   0.00000   0.00000   3.14159
    D2        0.00000   0.00000   0.00000   0.00000   0.00000   0.00000
    D3        0.00000   0.00000   0.00000   0.00000   0.00000   0.00000
    D4        3.14159   0.00000   0.00000   0.00000   0.00000   3.14159
         Item               Value     Threshold  Converged?
 Maximum Force            0.000144     0.000450     YES
 RMS     Force            0.000042     0.000300     YES
 Maximum Displacement     0.000109     0.001800     YES
 RMS     Displacement     0.000066     0.001200     YES
 Predicted change in Energy=-2.373712D-08
 Optimization completed.
    -- Stationary point found.
                           ----------------------------
                           !   Optimized Parameters   !
                           ! (Angstroms and Degrees)  !
 --------------------------                            --------------------------
 ! Name  Definition              Value          Derivative Info.                !
 --------------------------------------------------------------------------------
 ! R1    R(1,2)                  1.086          -DE/DX =    0.0                 !
 ! R2    R(1,3)                  1.086          -DE/DX =    0.0                 !
 ! R3    R(1,4)                  1.33           -DE/DX =    0.0001              !
 ! R4    R(4,5)                  1.086          -DE/DX =    0.0                 !
 ! R5    R(4,6)                  1.086          -DE/DX =    0.0                 !
 ! A1    A(2,1,3)              116.8312         -DE/DX =    0.0                 !
 ! A2    A(2,1,4)              121.5828         -DE/DX =    0.0                 !
 ! A3    A(3,1,4)              121.586          -DE/DX =    0.0                 !
 ! A4    A(1,4,5)              121.5828         -DE/DX =    0.0                 !
 ! A5    A(1,4,6)              121.586          -DE/DX =    0.0                 !
 ! A6    A(5,4,6)              116.8312         -DE/DX =    0.0                 !
 ! D1    D(2,1,4,5)            180.0            -DE/DX =    0.0                 !
 ! D2    D(2,1,4,6)              0.0            -DE/DX =    0.0                 !
 ! D3    D(3,1,4,5)              0.0            -DE/DX =    0.0                 !
 ! D4    D(3,1,4,6)            180.0            -DE/DX =    0.0                 !
 --------------------------------------------------------------------------------
 GradGradGradGradGradGradGradGradGradGradGradGradGradGradGradGradGradGrad

 1|1|UNPC-DESKTOP-319GPER|Freq|RM062X|6-31+G(d,p)|C2H4|SAGAD|29-Oct-202
 0|0||#N Geom=AllCheck Guess=TCheck SCRF=Check GenChk RM062X/6-31+G(d,p
 ) Freq||Ethene M062x||0,1|C,-3.4809807217,-2.9395559321,0.|H,-2.963966
 8199,-3.8945911066,0.|H,-4.5665463186,-2.9698396841,0.|C,-2.8162221883
 ,-1.7876073579,0.|H,-3.3332360901,-0.8325721834,0.|H,-1.7306565914,-1.
 7573236059,0.||Version=IA32W-G09RevA.02|State=1-AG|HF=-78.546423|RMSD=
 6.975e-010|RMSF=6.111e-005|ZeroPoint=0.0514457|Thermal=0.0544796|Dipol
 e=0.,0.,0.|DipoleDeriv=0.0728374,-0.0553037,0.,-0.0553016,0.0089346,0.
 ,0.,0.,-0.3310972,0.0143349,0.0683722,0.,0.0456059,-0.0552353,0.,0.,0.
 ,0.1655476,-0.0871723,-0.0130684,0.,0.0096957,0.0463007,0.,0.,0.,0.165
 5496,0.0728374,-0.0553037,0.,-0.0553016,0.0089346,0.,0.,0.,-0.3310972,
 0.0143349,0.0683722,0.,0.0456059,-0.0552353,0.,0.,0.,0.1655476,-0.0871
 723,-0.0130684,0.,0.0096957,0.0463007,0.,0.,0.,0.1655496|Polar=24.4902
 267,5.6207497,30.98712,0.,0.,17.0084115|PG=C02H [SGH(C2H4)]|NImag=0||0
 .70766835,0.10349685,0.82724209,0.,0.,0.11460668,-0.12793986,0.1253590
 0,0.,0.12496977,0.12117367,-0.27594025,0.,-0.13067551,0.29373646,0.,0.
 ,-0.03862218,0.,0.,0.02515863,-0.34572108,-0.00468078,0.,-0.00916590,-
 0.00273658,0.,0.36473520,-0.00049615,-0.05818770,0.,0.02485177,0.00361
 563,0.,0.00788489,0.05399661,0.,0.,-0.03861841,0.,0.,0.00325291,0.,0.,
 0.02515619,-0.23412295,-0.20992769,0.,0.01174154,0.01564446,0.,-0.0116
 2600,-0.02989114,0.,0.70766835,-0.20992769,-0.47675816,0.,-0.01638603,
 -0.01986312,0.,0.00213864,0.00350713,0.,0.10349685,0.82724209,0.,0.,-0
 .04970840,0.,0.,0.00617176,0.,0.,0.00617054,0.,0.,0.11460668,0.0117415
 4,-0.01638603,0.,-0.00074706,-0.00324968,0.,0.00114151,0.00010045,0.,-
 0.12793986,0.12535900,0.,0.12496977,0.01564446,-0.01986312,0.,-0.00324
 968,-0.00265811,0.,-0.00015637,0.00110938,0.,0.12117367,-0.27594025,0.
 ,-0.13067551,0.29373646,0.,0.,0.00617176,0.,0.,0.01279785,0.,0.,-0.008
 75897,0.,0.,-0.03862218,0.,0.,0.02515863,-0.01162600,0.00213864,0.,0.0
 0114151,-0.00015637,0.,0.00063627,-0.00244980,0.,-0.34572108,-0.004680
 78,0.,-0.00916590,-0.00273658,0.,0.36473520,-0.02989114,0.00350713,0.,
 0.00010045,0.00110938,0.,-0.00244980,-0.00404106,0.,-0.00049615,-0.058
 18770,0.,0.02485177,0.00361563,0.,0.00788489,0.05399661,0.,0.,0.006170
 54,0.,0.,-0.00875897,0.,0.,0.01279775,0.,0.,-0.03861841,0.,0.,0.003252
 91,0.,0.,0.02515619||0.00007558,0.00015889,0.,0.00002373,-0.00003191,0
 .,-0.00003261,0.00000097,0.,-0.00007558,-0.00015889,0.,-0.00002373,0.0
 0003191,0.,0.00003261,-0.00000097,0.|||@


 CLIMB THE MOUNTAINS AND GET THEIR GOOD TIDINGS.
 NATURE'S PEACE WILL FLOW INTO YOU AS SUNSHINE FLOWS INTO TREES.
 THE WINDS WILL BLOW THEIR OWN FRESHNESS INTO YOU, 
 AND CARES WILL DROP OFF LIKE AUTUMN LEAVES.

                                         -- JOHN MUIR
 Job cpu time:  0 days  0 hours  0 minutes  5.0 seconds.
 File lengths (MBytes):  RWF=      5 Int=      0 D2E=      0 Chk=      1 Scr=      1
 Normal termination of Gaussian 09 at Thu Oct 29 02:42:31 2020.
