 Entering Link 1 = C:\G09W\l1.exe PID=     16096.
  
 Copyright (c) 1988,1990,1992,1993,1995,1998,2003,2009, Gaussian, Inc.
                  All Rights Reserved.
  
 This is part of the Gaussian(R) 09 program.  It is based on
 the Gaussian(R) 03 system (copyright 2003, Gaussian, Inc.),
 the Gaussian(R) 98 system (copyright 1998, Gaussian, Inc.),
 the Gaussian(R) 94 system (copyright 1995, Gaussian, Inc.),
 the Gaussian 92(TM) system (copyright 1992, Gaussian, Inc.),
 the Gaussian 90(TM) system (copyright 1990, Gaussian, Inc.),
 the Gaussian 88(TM) system (copyright 1988, Gaussian, Inc.),
 the Gaussian 86(TM) system (copyright 1986, Carnegie Mellon
 University), and the Gaussian 82(TM) system (copyright 1983,
 Carnegie Mellon University). Gaussian is a federally registered
 trademark of Gaussian, Inc.
  
 This software contains proprietary and confidential information,
 including trade secrets, belonging to Gaussian, Inc.
  
 This software is provided under written license and may be
 used, copied, transmitted, or stored only in accord with that
 written license.
  
 The following legend is applicable only to US Government
 contracts under FAR:
  
                    RESTRICTED RIGHTS LEGEND
  
 Use, reproduction and disclosure by the US Government is
 subject to restrictions as set forth in subparagraphs (a)
 and (c) of the Commercial Computer Software - Restricted
 Rights clause in FAR 52.227-19.
  
 Gaussian, Inc.
 340 Quinnipiac St., Bldg. 40, Wallingford CT 06492
  
  
 ---------------------------------------------------------------
 Warning -- This program may not be used in any manner that
 competes with the business of Gaussian, Inc. or will provide
 assistance to any competitor of Gaussian, Inc.  The licensee
 of this program is prohibited from giving any competitor of
 Gaussian, Inc. access to this program.  By using this program,
 the user acknowledges that Gaussian, Inc. is engaged in the
 business of creating and licensing software in the field of
 computational chemistry and represents and warrants to the
 licensee that it is not a competitor of Gaussian, Inc. and that
 it will not use this program in any manner prohibited above.
 ---------------------------------------------------------------
  

 Cite this work as:
 Gaussian 09, Revision A.02,
 M. J. Frisch, G. W. Trucks, H. B. Schlegel, G. E. Scuseria, 
 M. A. Robb, J. R. Cheeseman, G. Scalmani, V. Barone, B. Mennucci, 
 G. A. Petersson, H. Nakatsuji, M. Caricato, X. Li, H. P. Hratchian, 
 A. F. Izmaylov, J. Bloino, G. Zheng, J. L. Sonnenberg, M. Hada, 
 M. Ehara, K. Toyota, R. Fukuda, J. Hasegawa, M. Ishida, T. Nakajima, 
 Y. Honda, O. Kitao, H. Nakai, T. Vreven, J. A. Montgomery, Jr., 
 J. E. Peralta, F. Ogliaro, M. Bearpark, J. J. Heyd, E. Brothers, 
 K. N. Kudin, V. N. Staroverov, R. Kobayashi, J. Normand, 
 K. Raghavachari, A. Rendell, J. C. Burant, S. S. Iyengar, J. Tomasi, 
 M. Cossi, N. Rega, J. M. Millam, M. Klene, J. E. Knox, J. B. Cross, 
 V. Bakken, C. Adamo, J. Jaramillo, R. Gomperts, R. E. Stratmann, 
 O. Yazyev, A. J. Austin, R. Cammi, C. Pomelli, J. W. Ochterski, 
 R. L. Martin, K. Morokuma, V. G. Zakrzewski, G. A. Voth, 
 P. Salvador, J. J. Dannenberg, S. Dapprich, A. D. Daniels, 
 O. Farkas, J. B. Foresman, J. V. Ortiz, J. Cioslowski, 
 and D. J. Fox, Gaussian, Inc., Wallingford CT, 2009.
 
 ******************************************
 Gaussian 09:  IA32W-G09RevA.02 11-Jun-2009
                29-Oct-2020 
 ******************************************
 %chk=C:\Users\sagad\Documents\rayGit\FQ\quimicaComputacional\class3Eteno\reactiv
 os\etheneHf.chk
 %nprocshared=4
 Will use up to    4 processors via shared memory.
 %mem=500mb
 ---------------------------------
 # opt freq=noraman 6-31+g(d,p) hf
 ---------------------------------
 1/18=20,19=15,38=1/1,3;
 2/9=110,12=2,17=6,18=5,40=1/2;
 3/5=1,6=6,7=111,11=9,16=1,25=1,30=1,71=1/1,2,3;
 4//1;
 5/5=2,38=5/2;
 6/7=2,8=2,9=2,10=2,28=1/1;
 7//1,2,3,16;
 1/18=20,19=15/3(2);
 2/9=110/2;
 99//99;
 2/9=110/2;
 3/5=1,6=6,7=111,11=9,16=1,25=1,30=1,71=1/1,2,3;
 4/5=5,16=3/1;
 5/5=2,38=5/2;
 7//1,2,3,16;
 1/18=20,19=15/3(-5);
 2/9=110/2;
 6/7=2,8=2,9=2,10=2,19=2,28=1/1;
 99/9=1/99;
 ---------
 Ethene HF
 ---------
 Symbolic Z-matrix:
 Charge =  0 Multiplicity = 1
 C                    -3.48624  -2.95107   0. 
 H                    -2.95307  -3.87878   0. 
 H                    -4.55624  -2.95107   0. 
 C                    -2.81096  -1.77609   0. 
 H                    -3.34413  -0.84839   0. 
 H                    -1.74096  -1.77609   0. 
 

 GradGradGradGradGradGradGradGradGradGradGradGradGradGradGradGradGradGrad
 Berny optimization.
 Initialization pass.
                           ----------------------------
                           !    Initial Parameters    !
                           ! (Angstroms and Degrees)  !
 --------------------------                            --------------------------
 ! Name  Definition              Value          Derivative Info.                !
 --------------------------------------------------------------------------------
 ! R1    R(1,2)                  1.07           estimate D2E/DX2                !
 ! R2    R(1,3)                  1.07           estimate D2E/DX2                !
 ! R3    R(1,4)                  1.3552         estimate D2E/DX2                !
 ! R4    R(4,5)                  1.07           estimate D2E/DX2                !
 ! R5    R(4,6)                  1.07           estimate D2E/DX2                !
 ! A1    A(2,1,3)              119.8865         estimate D2E/DX2                !
 ! A2    A(2,1,4)              120.2269         estimate D2E/DX2                !
 ! A3    A(3,1,4)              119.8865         estimate D2E/DX2                !
 ! A4    A(1,4,5)              120.2269         estimate D2E/DX2                !
 ! A5    A(1,4,6)              119.8865         estimate D2E/DX2                !
 ! A6    A(5,4,6)              119.8865         estimate D2E/DX2                !
 ! D1    D(2,1,4,5)            180.0            estimate D2E/DX2                !
 ! D2    D(2,1,4,6)              0.0            estimate D2E/DX2                !
 ! D3    D(3,1,4,5)              0.0            estimate D2E/DX2                !
 ! D4    D(3,1,4,6)            180.0            estimate D2E/DX2                !
 --------------------------------------------------------------------------------
 Trust Radius=3.00D-01 FncErr=1.00D-07 GrdErr=1.00D-07
 Number of steps in this run=  25 maximum allowed number of steps= 100.
 GradGradGradGradGradGradGradGradGradGradGradGradGradGradGradGradGradGrad

                          Input orientation:                          
 ---------------------------------------------------------------------
 Center     Atomic      Atomic             Coordinates (Angstroms)
 Number     Number       Type             X           Y           Z
 ---------------------------------------------------------------------
      1          6           0       -3.486239   -2.951070    0.000000
      2          1           0       -2.953075   -3.878775    0.000000
      3          1           0       -4.556239   -2.951070    0.000000
      4          6           0       -2.810964   -1.776093    0.000000
      5          1           0       -3.344128   -0.848388    0.000000
      6          1           0       -1.740964   -1.776093    0.000000
 ---------------------------------------------------------------------
                    Distance matrix (angstroms):
                    1          2          3          4          5
     1  C    0.000000
     2  H    1.070000   0.000000
     3  H    1.070000   1.852234   0.000000
     4  C    1.355200   2.107479   2.103938   0.000000
     5  H    2.107479   3.055514   2.427032   1.070000   0.000000
     6  H    2.103938   2.427032   3.050630   1.070000   1.852234
                    6
     6  H    0.000000
 Stoichiometry    C2H4
 Framework group  C2H[SGH(C2H4)]
 Deg. of freedom     5
 Full point group                 C2H     NOp   4
 Largest Abelian subgroup         C2H     NOp   4
 Largest concise Abelian subgroup C2      NOp   2
                         Standard orientation:                         
 ---------------------------------------------------------------------
 Center     Atomic      Atomic             Coordinates (Angstroms)
 Number     Number       Type             X           Y           Z
 ---------------------------------------------------------------------
      1          6           0        0.000000    0.677600    0.000000
      2          1           0        0.924521    1.216266    0.000000
      3          1           0       -0.927705    1.210764    0.000000
      4          6           0        0.000000   -0.677600    0.000000
      5          1           0       -0.924521   -1.216266    0.000000
      6          1           0        0.927705   -1.210764    0.000000
 ---------------------------------------------------------------------
 Rotational constants (GHZ):    146.1648690     29.8053188     24.7569806
 Standard basis: 6-31+G(d,p) (6D, 7F)
 There are    22 symmetry adapted basis functions of AG  symmetry.
 There are     7 symmetry adapted basis functions of BG  symmetry.
 There are     7 symmetry adapted basis functions of AU  symmetry.
 There are    22 symmetry adapted basis functions of BU  symmetry.
 Integral buffers will be    262144 words long.
 Raffenetti 1 integral format.
 Two-electron integral symmetry is turned on.
    58 basis functions,    92 primitive gaussians,    58 cartesian basis functions
     8 alpha electrons        8 beta electrons
       nuclear repulsion energy        33.3121054968 Hartrees.
 NAtoms=    6 NActive=    6 NUniq=    3 SFac= 3.00D+00 NAtFMM=   80 NAOKFM=F Big=F
 One-electron integrals computed using PRISM.
 NBasis=    58 RedAO= T  NBF=    22     7     7    22
 NBsUse=    58 1.00D-06 NBFU=    22     7     7    22
 Harris functional with IExCor=  205 diagonalized for initial guess.
 ExpMin= 4.38D-02 ExpMax= 3.05D+03 ExpMxC= 4.57D+02 IAcc=2 IRadAn=         0 AccDes= 0.00D+00
 HarFok:  IExCor=  205 AccDes= 0.00D+00 IRadAn=         0 IDoV= 1
 ScaDFX=  1.000000  1.000000  1.000000  1.000000
 FoFCou: FMM=F IPFlag=           0 FMFlag=      100000 FMFlg1=           0
         NFxFlg=           0 DoJE=T BraDBF=F KetDBF=T FulRan=T
         Omega=  0.000000  0.000000  1.000000  0.000000  0.000000 ICntrl=     500 IOpCl=  0
         NMat0=    1 NMatS0=    1 NMatT0=    0 NMatD0=    1 NMtDS0=    0 NMtDT0=    0
         I1Cent=           4 NGrid=           0.
 Petite list used in FoFCou.
 Initial guess orbital symmetries:
       Occupied  (AG) (BU) (AG) (BU) (BU) (AG) (AG) (AU)
       Virtual   (BG) (AG) (BU) (BU) (AU) (AG) (AG) (BG) (AG) (BU)
                 (BU) (BU) (BU) (AG) (AG) (BU) (AU) (BU) (BG) (AG)
                 (BU) (AG) (AG) (BU) (BU) (AG) (AU) (BG) (AU) (AG)
                 (BU) (AG) (AG) (BU) (BG) (BU) (AU) (BG) (BU) (BG)
                 (AU) (AG) (AG) (BU) (AG) (BU) (BU) (AG) (AG) (BU)
 The electronic state of the initial guess is 1-AG.
 Requested convergence on RMS density matrix=1.00D-08 within 128 cycles.
 Requested convergence on MAX density matrix=1.00D-06.
 Requested convergence on             energy=1.00D-06.
 No special actions if energy rises.
 Keep R1 ints in memory in canonical form, NReq=2313633.
 SCF Done:  E(RHF) =  -78.0411950555     A.U. after    9 cycles
             Convg  =    0.9898D-08             -V/T =  2.0019

 **********************************************************************

            Population analysis using the SCF density.

 **********************************************************************

 Orbital symmetries:
       Occupied  (AG) (BU) (AG) (BU) (BU) (AG) (AG) (AU)
       Virtual   (BU) (AG) (BG) (BU) (AU) (AG) (AG) (BU) (BG) (AG)
                 (BU) (BU) (AG) (BU) (AG) (BU) (AU) (BG) (AG) (BU)
                 (BU) (AG) (AG) (BU) (BU) (AG) (BG) (AU) (AU) (AG)
                 (BU) (AG) (AG) (BU) (BG) (BU) (AU) (BG) (BU) (BG)
                 (AU) (AG) (AG) (BU) (AG) (BU) (BU) (AG) (AG) (BU)
 The electronic state is 1-AG.
 Alpha  occ. eigenvalues --  -11.23748 -11.23598  -1.03258  -0.79831  -0.65154
 Alpha  occ. eigenvalues --   -0.57986  -0.51927  -0.37007
 Alpha virt. eigenvalues --    0.09203   0.09647   0.10416   0.11656   0.13778
 Alpha virt. eigenvalues --    0.14295   0.15889   0.22787   0.23659   0.31937
 Alpha virt. eigenvalues --    0.35270   0.39683   0.49928   0.50917   0.76462
 Alpha virt. eigenvalues --    0.85038   0.90859   0.96966   1.00703   1.01302
 Alpha virt. eigenvalues --    1.15093   1.18466   1.21186   1.25473   1.37886
 Alpha virt. eigenvalues --    1.47972   1.64266   1.65449   1.79105   2.17352
 Alpha virt. eigenvalues --    2.22618   2.27499   2.30208   2.39157   2.44835
 Alpha virt. eigenvalues --    2.56258   2.67583   2.79593   2.85804   2.91197
 Alpha virt. eigenvalues --    3.03438   3.08847   3.10090   3.34205   3.60671
 Alpha virt. eigenvalues --    3.74227   3.92636   4.13326   4.63992   4.93166
          Condensed to atoms (all electrons):
              1          2          3          4          5          6
     1  C    4.830845   0.385048   0.385007   0.709725  -0.012267  -0.012640
     2  H    0.385048   0.507849  -0.023021  -0.012267   0.002396  -0.003159
     3  H    0.385007  -0.023021   0.508801  -0.012640  -0.003159   0.002451
     4  C    0.709725  -0.012267  -0.012640   4.830845   0.385048   0.385007
     5  H   -0.012267   0.002396  -0.003159   0.385048   0.507849  -0.023021
     6  H   -0.012640  -0.003159   0.002451   0.385007  -0.023021   0.508801
 Mulliken atomic charges:
              1
     1  C   -0.285717
     2  H    0.143155
     3  H    0.142562
     4  C   -0.285717
     5  H    0.143155
     6  H    0.142562
 Sum of Mulliken atomic charges =   0.00000
 Mulliken charges with hydrogens summed into heavy atoms:
              1
     1  C    0.000000
     4  C    0.000000
 Sum of Mulliken charges with hydrogens summed into heavy atoms =   0.00000
 Electronic spatial extent (au):  <R**2>=             83.4335
 Charge=              0.0000 electrons
 Dipole moment (field-independent basis, Debye):
    X=              0.0000    Y=              0.0000    Z=              0.0000  Tot=              0.0000
 Quadrupole moment (field-independent basis, Debye-Ang):
   XX=            -12.2641   YY=            -12.3822   ZZ=            -16.3385
   XY=              0.0141   XZ=              0.0000   YZ=              0.0000
 Traceless Quadrupole moment (field-independent basis, Debye-Ang):
   XX=              1.3975   YY=              1.2794   ZZ=             -2.6769
   XY=              0.0141   XZ=              0.0000   YZ=              0.0000
 Octapole moment (field-independent basis, Debye-Ang**2):
  XXX=              0.0000  YYY=              0.0000  ZZZ=              0.0000  XYY=              0.0000
  XXY=              0.0000  XXZ=              0.0000  XZZ=              0.0000  YZZ=              0.0000
  YYZ=              0.0000  XYZ=              0.0000
 Hexadecapole moment (field-independent basis, Debye-Ang**3):
 XXXX=            -26.6874 YYYY=            -69.2585 ZZZZ=            -22.7854 XXXY=              0.0037
 XXXZ=              0.0000 YYYX=              0.0631 YYYZ=              0.0000 ZZZX=              0.0000
 ZZZY=              0.0000 XXYY=            -13.2990 XXZZ=             -8.9779 YYZZ=            -16.4075
 XXYZ=              0.0000 YYXZ=              0.0000 ZZXY=              0.0017
 N-N= 3.331210549684D+01 E-N=-2.477483779420D+02  KE= 7.789193746228D+01
 Symmetry AG   KE= 3.960898314448D+01
 Symmetry BG   KE= 1.066874697445D-31
 Symmetry AU   KE= 1.864961003795D+00
 Symmetry BU   KE= 3.641799331401D+01
 Calling FoFJK, ICntrl=      2127 FMM=F ISym2X=1 I1Cent= 0 IOpClX= 0 NMat=1 NMatS=1 NMatT=0.
 ***** Axes restored to original set *****
 -------------------------------------------------------------------
 Center     Atomic                   Forces (Hartrees/Bohr)
 Number     Number              X              Y              Z
 -------------------------------------------------------------------
      1        6           0.024150097    0.043821298    0.000000000
      2        1          -0.001408839   -0.005311479    0.000000000
      3        1          -0.004048928   -0.004375907    0.000000000
      4        6          -0.024150097   -0.043821298    0.000000000
      5        1           0.001408839    0.005311479    0.000000000
      6        1           0.004048928    0.004375907    0.000000000
 -------------------------------------------------------------------
 Cartesian Forces:  Max     0.043821298 RMS     0.016895997

 GradGradGradGradGradGradGradGradGradGradGradGradGradGradGradGradGradGrad
 Berny optimization.
 Internal  Forces:  Max     0.038908664 RMS     0.010554046
 Search for a local minimum.
 Step number   1 out of a maximum of   25
 All quantities printed in internal units (Hartrees-Bohrs-Radians)
 Mixed Optimization -- RFO/linear search
 Second derivative matrix not updated -- first step.
 The second derivative matrix:
                          R1        R2        R3        R4        R5
           R1           0.37230
           R2           0.00000   0.37230
           R3           0.00000   0.00000   0.53930
           R4           0.00000   0.00000   0.00000   0.37230
           R5           0.00000   0.00000   0.00000   0.00000   0.37230
           A1           0.00000   0.00000   0.00000   0.00000   0.00000
           A2           0.00000   0.00000   0.00000   0.00000   0.00000
           A3           0.00000   0.00000   0.00000   0.00000   0.00000
           A4           0.00000   0.00000   0.00000   0.00000   0.00000
           A5           0.00000   0.00000   0.00000   0.00000   0.00000
           A6           0.00000   0.00000   0.00000   0.00000   0.00000
           D1           0.00000   0.00000   0.00000   0.00000   0.00000
           D2           0.00000   0.00000   0.00000   0.00000   0.00000
           D3           0.00000   0.00000   0.00000   0.00000   0.00000
           D4           0.00000   0.00000   0.00000   0.00000   0.00000
                          A1        A2        A3        A4        A5
           A1           0.16000
           A2           0.00000   0.16000
           A3           0.00000   0.00000   0.16000
           A4           0.00000   0.00000   0.00000   0.16000
           A5           0.00000   0.00000   0.00000   0.00000   0.16000
           A6           0.00000   0.00000   0.00000   0.00000   0.00000
           D1           0.00000   0.00000   0.00000   0.00000   0.00000
           D2           0.00000   0.00000   0.00000   0.00000   0.00000
           D3           0.00000   0.00000   0.00000   0.00000   0.00000
           D4           0.00000   0.00000   0.00000   0.00000   0.00000
                          A6        D1        D2        D3        D4
           A6           0.16000
           D1           0.00000   0.02681
           D2           0.00000   0.00000   0.02681
           D3           0.00000   0.00000   0.00000   0.02681
           D4           0.00000   0.00000   0.00000   0.00000   0.02681
     Eigenvalues ---    0.02681   0.02681   0.02681   0.16000   0.16000
     Eigenvalues ---    0.16000   0.16000   0.37230   0.37230   0.37230
     Eigenvalues ---    0.37230   0.539301000.000001000.000001000.00000
 RFO step:  Lambda=-3.53004914D-03 EMin= 2.68137392D-02
 Linear search not attempted -- first point.
 Iteration  1 RMS(Cart)=  0.01383473 RMS(Int)=  0.00017408
 Iteration  2 RMS(Cart)=  0.00018245 RMS(Int)=  0.00000001
 Iteration  3 RMS(Cart)=  0.00000001 RMS(Int)=  0.00000000
 ClnCor:  largest displacement from symmetrization is 6.48D-14 for atom     6.
 Variable       Old X    -DE/DX   Delta X   Delta X   Delta X     New X
                                 (Linear)    (Quad)   (Total)
    R1        2.02201   0.00390   0.00000   0.01039   0.01039   2.03239
    R2        2.02201   0.00405   0.00000   0.01077   0.01077   2.03278
    R3        2.56096  -0.03891   0.00000  -0.07168  -0.07168   2.48928
    R4        2.02201   0.00390   0.00000   0.01039   0.01039   2.03239
    R5        2.02201   0.00405   0.00000   0.01077   0.01077   2.03278
    A1        2.09241  -0.00556   0.00000  -0.03398  -0.03398   2.05844
    A2        2.09836   0.00226   0.00000   0.01385   0.01385   2.11221
    A3        2.09241   0.00329   0.00000   0.02013   0.02013   2.11254
    A4        2.09836   0.00226   0.00000   0.01385   0.01385   2.11221
    A5        2.09241   0.00329   0.00000   0.02013   0.02013   2.11254
    A6        2.09241  -0.00556   0.00000  -0.03398  -0.03398   2.05844
    D1        3.14159   0.00000   0.00000   0.00000   0.00000   3.14159
    D2        0.00000   0.00000   0.00000   0.00000   0.00000   0.00000
    D3        0.00000   0.00000   0.00000   0.00000   0.00000   0.00000
    D4        3.14159   0.00000   0.00000   0.00000   0.00000   3.14159
         Item               Value     Threshold  Converged?
 Maximum Force            0.038909     0.000450     NO 
 RMS     Force            0.010554     0.000300     NO 
 Maximum Displacement     0.032210     0.001800     NO 
 RMS     Displacement     0.013885     0.001200     NO 
 Predicted change in Energy=-1.781065D-03
 GradGradGradGradGradGradGradGradGradGradGradGradGradGradGradGradGradGrad

                          Input orientation:                          
 ---------------------------------------------------------------------
 Center     Atomic      Atomic             Coordinates (Angstroms)
 Number     Number       Type             X           Y           Z
 ---------------------------------------------------------------------
      1          6           0       -3.477834   -2.934025    0.000000
      2          1           0       -2.956619   -3.874784    0.000000
      3          1           0       -4.553355   -2.953707    0.000000
      4          6           0       -2.819369   -1.793138    0.000000
      5          1           0       -3.340584   -0.852380    0.000000
      6          1           0       -1.743848   -1.773456    0.000000
 ---------------------------------------------------------------------
                    Distance matrix (angstroms):
                    1          2          3          4          5
     1  C    0.000000
     2  H    1.075496   0.000000
     3  H    1.075701   1.843352   0.000000
     4  C    1.317270   2.086165   2.086534   0.000000
     5  H    2.086165   3.046696   2.426188   1.075496   0.000000
     6  H    2.086534   2.426188   3.047346   1.075701   1.843352
                    6
     6  H    0.000000
 Stoichiometry    C2H4
 Framework group  C2H[SGH(C2H4)]
 Deg. of freedom     5
 Full point group                 C2H     NOp   4
 Largest Abelian subgroup         C2H     NOp   4
 Largest concise Abelian subgroup C2      NOp   2
                         Standard orientation:                         
 ---------------------------------------------------------------------
 Center     Atomic      Atomic             Coordinates (Angstroms)
 Number     Number       Type             X           Y           Z
 ---------------------------------------------------------------------
      1          6           0        0.000000    0.658635    0.000000
      2          1           0       -0.921682    1.212886    0.000000
      3          1           0        0.921671    1.213302    0.000000
      4          6           0        0.000000   -0.658635    0.000000
      5          1           0        0.921682   -1.212886    0.000000
      6          1           0       -0.921671   -1.213302    0.000000
 ---------------------------------------------------------------------
 Rotational constants (GHZ):    147.5758926     30.9220469     25.5652737
 Standard basis: 6-31+G(d,p) (6D, 7F)
 There are    22 symmetry adapted basis functions of AG  symmetry.
 There are     7 symmetry adapted basis functions of BG  symmetry.
 There are     7 symmetry adapted basis functions of AU  symmetry.
 There are    22 symmetry adapted basis functions of BU  symmetry.
 Integral buffers will be    262144 words long.
 Raffenetti 1 integral format.
 Two-electron integral symmetry is turned on.
    58 basis functions,    92 primitive gaussians,    58 cartesian basis functions
     8 alpha electrons        8 beta electrons
       nuclear repulsion energy        33.7146518223 Hartrees.
 NAtoms=    6 NActive=    6 NUniq=    3 SFac= 3.00D+00 NAtFMM=   80 NAOKFM=F Big=F
 One-electron integrals computed using PRISM.
 NBasis=    58 RedAO= T  NBF=    22     7     7    22
 NBsUse=    58 1.00D-06 NBFU=    22     7     7    22
 Initial guess read from the read-write file.
 B after Tr=     0.000000    0.000000    0.000000
         Rot=    1.000000    0.000000    0.000000    0.000000 Ang=   0.00 deg.
 Initial guess orbital symmetries:
       Occupied  (AG) (BU) (AG) (BU) (BU) (AG) (AG) (AU)
       Virtual   (BU) (AG) (BG) (BU) (AU) (AG) (AG) (BU) (BG) (AG)
                 (BU) (BU) (AG) (BU) (AG) (BU) (AU) (BG) (AG) (BU)
                 (BU) (AG) (AG) (BU) (BU) (AG) (BG) (AU) (AU) (AG)
                 (BU) (AG) (AG) (BU) (BG) (BU) (AU) (BG) (BU) (BG)
                 (AU) (AG) (AG) (BU) (AG) (BU) (BU) (AG) (AG) (BU)
 Harris functional with IExCor=  205 diagonalized for initial guess.
 ExpMin= 4.38D-02 ExpMax= 3.05D+03 ExpMxC= 4.57D+02 IAcc=2 IRadAn=         0 AccDes= 0.00D+00
 HarFok:  IExCor=  205 AccDes= 0.00D+00 IRadAn=         0 IDoV= 1
 ScaDFX=  1.000000  1.000000  1.000000  1.000000
 FoFCou: FMM=F IPFlag=           0 FMFlag=      100000 FMFlg1=           0
         NFxFlg=           0 DoJE=T BraDBF=F KetDBF=T FulRan=T
         Omega=  0.000000  0.000000  1.000000  0.000000  0.000000 ICntrl=     500 IOpCl=  0
         NMat0=    1 NMatS0=    1 NMatT0=    0 NMatD0=    1 NMtDS0=    0 NMtDT0=    0
         I1Cent=           4 NGrid=           0.
 Petite list used in FoFCou.
 Requested convergence on RMS density matrix=1.00D-08 within 128 cycles.
 Requested convergence on MAX density matrix=1.00D-06.
 Requested convergence on             energy=1.00D-06.
 No special actions if energy rises.
 Keep R1 ints in memory in canonical form, NReq=2313633.
 SCF Done:  E(RHF) =  -78.0429465772     A.U. after   11 cycles
             Convg  =    0.1209D-08             -V/T =  2.0008
 Calling FoFJK, ICntrl=      2127 FMM=F ISym2X=1 I1Cent= 0 IOpClX= 0 NMat=1 NMatS=1 NMatT=0.
 ***** Axes restored to original set *****
 -------------------------------------------------------------------
 Center     Atomic                   Forces (Hartrees/Bohr)
 Number     Number              X              Y              Z
 -------------------------------------------------------------------
      1        6          -0.001185947   -0.001920848    0.000000000
      2        1          -0.001699241   -0.001489675    0.000000000
      3        1          -0.000278172   -0.002179853    0.000000000
      4        6           0.001185947    0.001920848    0.000000000
      5        1           0.001699241    0.001489675    0.000000000
      6        1           0.000278172    0.002179853    0.000000000
 -------------------------------------------------------------------
 Cartesian Forces:  Max     0.002179853 RMS     0.001292363

 GradGradGradGradGradGradGradGradGradGradGradGradGradGradGradGradGradGrad
 Berny optimization.
 Using GEDIIS/GDIIS optimizer.
 Internal  Forces:  Max     0.006423097 RMS     0.002135026
 Search for a local minimum.
 Step number   2 out of a maximum of   25
 All quantities printed in internal units (Hartrees-Bohrs-Radians)
 Mixed Optimization -- RFO/linear search
 Update second derivatives using D2CorX and points    1    2
 DE= -1.75D-03 DEPred=-1.78D-03 R= 9.83D-01
 SS=  1.41D+00  RLast= 9.53D-02 DXNew= 5.0454D-01 2.8600D-01
 Trust test= 9.83D-01 RLast= 9.53D-02 DXMaxT set to 3.00D-01
 The second derivative matrix:
                          R1        R2        R3        R4        R5
           R1           0.37122
           R2          -0.00095   0.37149
           R3           0.00046  -0.00174   0.67185
           R4          -0.00108  -0.00095   0.00046   0.37122
           R5          -0.00095  -0.00081  -0.00174  -0.00095   0.37149
           A1           0.00360   0.00360  -0.02813   0.00360   0.00360
           A2          -0.00175  -0.00178   0.01528  -0.00175  -0.00178
           A3          -0.00184  -0.00182   0.01286  -0.00184  -0.00182
           A4          -0.00175  -0.00178   0.01528  -0.00175  -0.00178
           A5          -0.00184  -0.00182   0.01286  -0.00184  -0.00182
           A6           0.00360   0.00360  -0.02813   0.00360   0.00360
           D1           0.00000   0.00000   0.00000   0.00000   0.00000
           D2           0.00000   0.00000   0.00000   0.00000   0.00000
           D3           0.00000   0.00000   0.00000   0.00000   0.00000
           D4           0.00000   0.00000   0.00000   0.00000   0.00000
                          A1        A2        A3        A4        A5
           A1           0.15337
           A2           0.00292   0.15875
           A3           0.00371  -0.00167   0.15796
           A4           0.00292  -0.00125  -0.00167   0.15875
           A5           0.00371  -0.00167  -0.00204  -0.00167   0.15796
           A6          -0.00663   0.00292   0.00371   0.00292   0.00371
           D1           0.00000   0.00000   0.00000   0.00000   0.00000
           D2           0.00000   0.00000   0.00000   0.00000   0.00000
           D3           0.00000   0.00000   0.00000   0.00000   0.00000
           D4           0.00000   0.00000   0.00000   0.00000   0.00000
                          A6        D1        D2        D3        D4
           A6           0.15337
           D1           0.00000   0.02681
           D2           0.00000   0.00000   0.02681
           D3           0.00000   0.00000   0.00000   0.02681
           D4           0.00000   0.00000   0.00000   0.00000   0.02681
 Use linear search instead of GDIIS.
     Eigenvalues ---    0.02681   0.02681   0.02681   0.13499   0.16000
     Eigenvalues ---    0.16000   0.16008   0.36911   0.37230   0.37230
     Eigenvalues ---    0.37232   0.676321000.000001000.000001000.00000
 RFO step:  Lambda=-2.25120774D-04 EMin= 2.68137392D-02
 Quartic linear search produced a step of -0.03527.
 Iteration  1 RMS(Cart)=  0.01235724 RMS(Int)=  0.00005445
 Iteration  2 RMS(Cart)=  0.00005467 RMS(Int)=  0.00000000
 Iteration  3 RMS(Cart)=  0.00000000 RMS(Int)=  0.00000000
 ClnCor:  largest displacement from symmetrization is 5.09D-14 for atom     5.
 Variable       Old X    -DE/DX   Delta X   Delta X   Delta X     New X
                                 (Linear)    (Quad)   (Total)
    R1        2.03239   0.00048  -0.00037   0.00229   0.00192   2.03431
    R2        2.03278   0.00032  -0.00038   0.00191   0.00153   2.03431
    R3        2.48928   0.00642   0.00253   0.00435   0.00688   2.49616
    R4        2.03239   0.00048  -0.00037   0.00229   0.00192   2.03431
    R5        2.03278   0.00032  -0.00038   0.00191   0.00153   2.03431
    A1        2.05844  -0.00297   0.00120  -0.02147  -0.02027   2.03817
    A2        2.11221   0.00152  -0.00049   0.01061   0.01012   2.12232
    A3        2.11254   0.00145  -0.00071   0.01086   0.01015   2.12269
    A4        2.11221   0.00152  -0.00049   0.01061   0.01012   2.12232
    A5        2.11254   0.00145  -0.00071   0.01086   0.01015   2.12269
    A6        2.05844  -0.00297   0.00120  -0.02147  -0.02027   2.03817
    D1        3.14159   0.00000   0.00000   0.00000   0.00000   3.14159
    D2        0.00000   0.00000   0.00000   0.00000   0.00000   0.00000
    D3        0.00000   0.00000   0.00000   0.00000   0.00000   0.00000
    D4        3.14159   0.00000   0.00000   0.00000   0.00000   3.14159
         Item               Value     Threshold  Converged?
 Maximum Force            0.006423     0.000450     NO 
 RMS     Force            0.002135     0.000300     NO 
 Maximum Displacement     0.023562     0.001800     NO 
 RMS     Displacement     0.012358     0.001200     NO 
 Predicted change in Energy=-1.128596D-04
 GradGradGradGradGradGradGradGradGradGradGradGradGradGradGradGradGradGrad

                          Input orientation:                          
 ---------------------------------------------------------------------
 Center     Atomic      Atomic             Coordinates (Angstroms)
 Number     Number       Type             X           Y           Z
 ---------------------------------------------------------------------
      1          6           0       -3.478763   -2.935591    0.000000
      2          1           0       -2.966641   -3.882486    0.000000
      3          1           0       -4.554838   -2.966175    0.000000
      4          6           0       -2.818440   -1.791573    0.000000
      5          1           0       -3.330561   -0.844677    0.000000
      6          1           0       -1.742365   -1.760988    0.000000
 ---------------------------------------------------------------------
                    Distance matrix (angstroms):
                    1          2          3          4          5
     1  C    0.000000
     2  H    1.076512   0.000000
     3  H    1.076510   1.833574   0.000000
     4  C    1.320910   2.096159   2.096370   0.000000
     5  H    2.096159   3.059529   2.449409   1.076512   0.000000
     6  H    2.096370   2.449409   3.059817   1.076510   1.833574
                    6
     6  H    0.000000
 Stoichiometry    C2H4
 Framework group  C2H[SGH(C2H4)]
 Deg. of freedom     5
 Full point group                 C2H     NOp   4
 Largest Abelian subgroup         C2H     NOp   4
 Largest concise Abelian subgroup C2      NOp   2
                         Standard orientation:                         
 ---------------------------------------------------------------------
 Center     Atomic      Atomic             Coordinates (Angstroms)
 Number     Number       Type             X           Y           Z
 ---------------------------------------------------------------------
      1          6           0        0.000000    0.660455    0.000000
      2          1           0       -0.916892    1.224536    0.000000
      3          1           0        0.916681    1.224873    0.000000
      4          6           0        0.000000   -0.660455    0.000000
      5          1           0        0.916892   -1.224536    0.000000
      6          1           0       -0.916681   -1.224873    0.000000
 ---------------------------------------------------------------------
 Rotational constants (GHZ):    149.1541443     30.6005244     25.3912461
 Standard basis: 6-31+G(d,p) (6D, 7F)
 There are    22 symmetry adapted basis functions of AG  symmetry.
 There are     7 symmetry adapted basis functions of BG  symmetry.
 There are     7 symmetry adapted basis functions of AU  symmetry.
 There are    22 symmetry adapted basis functions of BU  symmetry.
 Integral buffers will be    262144 words long.
 Raffenetti 1 integral format.
 Two-electron integral symmetry is turned on.
    58 basis functions,    92 primitive gaussians,    58 cartesian basis functions
     8 alpha electrons        8 beta electrons
       nuclear repulsion energy        33.6334862739 Hartrees.
 NAtoms=    6 NActive=    6 NUniq=    3 SFac= 3.00D+00 NAtFMM=   80 NAOKFM=F Big=F
 One-electron integrals computed using PRISM.
 NBasis=    58 RedAO= T  NBF=    22     7     7    22
 NBsUse=    58 1.00D-06 NBFU=    22     7     7    22
 Initial guess read from the read-write file.
 B after Tr=     0.000000    0.000000    0.000000
         Rot=    1.000000    0.000000    0.000000    0.000000 Ang=   0.00 deg.
 Initial guess orbital symmetries:
       Occupied  (AG) (BU) (AG) (BU) (BU) (AG) (AG) (AU)
       Virtual   (BU) (AG) (BG) (BU) (AU) (AG) (AG) (BU) (BG) (AG)
                 (BU) (BU) (AG) (BU) (AG) (BU) (AU) (BG) (AG) (BU)
                 (BU) (AG) (AG) (BU) (BU) (AG) (BG) (AU) (AU) (AG)
                 (BU) (AG) (AG) (BU) (BG) (BU) (AU) (BG) (BU) (BG)
                 (AU) (AG) (AG) (BU) (AG) (BU) (BU) (AG) (AG) (BU)
 Harris functional with IExCor=  205 diagonalized for initial guess.
 ExpMin= 4.38D-02 ExpMax= 3.05D+03 ExpMxC= 4.57D+02 IAcc=2 IRadAn=         0 AccDes= 0.00D+00
 HarFok:  IExCor=  205 AccDes= 0.00D+00 IRadAn=         0 IDoV= 1
 ScaDFX=  1.000000  1.000000  1.000000  1.000000
 FoFCou: FMM=F IPFlag=           0 FMFlag=      100000 FMFlg1=           0
         NFxFlg=           0 DoJE=T BraDBF=F KetDBF=T FulRan=T
         Omega=  0.000000  0.000000  1.000000  0.000000  0.000000 ICntrl=     500 IOpCl=  0
         NMat0=    1 NMatS0=    1 NMatT0=    0 NMatD0=    1 NMtDS0=    0 NMtDT0=    0
         I1Cent=           4 NGrid=           0.
 Petite list used in FoFCou.
 Requested convergence on RMS density matrix=1.00D-08 within 128 cycles.
 Requested convergence on MAX density matrix=1.00D-06.
 Requested convergence on             energy=1.00D-06.
 No special actions if energy rises.
 Keep R1 ints in memory in canonical form, NReq=2313633.
 SCF Done:  E(RHF) =  -78.0430656411     A.U. after    7 cycles
             Convg  =    0.7654D-08             -V/T =  2.0011
 Calling FoFJK, ICntrl=      2127 FMM=F ISym2X=1 I1Cent= 0 IOpClX= 0 NMat=1 NMatS=1 NMatT=0.
 ***** Axes restored to original set *****
 -------------------------------------------------------------------
 Center     Atomic                   Forces (Hartrees/Bohr)
 Number     Number              X              Y              Z
 -------------------------------------------------------------------
      1        6           0.000117000    0.000083646    0.000000000
      2        1          -0.000223851    0.000068998    0.000000000
      3        1           0.000178501   -0.000128414    0.000000000
      4        6          -0.000117000   -0.000083646    0.000000000
      5        1           0.000223851   -0.000068998    0.000000000
      6        1          -0.000178501    0.000128414    0.000000000
 -------------------------------------------------------------------
 Cartesian Forces:  Max     0.000223851 RMS     0.000117335

 GradGradGradGradGradGradGradGradGradGradGradGradGradGradGradGradGradGrad
 Berny optimization.
 Using GEDIIS/GDIIS optimizer.
 Internal  Forces:  Max     0.000201742 RMS     0.000128116
 Search for a local minimum.
 Step number   3 out of a maximum of   25
 All quantities printed in internal units (Hartrees-Bohrs-Radians)
 Mixed Optimization -- En-DIIS/RFO-DIIS
 Update second derivatives using D2CorX and points    1    2    3
 DE= -1.19D-04 DEPred=-1.13D-04 R= 1.05D+00
 SS=  1.41D+00  RLast= 3.59D-02 DXNew= 5.0454D-01 1.0783D-01
 Trust test= 1.05D+00 RLast= 3.59D-02 DXMaxT set to 3.00D-01
 The second derivative matrix:
                          R1        R2        R3        R4        R5
           R1           0.37252
           R2           0.00024   0.37258
           R3           0.00415   0.00181   0.68476
           R4           0.00021   0.00024   0.00415   0.37252
           R5           0.00024   0.00028   0.00181   0.00024   0.37258
           A1           0.00162   0.00149  -0.02875   0.00162   0.00149
           A2          -0.00088  -0.00082   0.01513  -0.00088  -0.00082
           A3          -0.00074  -0.00066   0.01362  -0.00074  -0.00066
           A4          -0.00088  -0.00082   0.01513  -0.00088  -0.00082
           A5          -0.00074  -0.00066   0.01362  -0.00074  -0.00066
           A6           0.00162   0.00149  -0.02875   0.00162   0.00149
           D1           0.00000   0.00000   0.00000   0.00000   0.00000
           D2           0.00000   0.00000   0.00000   0.00000   0.00000
           D3           0.00000   0.00000   0.00000   0.00000   0.00000
           D4           0.00000   0.00000   0.00000   0.00000   0.00000
                          A1        A2        A3        A4        A5
           A1           0.14911
           A2           0.00543   0.15730
           A3           0.00546  -0.00274   0.15728
           A4           0.00543  -0.00270  -0.00274   0.15730
           A5           0.00546  -0.00274  -0.00272  -0.00274   0.15728
           A6          -0.01089   0.00543   0.00546   0.00543   0.00546
           D1           0.00000   0.00000   0.00000   0.00000   0.00000
           D2           0.00000   0.00000   0.00000   0.00000   0.00000
           D3           0.00000   0.00000   0.00000   0.00000   0.00000
           D4           0.00000   0.00000   0.00000   0.00000   0.00000
                          A6        D1        D2        D3        D4
           A6           0.14911
           D1           0.00000   0.02681
           D2           0.00000   0.00000   0.02681
           D3           0.00000   0.00000   0.00000   0.02681
           D4           0.00000   0.00000   0.00000   0.00000   0.02681
 Use linear search instead of GDIIS.
     Eigenvalues ---    0.02681   0.02681   0.02681   0.12277   0.16000
     Eigenvalues ---    0.16000   0.16005   0.37229   0.37230   0.37230
     Eigenvalues ---    0.37333   0.689291000.000001000.000001000.00000
 RFO step:  Lambda=-7.95882693D-07 EMin= 2.68137392D-02
 Quartic linear search produced a step of  0.04943.
 Iteration  1 RMS(Cart)=  0.00084350 RMS(Int)=  0.00000039
 Iteration  2 RMS(Cart)=  0.00000040 RMS(Int)=  0.00000000
 ClnCor:  largest displacement from symmetrization is 7.81D-14 for atom     6.
 Variable       Old X    -DE/DX   Delta X   Delta X   Delta X     New X
                                 (Linear)    (Quad)   (Total)
    R1        2.03431  -0.00017   0.00009  -0.00052  -0.00042   2.03389
    R2        2.03431  -0.00017   0.00008  -0.00052  -0.00045   2.03386
    R3        2.49616  -0.00006   0.00034  -0.00062  -0.00028   2.49588
    R4        2.03431  -0.00017   0.00009  -0.00052  -0.00042   2.03389
    R5        2.03431  -0.00017   0.00008  -0.00052  -0.00045   2.03386
    A1        2.03817  -0.00020  -0.00100  -0.00063  -0.00163   2.03654
    A2        2.12232   0.00013   0.00050   0.00051   0.00101   2.12333
    A3        2.12269   0.00007   0.00050   0.00012   0.00062   2.12331
    A4        2.12232   0.00013   0.00050   0.00051   0.00101   2.12333
    A5        2.12269   0.00007   0.00050   0.00012   0.00062   2.12331
    A6        2.03817  -0.00020  -0.00100  -0.00063  -0.00163   2.03654
    D1        3.14159   0.00000   0.00000   0.00000   0.00000   3.14159
    D2        0.00000   0.00000   0.00000   0.00000   0.00000   0.00000
    D3        0.00000   0.00000   0.00000   0.00000   0.00000   0.00000
    D4        3.14159   0.00000   0.00000   0.00000   0.00000   3.14159
         Item               Value     Threshold  Converged?
 Maximum Force            0.000202     0.000450     YES
 RMS     Force            0.000128     0.000300     YES
 Maximum Displacement     0.001607     0.001800     YES
 RMS     Displacement     0.000843     0.001200     YES
 Predicted change in Energy=-6.613492D-07
 Optimization completed.
    -- Stationary point found.
                           ----------------------------
                           !   Optimized Parameters   !
                           ! (Angstroms and Degrees)  !
 --------------------------                            --------------------------
 ! Name  Definition              Value          Derivative Info.                !
 --------------------------------------------------------------------------------
 ! R1    R(1,2)                  1.0765         -DE/DX =   -0.0002              !
 ! R2    R(1,3)                  1.0765         -DE/DX =   -0.0002              !
 ! R3    R(1,4)                  1.3209         -DE/DX =   -0.0001              !
 ! R4    R(4,5)                  1.0765         -DE/DX =   -0.0002              !
 ! R5    R(4,6)                  1.0765         -DE/DX =   -0.0002              !
 ! A1    A(2,1,3)              116.7784         -DE/DX =   -0.0002              !
 ! A2    A(2,1,4)              121.6002         -DE/DX =    0.0001              !
 ! A3    A(3,1,4)              121.6214         -DE/DX =    0.0001              !
 ! A4    A(1,4,5)              121.6002         -DE/DX =    0.0001              !
 ! A5    A(1,4,6)              121.6214         -DE/DX =    0.0001              !
 ! A6    A(5,4,6)              116.7784         -DE/DX =   -0.0002              !
 ! D1    D(2,1,4,5)            180.0            -DE/DX =    0.0                 !
 ! D2    D(2,1,4,6)              0.0            -DE/DX =    0.0                 !
 ! D3    D(3,1,4,5)              0.0            -DE/DX =    0.0                 !
 ! D4    D(3,1,4,6)            180.0            -DE/DX =    0.0                 !
 --------------------------------------------------------------------------------
 GradGradGradGradGradGradGradGradGradGradGradGradGradGradGradGradGradGrad

                          Input orientation:                          
 ---------------------------------------------------------------------
 Center     Atomic      Atomic             Coordinates (Angstroms)
 Number     Number       Type             X           Y           Z
 ---------------------------------------------------------------------
      1          6           0       -3.478763   -2.935591    0.000000
      2          1           0       -2.966641   -3.882486    0.000000
      3          1           0       -4.554838   -2.966175    0.000000
      4          6           0       -2.818440   -1.791573    0.000000
      5          1           0       -3.330561   -0.844677    0.000000
      6          1           0       -1.742365   -1.760988    0.000000
 ---------------------------------------------------------------------
                    Distance matrix (angstroms):
                    1          2          3          4          5
     1  C    0.000000
     2  H    1.076512   0.000000
     3  H    1.076510   1.833574   0.000000
     4  C    1.320910   2.096159   2.096370   0.000000
     5  H    2.096159   3.059529   2.449409   1.076512   0.000000
     6  H    2.096370   2.449409   3.059817   1.076510   1.833574
                    6
     6  H    0.000000
 Stoichiometry    C2H4
 Framework group  C2H[SGH(C2H4)]
 Deg. of freedom     5
 Full point group                 C2H     NOp   4
 Largest Abelian subgroup         C2H     NOp   4
 Largest concise Abelian subgroup C2      NOp   2
                         Standard orientation:                         
 ---------------------------------------------------------------------
 Center     Atomic      Atomic             Coordinates (Angstroms)
 Number     Number       Type             X           Y           Z
 ---------------------------------------------------------------------
      1          6           0        0.000000    0.660455    0.000000
      2          1           0       -0.916892    1.224536    0.000000
      3          1           0        0.916681    1.224873    0.000000
      4          6           0        0.000000   -0.660455    0.000000
      5          1           0        0.916892   -1.224536    0.000000
      6          1           0       -0.916681   -1.224873    0.000000
 ---------------------------------------------------------------------
 Rotational constants (GHZ):    149.1541443     30.6005244     25.3912461

 **********************************************************************

            Population analysis using the SCF density.

 **********************************************************************

 Orbital symmetries:
       Occupied  (AG) (BU) (AG) (BU) (BU) (AG) (AG) (AU)
       Virtual   (BU) (AG) (BG) (BU) (AU) (AG) (AG) (BU) (BG) (AG)
                 (BU) (BU) (AG) (BU) (AG) (BU) (AU) (BG) (AG) (BU)
                 (BU) (AG) (AG) (BU) (BU) (AG) (BG) (AU) (AU) (AG)
                 (BU) (AG) (AG) (BU) (BG) (BU) (AU) (BG) (BU) (BG)
                 (AU) (AG) (AG) (BU) (AG) (BU) (BU) (AG) (AG) (BU)
 The electronic state is 1-AG.
 Alpha  occ. eigenvalues --  -11.23378 -11.23201  -1.04018  -0.79535  -0.64697
 Alpha  occ. eigenvalues --   -0.59153  -0.50758  -0.37835
 Alpha virt. eigenvalues --    0.09180   0.09610   0.10711   0.11722   0.13662
 Alpha virt. eigenvalues --    0.14383   0.15931   0.22802   0.24221   0.32392
 Alpha virt. eigenvalues --    0.34406   0.39876   0.50202   0.52023   0.75516
 Alpha virt. eigenvalues --    0.85454   0.90220   0.97339   1.00748   1.03538
 Alpha virt. eigenvalues --    1.13409   1.18442   1.21970   1.25781   1.40074
 Alpha virt. eigenvalues --    1.46115   1.64178   1.66009   1.80354   2.15175
 Alpha virt. eigenvalues --    2.24233   2.29820   2.34262   2.38795   2.45412
 Alpha virt. eigenvalues --    2.54215   2.68660   2.76655   2.87169   2.95640
 Alpha virt. eigenvalues --    3.02255   3.08644   3.10815   3.40032   3.56504
 Alpha virt. eigenvalues --    3.74146   3.88613   4.18319   4.65593   4.93969
          Condensed to atoms (all electrons):
              1          2          3          4          5          6
     1  C    4.822036   0.383689   0.383694   0.712368  -0.010475  -0.010456
     2  H    0.383689   0.512620  -0.025160  -0.010475   0.002499  -0.003580
     3  H    0.383694  -0.025160   0.512559  -0.010456  -0.003580   0.002496
     4  C    0.712368  -0.010475  -0.010456   4.822036   0.383689   0.383694
     5  H   -0.010475   0.002499  -0.003580   0.383689   0.512620  -0.025160
     6  H   -0.010456  -0.003580   0.002496   0.383694  -0.025160   0.512559
 Mulliken atomic charges:
              1
     1  C   -0.280855
     2  H    0.140408
     3  H    0.140448
     4  C   -0.280855
     5  H    0.140408
     6  H    0.140448
 Sum of Mulliken atomic charges =   0.00000
 Mulliken charges with hydrogens summed into heavy atoms:
              1
     1  C    0.000000
     4  C    0.000000
 Sum of Mulliken charges with hydrogens summed into heavy atoms =   0.00000
 Electronic spatial extent (au):  <R**2>=             82.4621
 Charge=              0.0000 electrons
 Dipole moment (field-independent basis, Debye):
    X=              0.0000    Y=              0.0000    Z=              0.0000  Tot=              0.0000
 Quadrupole moment (field-independent basis, Debye-Ang):
   XX=            -12.4033   YY=            -12.2375   ZZ=            -16.1658
   XY=              0.0008   XZ=              0.0000   YZ=              0.0000
 Traceless Quadrupole moment (field-independent basis, Debye-Ang):
   XX=              1.1989   YY=              1.3647   ZZ=             -2.5636
   XY=              0.0008   XZ=              0.0000   YZ=              0.0000
 Octapole moment (field-independent basis, Debye-Ang**2):
  XXX=              0.0000  YYY=              0.0000  ZZZ=              0.0000  XYY=              0.0000
  XXY=              0.0000  XXZ=              0.0000  XZZ=              0.0000  YZZ=              0.0000
  YYZ=              0.0000  XYZ=              0.0000
 Hexadecapole moment (field-independent basis, Debye-Ang**3):
 XXXX=            -26.9043 YYYY=            -67.5838 ZZZZ=            -21.9518 XXXY=              0.0002
 XXXZ=              0.0000 YYYX=              0.0039 YYYZ=              0.0000 ZZZX=              0.0000
 ZZZY=              0.0000 XXYY=            -13.1994 XXZZ=             -8.8280 YYZZ=            -16.0367
 XXYZ=              0.0000 YYXZ=              0.0000 ZZXY=              0.0001
 N-N= 3.363348627395D+01 E-N=-2.484585687100D+02  KE= 7.795698989779D+01
 Symmetry AG   KE= 3.967474193319D+01
 Symmetry BG   KE= 2.609151490722D-32
 Symmetry AU   KE= 1.897111149245D+00
 Symmetry BU   KE= 3.638513681535D+01
 1|1|UNPC-DESKTOP-319GPER|FOpt|RHF|6-31+G(d,p)|C2H4|SAGAD|29-Oct-2020|0
 ||# opt freq=noraman 6-31+g(d,p) hf||Ethene HF||0,1|C,-3.4787626847,-2
 .9355906543,0.|H,-2.9666414399,-3.8824858305,0.|H,-4.5548377576,-2.966
 1753305,0.|C,-2.8184402253,-1.7915726357,0.|H,-3.3305614701,-0.8446774
 595,0.|H,-1.7423651524,-1.7609879595,0.||Version=IA32W-G09RevA.02|Stat
 e=1-AG|HF=-78.0430656|RMSD=7.654e-009|RMSF=1.173e-004|Dipole=0.,0.,0.|
 Quadrupole=0.9227095,0.9832796,-1.9059891,0.0536579,0.,0.|PG=C02H [SGH
 (C2H4)]||@


 THOSE WHO ASPIRE NOT TO GUESS AND DIVINE,
 BUT TO DISCOVER AND KNOW, WHO PROPOSE NOT TO DEVISE 
 MIMIC AND FABULOUS WORLDS OF THEIR OWN, BUT TO 
 EXAMINE AND DISSECT THE NATURE OF THIS VERY WORLD 
 ITSELF, MUST GO TO THE FACTS THEMSELVES FOR EVERYTHING.

                               -- FRANCIS BACON, 1620
 Job cpu time:  0 days  0 hours  0 minutes  5.0 seconds.
 File lengths (MBytes):  RWF=      5 Int=      0 D2E=      0 Chk=      1 Scr=      1
 Normal termination of Gaussian 09 at Thu Oct 29 02:47:15 2020.
 Link1:  Proceeding to internal job step number  2.
 --------------------------------------------------------------------
 #N Geom=AllCheck Guess=TCheck SCRF=Check GenChk RHF/6-31+G(d,p) Freq
 --------------------------------------------------------------------
 1/10=4,29=7,30=1,38=1,40=1/1,3;
 2/12=2,40=1/2;
 3/5=1,6=6,7=111,11=1,14=-4,16=1,25=1,30=1,70=2,71=2,116=1/1,2,3;
 4/5=101/1;
 5/5=2,98=1/2;
 8/6=4,10=90,11=11/1;
 11/6=1,8=1,9=11,15=111,16=1/1,2,10;
 10/6=1/2;
 6/7=2,8=2,9=2,10=2,18=1,28=1/1;
 7/8=1,10=1,25=1/1,2,3,16;
 1/10=4,30=1/3;
 99//99;
 ---------
 Ethene HF
 ---------
 Redundant internal coordinates taken from checkpoint file:
 C:\Users\sagad\Documents\rayGit\FQ\quimicaComputacional\class3Eteno\reactivos\etheneHf.chk
 Charge =  0 Multiplicity = 1
 C,0,-3.4787626847,-2.9355906543,0.
 H,0,-2.9666414399,-3.8824858305,0.
 H,0,-4.5548377576,-2.9661753305,0.
 C,0,-2.8184402253,-1.7915726357,0.
 H,0,-3.3305614701,-0.8446774595,0.
 H,0,-1.7423651524,-1.7609879595,0.
 Recover connectivity data from disk.

 GradGradGradGradGradGradGradGradGradGradGradGradGradGradGradGradGradGrad
 Berny optimization.
 Initialization pass.
                           ----------------------------
                           !    Initial Parameters    !
                           ! (Angstroms and Degrees)  !
 --------------------------                            --------------------------
 ! Name  Definition              Value          Derivative Info.                !
 --------------------------------------------------------------------------------
 ! R1    R(1,2)                  1.0765         calculate D2E/DX2 analytically  !
 ! R2    R(1,3)                  1.0765         calculate D2E/DX2 analytically  !
 ! R3    R(1,4)                  1.3209         calculate D2E/DX2 analytically  !
 ! R4    R(4,5)                  1.0765         calculate D2E/DX2 analytically  !
 ! R5    R(4,6)                  1.0765         calculate D2E/DX2 analytically  !
 ! A1    A(2,1,3)              116.7784         calculate D2E/DX2 analytically  !
 ! A2    A(2,1,4)              121.6002         calculate D2E/DX2 analytically  !
 ! A3    A(3,1,4)              121.6214         calculate D2E/DX2 analytically  !
 ! A4    A(1,4,5)              121.6002         calculate D2E/DX2 analytically  !
 ! A5    A(1,4,6)              121.6214         calculate D2E/DX2 analytically  !
 ! A6    A(5,4,6)              116.7784         calculate D2E/DX2 analytically  !
 ! D1    D(2,1,4,5)            180.0            calculate D2E/DX2 analytically  !
 ! D2    D(2,1,4,6)              0.0            calculate D2E/DX2 analytically  !
 ! D3    D(3,1,4,5)              0.0            calculate D2E/DX2 analytically  !
 ! D4    D(3,1,4,6)            180.0            calculate D2E/DX2 analytically  !
 --------------------------------------------------------------------------------
 Trust Radius=3.00D-01 FncErr=1.00D-07 GrdErr=1.00D-07
 Number of steps in this run=   2 maximum allowed number of steps=   2.
 GradGradGradGradGradGradGradGradGradGradGradGradGradGradGradGradGradGrad

                          Input orientation:                          
 ---------------------------------------------------------------------
 Center     Atomic      Atomic             Coordinates (Angstroms)
 Number     Number       Type             X           Y           Z
 ---------------------------------------------------------------------
      1          6           0       -3.478763   -2.935591    0.000000
      2          1           0       -2.966641   -3.882486    0.000000
      3          1           0       -4.554838   -2.966175    0.000000
      4          6           0       -2.818440   -1.791573    0.000000
      5          1           0       -3.330561   -0.844677    0.000000
      6          1           0       -1.742365   -1.760988    0.000000
 ---------------------------------------------------------------------
                    Distance matrix (angstroms):
                    1          2          3          4          5
     1  C    0.000000
     2  H    1.076512   0.000000
     3  H    1.076510   1.833574   0.000000
     4  C    1.320910   2.096159   2.096370   0.000000
     5  H    2.096159   3.059529   2.449409   1.076512   0.000000
     6  H    2.096370   2.449409   3.059817   1.076510   1.833574
                    6
     6  H    0.000000
 Stoichiometry    C2H4
 Framework group  C2H[SGH(C2H4)]
 Deg. of freedom     5
 Full point group                 C2H     NOp   4
 Largest Abelian subgroup         C2H     NOp   4
 Largest concise Abelian subgroup C2      NOp   2
                         Standard orientation:                         
 ---------------------------------------------------------------------
 Center     Atomic      Atomic             Coordinates (Angstroms)
 Number     Number       Type             X           Y           Z
 ---------------------------------------------------------------------
      1          6           0        0.000000    0.660455    0.000000
      2          1           0       -0.916892    1.224536    0.000000
      3          1           0        0.916681    1.224873    0.000000
      4          6           0        0.000000   -0.660455    0.000000
      5          1           0        0.916892   -1.224536    0.000000
      6          1           0       -0.916681   -1.224873    0.000000
 ---------------------------------------------------------------------
 Rotational constants (GHZ):    149.1541443     30.6005244     25.3912461
 Standard basis: 6-31+G(d,p) (6D, 7F)
 There are    22 symmetry adapted basis functions of AG  symmetry.
 There are     7 symmetry adapted basis functions of BG  symmetry.
 There are     7 symmetry adapted basis functions of AU  symmetry.
 There are    22 symmetry adapted basis functions of BU  symmetry.
 Integral buffers will be    262144 words long.
 Raffenetti 1 integral format.
 Two-electron integral symmetry is turned on.
    58 basis functions,    92 primitive gaussians,    58 cartesian basis functions
     8 alpha electrons        8 beta electrons
       nuclear repulsion energy        33.6334862739 Hartrees.
 NAtoms=    6 NActive=    6 NUniq=    3 SFac= 3.00D+00 NAtFMM=   80 NAOKFM=F Big=F
 One-electron integrals computed using PRISM.
 NBasis=    58 RedAO= T  NBF=    22     7     7    22
 NBsUse=    58 1.00D-06 NBFU=    22     7     7    22
 Initial guess read from the checkpoint file:  C:\Users\sagad\Documents\rayGit\FQ
 \quimicaComputacional\class3Eteno\reactivos\etheneHf.chk
 B after Tr=     0.000000    0.000000    0.000000
         Rot=    1.000000    0.000000    0.000000    0.000000 Ang=   0.00 deg.
 Initial guess orbital symmetries:
       Occupied  (AG) (BU) (AG) (BU) (BU) (AG) (AG) (AU)
       Virtual   (BU) (AG) (BG) (BU) (AU) (AG) (AG) (BU) (BG) (AG)
                 (BU) (BU) (AG) (BU) (AG) (BU) (AU) (BG) (AG) (BU)
                 (BU) (AG) (AG) (BU) (BU) (AG) (BG) (AU) (AU) (AG)
                 (BU) (AG) (AG) (BU) (BG) (BU) (AU) (BG) (BU) (BG)
                 (AU) (AG) (AG) (BU) (AG) (BU) (BU) (AG) (AG) (BU)
 Requested convergence on RMS density matrix=1.00D-08 within 128 cycles.
 Requested convergence on MAX density matrix=1.00D-06.
 Requested convergence on             energy=1.00D-06.
 No special actions if energy rises.
 Keep R1 ints in memory in canonical form, NReq=2313633.
 SCF Done:  E(RHF) =  -78.0430656411     A.U. after    1 cycles
             Convg  =    0.9712D-09             -V/T =  2.0011
 Range of M.O.s used for correlation:     1    58
 NBasis=    58 NAE=     8 NBE=     8 NFC=     0 NFV=     0
 NROrb=     58 NOA=     8 NOB=     8 NVA=    50 NVB=    50

 **** Warning!!: The largest alpha MO coefficient is  0.39330566D+02

 Symmetrizing basis deriv contribution to polar:
 IMax=3 JMax=2 DiffMx= 0.00D+00
 G2DrvN: will do     7 centers at a time, making    1 passes doing MaxLOS=2.
 Calling FoFCou, ICntrl=  3107 FMM=F I1Cent=   0 AccDes= 0.00D+00.
 FoFDir/FoFCou used for L=0 through L=2.
 End of G2Drv Frequency-dependent properties file   721 does not exist.
 End of G2Drv Frequency-dependent properties file   722 does not exist.
          IDoAtm=111111
          Differentiating once with respect to electric field.
                with respect to dipole field.
          Differentiating once with respect to nuclear coordinates.
          Keep R1 ints in memory in canonical form, NReq=2285200.
          There are    12 degrees of freedom in the 1st order CPHF.  IDoFFX=4.
     12 vectors produced by pass  0 Test12= 3.33D-15 8.33D-09 XBig12= 1.08D+01 2.37D+00.
 AX will form    12 AO Fock derivatives at one time.
     12 vectors produced by pass  1 Test12= 3.33D-15 8.33D-09 XBig12= 5.72D-01 2.23D-01.
     12 vectors produced by pass  2 Test12= 3.33D-15 8.33D-09 XBig12= 3.08D-02 6.27D-02.
     12 vectors produced by pass  3 Test12= 3.33D-15 8.33D-09 XBig12= 5.72D-04 7.20D-03.
     12 vectors produced by pass  4 Test12= 3.33D-15 8.33D-09 XBig12= 3.42D-06 5.89D-04.
     12 vectors produced by pass  5 Test12= 3.33D-15 8.33D-09 XBig12= 2.39D-08 4.14D-05.
      9 vectors produced by pass  6 Test12= 3.33D-15 8.33D-09 XBig12= 9.75D-11 3.04D-06.
      2 vectors produced by pass  7 Test12= 3.33D-15 8.33D-09 XBig12= 6.96D-13 2.70D-07.
      2 vectors produced by pass  8 Test12= 3.33D-15 8.33D-09 XBig12= 3.34D-15 1.53D-08.
 Inverted reduced A of dimension    85 with in-core refinement.
 Isotropic polarizability for W=    0.000000       24.26 Bohr**3.
 End of Minotr Frequency-dependent properties file   721 does not exist.
 End of Minotr Frequency-dependent properties file   722 does not exist.

 **********************************************************************

            Population analysis using the SCF density.

 **********************************************************************

 Orbital symmetries:
       Occupied  (AG) (BU) (AG) (BU) (BU) (AG) (AG) (AU)
       Virtual   (BU) (AG) (BG) (BU) (AU) (AG) (AG) (BU) (BG) (AG)
                 (BU) (BU) (AG) (BU) (AG) (BU) (AU) (BG) (AG) (BU)
                 (BU) (AG) (AG) (BU) (BU) (AG) (BG) (AU) (AU) (AG)
                 (BU) (AG) (AG) (BU) (BG) (BU) (AU) (BG) (BU) (BG)
                 (AU) (AG) (AG) (BU) (AG) (BU) (BU) (AG) (AG) (BU)
 The electronic state is 1-AG.
 Alpha  occ. eigenvalues --  -11.23378 -11.23201  -1.04018  -0.79535  -0.64697
 Alpha  occ. eigenvalues --   -0.59153  -0.50758  -0.37835
 Alpha virt. eigenvalues --    0.09180   0.09610   0.10711   0.11722   0.13662
 Alpha virt. eigenvalues --    0.14383   0.15931   0.22802   0.24221   0.32392
 Alpha virt. eigenvalues --    0.34406   0.39876   0.50202   0.52023   0.75516
 Alpha virt. eigenvalues --    0.85454   0.90220   0.97339   1.00748   1.03538
 Alpha virt. eigenvalues --    1.13409   1.18442   1.21970   1.25781   1.40074
 Alpha virt. eigenvalues --    1.46115   1.64178   1.66009   1.80354   2.15175
 Alpha virt. eigenvalues --    2.24233   2.29820   2.34262   2.38795   2.45412
 Alpha virt. eigenvalues --    2.54215   2.68660   2.76655   2.87169   2.95640
 Alpha virt. eigenvalues --    3.02255   3.08644   3.10815   3.40032   3.56504
 Alpha virt. eigenvalues --    3.74146   3.88613   4.18319   4.65593   4.93969
          Condensed to atoms (all electrons):
              1          2          3          4          5          6
     1  C    4.822036   0.383689   0.383694   0.712368  -0.010475  -0.010456
     2  H    0.383689   0.512620  -0.025160  -0.010475   0.002499  -0.003580
     3  H    0.383694  -0.025160   0.512559  -0.010456  -0.003580   0.002496
     4  C    0.712368  -0.010475  -0.010456   4.822036   0.383689   0.383694
     5  H   -0.010475   0.002499  -0.003580   0.383689   0.512620  -0.025160
     6  H   -0.010456  -0.003580   0.002496   0.383694  -0.025160   0.512559
 Mulliken atomic charges:
              1
     1  C   -0.280855
     2  H    0.140408
     3  H    0.140448
     4  C   -0.280855
     5  H    0.140408
     6  H    0.140448
 Sum of Mulliken atomic charges =   0.00000
 Mulliken charges with hydrogens summed into heavy atoms:
              1
     1  C    0.000000
     4  C    0.000000
 Sum of Mulliken charges with hydrogens summed into heavy atoms =   0.00000
 APT atomic charges:
              1
     1  C   -0.074133
     2  H    0.037035
     3  H    0.037099
     4  C   -0.074133
     5  H    0.037035
     6  H    0.037098
 Sum of APT charges=   0.00000
 APT Atomic charges with hydrogens summed into heavy atoms:
              1
     1  C    0.000000
     2  H    0.000000
     3  H    0.000000
     4  C    0.000000
     5  H    0.000000
     6  H    0.000000
 Sum of APT charges=   0.00000
 Electronic spatial extent (au):  <R**2>=             82.4621
 Charge=              0.0000 electrons
 Dipole moment (field-independent basis, Debye):
    X=              0.0000    Y=              0.0000    Z=              0.0000  Tot=              0.0000
 Quadrupole moment (field-independent basis, Debye-Ang):
   XX=            -12.4033   YY=            -12.2375   ZZ=            -16.1658
   XY=              0.0008   XZ=              0.0000   YZ=              0.0000
 Traceless Quadrupole moment (field-independent basis, Debye-Ang):
   XX=              1.1989   YY=              1.3647   ZZ=             -2.5636
   XY=              0.0008   XZ=              0.0000   YZ=              0.0000
 Octapole moment (field-independent basis, Debye-Ang**2):
  XXX=              0.0000  YYY=              0.0000  ZZZ=              0.0000  XYY=              0.0000
  XXY=              0.0000  XXZ=              0.0000  XZZ=              0.0000  YZZ=              0.0000
  YYZ=              0.0000  XYZ=              0.0000
 Hexadecapole moment (field-independent basis, Debye-Ang**3):
 XXXX=            -26.9043 YYYY=            -67.5838 ZZZZ=            -21.9518 XXXY=              0.0002
 XXXZ=              0.0000 YYYX=              0.0039 YYYZ=              0.0000 ZZZX=              0.0000
 ZZZY=              0.0000 XXYY=            -13.1994 XXZZ=             -8.8280 YYZZ=            -16.0367
 XXYZ=              0.0000 YYXZ=              0.0000 ZZXY=              0.0001
 N-N= 3.363348627395D+01 E-N=-2.484585686889D+02  KE= 7.795698988791D+01
 Symmetry AG   KE= 3.967474193315D+01
 Symmetry BG   KE= 1.360169500173D-32
 Symmetry AU   KE= 1.897111157499D+00
 Symmetry BU   KE= 3.638513679725D+01
  Exact polarizability:  19.968   0.000  35.276   0.000   0.000  17.521
 Approx polarizability:  16.210   0.000  28.457   0.000   0.000  14.834
 Calling FoFJK, ICntrl=    100127 FMM=F ISym2X=1 I1Cent= 0 IOpClX= 0 NMat=1 NMatS=1 NMatT=0.
 Full mass-weighted force constant matrix:
 Low frequencies ---   -3.2452   -0.0011   -0.0008   -0.0001   23.8625   58.1946
 Low frequencies ---  896.8781 1089.8179 1104.9865
 Diagonal vibrational polarizability:
        0.0859269       0.1520805       3.2009716
 Harmonic frequencies (cm**-1), IR intensities (KM/Mole), Raman scattering
 activities (A**4/AMU), depolarization ratios for plane and unpolarized
 incident light, reduced masses (AMU), force constants (mDyne/A),
 and normal coordinates:
                     1                      2                      3
                    BU                     AU                     BG
 Frequencies --   896.8781              1089.8179              1104.9864
 Red. masses --     1.0422                 1.1607                 1.5164
 Frc consts  --     0.4939                 0.8123                 1.0909
 IR Inten    --     0.3485               141.2721                 0.0000
  Atom  AN      X      Y      Z        X      Y      Z        X      Y      Z
     1   6     0.04   0.00   0.00     0.00   0.00  -0.08     0.00   0.00   0.15
     2   1    -0.24  -0.44   0.00     0.00   0.00   0.50     0.00   0.00  -0.49
     3   1    -0.24   0.44   0.00     0.00   0.00   0.50     0.00   0.00  -0.49
     4   6     0.04   0.00   0.00     0.00   0.00  -0.08     0.00   0.00  -0.15
     5   1    -0.24  -0.44   0.00     0.00   0.00   0.50     0.00   0.00   0.49
     6   1    -0.24   0.44   0.00     0.00   0.00   0.50     0.00   0.00   0.49
                     4                      5                      6
                    AU                     AG                     AG
 Frequencies --  1137.4167              1347.2927              1479.8878
 Red. masses --     1.0078                 1.5197                 1.2664
 Frc consts  --     0.7682                 1.6253                 1.6340
 IR Inten    --     0.0000                 0.0000                 0.0000
  Atom  AN      X      Y      Z        X      Y      Z        X      Y      Z
     1   6     0.00   0.00   0.00     0.15   0.00   0.00     0.00   0.11   0.00
     2   1     0.00   0.00   0.50    -0.14  -0.47   0.00     0.19   0.46   0.00
     3   1     0.00   0.00  -0.50    -0.14   0.47   0.00    -0.19   0.46   0.00
     4   6     0.00   0.00   0.00    -0.15   0.00   0.00     0.00  -0.11   0.00
     5   1     0.00   0.00   0.50     0.14   0.47   0.00    -0.19  -0.46   0.00
     6   1     0.00   0.00  -0.50     0.14  -0.47   0.00     0.19  -0.46   0.00
                     7                      8                      9
                    BU                     AG                     BU
 Frequencies --  1594.3075              1829.4760              3297.1830
 Red. masses --     1.1120                 2.8633                 1.0477
 Frc consts  --     1.6654                 5.6463                 6.7106
 IR Inten    --     9.6017                 0.0000                20.3697
  Atom  AN      X      Y      Z        X      Y      Z        X      Y      Z
     1   6     0.00   0.07   0.00     0.00   0.29   0.00     0.00   0.04   0.00
     2   1    -0.28  -0.41   0.00    -0.38  -0.25   0.00     0.43  -0.25   0.00
     3   1     0.28  -0.41   0.00     0.38  -0.25   0.00    -0.43  -0.25   0.00
     4   6     0.00   0.07   0.00     0.00  -0.29   0.00     0.00   0.04   0.00
     5   1    -0.28  -0.41   0.00     0.38   0.25   0.00     0.43  -0.25   0.00
     6   1     0.28  -0.41   0.00    -0.38   0.25   0.00    -0.43  -0.25   0.00
                    10                     11                     12
                    AG                     AG                     BU
 Frequencies --  3318.4769              3375.3761              3402.5464
 Red. masses --     1.0766                 1.1166                 1.1183
 Frc consts  --     6.9850                 7.4951                 7.6278
 IR Inten    --     0.0000                 0.0000                31.9496
  Atom  AN      X      Y      Z        X      Y      Z        X      Y      Z
     1   6     0.00  -0.06   0.00    -0.07   0.00   0.00     0.07   0.00   0.00
     2   1    -0.43   0.26   0.00     0.42  -0.26   0.00    -0.42   0.26   0.00
     3   1     0.43   0.26   0.00     0.42   0.26   0.00    -0.42  -0.26   0.00
     4   6     0.00   0.06   0.00     0.07   0.00   0.00     0.07   0.00   0.00
     5   1     0.43  -0.26   0.00    -0.42   0.26   0.00    -0.42   0.26   0.00
     6   1    -0.43  -0.26   0.00    -0.42  -0.26   0.00    -0.42  -0.26   0.00

 -------------------
 - Thermochemistry -
 -------------------
 Temperature   298.150 Kelvin.  Pressure   1.00000 Atm.
 Atom     1 has atomic number  6 and mass  12.00000
 Atom     2 has atomic number  1 and mass   1.00783
 Atom     3 has atomic number  1 and mass   1.00783
 Atom     4 has atomic number  6 and mass  12.00000
 Atom     5 has atomic number  1 and mass   1.00783
 Atom     6 has atomic number  1 and mass   1.00783
 Molecular mass:    28.03130 amu.
 Principal axes and moments of inertia in atomic units:
                           1         2         3
     Eigenvalues --    12.09984  58.97746  71.07730
           X            0.00001   1.00000   0.00000
           Y            1.00000  -0.00001   0.00000
           Z            0.00000   0.00000   1.00000
 This molecule is an asymmetric top.
 Rotational symmetry number  2.
 Rotational temperatures (Kelvin)      7.15826     1.46859     1.21859
 Rotational constants (GHZ):         149.15414    30.60052    25.39125
 Zero-point vibrational energy     142796.1 (Joules/Mol)
                                   34.12909 (Kcal/Mol)
 Vibrational temperatures:   1290.41  1568.00  1589.83  1636.49  1938.45
          (Kelvin)           2129.23  2293.85  2632.20  4743.91  4774.54
                             4856.41  4895.50
 
 Zero-point correction=                           0.054388 (Hartree/Particle)
 Thermal correction to Energy=                    0.057366
 Thermal correction to Enthalpy=                  0.058311
 Thermal correction to Gibbs Free Energy=         0.032899
 Sum of electronic and zero-point Energies=            -77.988677
 Sum of electronic and thermal Energies=               -77.985699
 Sum of electronic and thermal Enthalpies=             -77.984755
 Sum of electronic and thermal Free Energies=          -78.010167
 
                     E (Thermal)             CV                S
                      KCal/Mol        Cal/Mol-Kelvin    Cal/Mol-Kelvin
 Total                   35.998              7.563             53.484
 Electronic               0.000              0.000              0.000
 Translational            0.889              2.981             35.927
 Rotational               0.889              2.981             17.190
 Vibrational             34.220              1.602              0.367
                       Q            Log10(Q)             Ln(Q)
 Total Bot       0.737498D-15        -15.132239        -34.843268
 Total V=0       0.766527D+10          9.884528         22.759966
 Vib (Bot)       0.991805D-25        -25.003574        -57.572856
 Vib (V=0)       0.103084D+01          0.013193          0.030377
 Electronic      0.100000D+01          0.000000          0.000000
 Translational   0.583338D+07          6.765920         15.579107
 Rotational      0.127472D+04          3.105415          7.150482
 ***** Axes restored to original set *****
 -------------------------------------------------------------------
 Center     Atomic                   Forces (Hartrees/Bohr)
 Number     Number              X              Y              Z
 -------------------------------------------------------------------
      1        6           0.000117001    0.000083650    0.000000000
      2        1          -0.000223850    0.000068996    0.000000000
      3        1           0.000178501   -0.000128415    0.000000000
      4        6          -0.000117001   -0.000083650    0.000000000
      5        1           0.000223850   -0.000068996    0.000000000
      6        1          -0.000178501    0.000128415    0.000000000
 -------------------------------------------------------------------
 Cartesian Forces:  Max     0.000223850 RMS     0.000117335

 GradGradGradGradGradGradGradGradGradGradGradGradGradGradGradGradGradGrad
 Berny optimization.
 Internal  Forces:  Max     0.000201742 RMS     0.000128116
 Search for a local minimum.
 Step number   1 out of a maximum of    2
 All quantities printed in internal units (Hartrees-Bohrs-Radians)
 Second derivative matrix not updated -- analytic derivatives used.
 The second derivative matrix:
                          R1        R2        R3        R4        R5
           R1           0.39538
           R2           0.00274   0.39539
           R3           0.00667   0.00666   0.72344
           R4          -0.00039   0.00101   0.00667   0.39538
           R5           0.00101  -0.00039   0.00666   0.00274   0.39539
           A1           0.00691   0.00691  -0.02281  -0.00129  -0.00128
           A2           0.00518  -0.01209   0.01141   0.00491  -0.00363
           A3          -0.01210   0.00518   0.01140  -0.00363   0.00491
           A4           0.00491  -0.00363   0.01141   0.00518  -0.01209
           A5          -0.00363   0.00491   0.01140  -0.01210   0.00518
           A6          -0.00129  -0.00128  -0.02281   0.00691   0.00691
           D1           0.00000   0.00000   0.00000   0.00000   0.00000
           D2           0.00000   0.00000   0.00000   0.00000   0.00000
           D3           0.00000   0.00000   0.00000   0.00000   0.00000
           D4           0.00000   0.00000   0.00000   0.00000   0.00000
                          A1        A2        A3        A4        A5
           A1           0.08324
           A2          -0.04163   0.09346
           A3          -0.04161  -0.05184   0.09344
           A4          -0.00168   0.01265  -0.01097   0.09346
           A5          -0.00168  -0.01097   0.01265  -0.05184   0.09344
           A6           0.00336  -0.00168  -0.00168  -0.04163  -0.04161
           D1           0.00000   0.00000   0.00000   0.00000   0.00000
           D2           0.00000   0.00000   0.00000   0.00000   0.00000
           D3           0.00000   0.00000   0.00000   0.00000   0.00000
           D4           0.00000   0.00000   0.00000   0.00000   0.00000
                          A6        D1        D2        D3        D4
           A6           0.08324
           D1           0.00000   0.03833
           D2           0.00000   0.00924   0.03136
           D3           0.00000   0.00924  -0.01289   0.03136
           D4           0.00000  -0.01986   0.00923   0.00923   0.03831
     Eigenvalues ---    0.03693   0.04425   0.05817   0.11909   0.12138
     Eigenvalues ---    0.12685   0.16596   0.39419   0.39432   0.39822
     Eigenvalues ---    0.39868   0.726551000.000001000.000001000.00000
 Angle between quadratic step and forces=  27.90 degrees.
 Linear search not attempted -- first point.
 Iteration  1 RMS(Cart)=  0.00081057 RMS(Int)=  0.00000035
 Iteration  2 RMS(Cart)=  0.00000036 RMS(Int)=  0.00000000
 ClnCor:  largest displacement from symmetrization is 1.43D-13 for atom     6.
 Variable       Old X    -DE/DX   Delta X   Delta X   Delta X     New X
                                 (Linear)    (Quad)   (Total)
    R1        2.03431  -0.00017   0.00000  -0.00039  -0.00039   2.03392
    R2        2.03431  -0.00017   0.00000  -0.00039  -0.00039   2.03392
    R3        2.49616  -0.00006   0.00000  -0.00021  -0.00021   2.49595
    R4        2.03431  -0.00017   0.00000  -0.00039  -0.00039   2.03392
    R5        2.03431  -0.00017   0.00000  -0.00039  -0.00039   2.03392
    A1        2.03817  -0.00020   0.00000  -0.00156  -0.00156   2.03661
    A2        2.12232   0.00013   0.00000   0.00096   0.00096   2.12329
    A3        2.12269   0.00007   0.00000   0.00059   0.00059   2.12329
    A4        2.12232   0.00013   0.00000   0.00096   0.00096   2.12329
    A5        2.12269   0.00007   0.00000   0.00059   0.00059   2.12329
    A6        2.03817  -0.00020   0.00000  -0.00156  -0.00156   2.03661
    D1        3.14159   0.00000   0.00000   0.00000   0.00000   3.14159
    D2        0.00000   0.00000   0.00000   0.00000   0.00000   0.00000
    D3        0.00000   0.00000   0.00000   0.00000   0.00000   0.00000
    D4        3.14159   0.00000   0.00000   0.00000   0.00000   3.14159
         Item               Value     Threshold  Converged?
 Maximum Force            0.000202     0.000450     YES
 RMS     Force            0.000128     0.000300     YES
 Maximum Displacement     0.001540     0.001800     YES
 RMS     Displacement     0.000811     0.001200     YES
 Predicted change in Energy=-6.226025D-07
 Optimization completed.
    -- Stationary point found.
                           ----------------------------
                           !   Optimized Parameters   !
                           ! (Angstroms and Degrees)  !
 --------------------------                            --------------------------
 ! Name  Definition              Value          Derivative Info.                !
 --------------------------------------------------------------------------------
 ! R1    R(1,2)                  1.0765         -DE/DX =   -0.0002              !
 ! R2    R(1,3)                  1.0765         -DE/DX =   -0.0002              !
 ! R3    R(1,4)                  1.3209         -DE/DX =   -0.0001              !
 ! R4    R(4,5)                  1.0765         -DE/DX =   -0.0002              !
 ! R5    R(4,6)                  1.0765         -DE/DX =   -0.0002              !
 ! A1    A(2,1,3)              116.7784         -DE/DX =   -0.0002              !
 ! A2    A(2,1,4)              121.6002         -DE/DX =    0.0001              !
 ! A3    A(3,1,4)              121.6214         -DE/DX =    0.0001              !
 ! A4    A(1,4,5)              121.6002         -DE/DX =    0.0001              !
 ! A5    A(1,4,6)              121.6214         -DE/DX =    0.0001              !
 ! A6    A(5,4,6)              116.7784         -DE/DX =   -0.0002              !
 ! D1    D(2,1,4,5)            180.0            -DE/DX =    0.0                 !
 ! D2    D(2,1,4,6)              0.0            -DE/DX =    0.0                 !
 ! D3    D(3,1,4,5)              0.0            -DE/DX =    0.0                 !
 ! D4    D(3,1,4,6)            180.0            -DE/DX =    0.0                 !
 --------------------------------------------------------------------------------
 GradGradGradGradGradGradGradGradGradGradGradGradGradGradGradGradGradGrad

 1|1|UNPC-DESKTOP-319GPER|Freq|RHF|6-31+G(d,p)|C2H4|SAGAD|29-Oct-2020|0
 ||#N Geom=AllCheck Guess=TCheck SCRF=Check GenChk RHF/6-31+G(d,p) Freq
 ||Ethene HF||0,1|C,-3.4787626847,-2.9355906543,0.|H,-2.9666414399,-3.8
 824858305,0.|H,-4.5548377576,-2.9661753305,0.|C,-2.8184402253,-1.79157
 26357,0.|H,-3.3305614701,-0.8446774595,0.|H,-1.7423651524,-1.760987959
 5,0.||Version=IA32W-G09RevA.02|State=1-AG|HF=-78.0430656|RMSD=9.712e-0
 10|RMSF=1.173e-004|ZeroPoint=0.0543882|Thermal=0.0573664|Dipole=0.,0.,
 0.|DipoleDeriv=0.1011945,-0.0617003,0.,-0.0616515,0.0300199,0.,0.,0.,-
 0.3536138,0.010673,0.0834312,0.,0.0491302,-0.076369,0.,0.,0.,0.1768,-0
 .1118675,-0.0217308,0.,0.0125213,0.0463492,0.,0.,0.,0.1768138,0.101194
 5,-0.0617003,0.,-0.0616515,0.0300198,0.,0.,0.,-0.3536138,0.010673,0.08
 34312,0.,0.0491302,-0.076369,0.,0.,0.,0.1768,-0.1118675,-0.0217308,0.,
 0.0125213,0.0463492,0.,0.,0.,0.1768138|Polar=23.79344,6.627125,31.4506
 979,0.,0.,17.5212954|HyperPolar=0.0000054,0.0000045,0.0000044,0.000011
 4,0.,0.,0.,0.,0.0000002,0.|PG=C02H [SGH(C2H4)]|NImag=0||0.78349995,0.1
 1592917,0.91732273,0.,0.,0.14035388,-0.14372204,0.13325393,0.,0.138785
 07,0.12705847,-0.29991496,0.,-0.13954396,0.31948791,0.,0.,-0.04677139,
 0.,0.,0.02944117,-0.37360694,-0.00582707,0.,-0.01033728,-0.00217046,0.
 ,0.39516383,0.00035862,-0.07005219,0.,0.02852737,0.00489964,0.,0.00865
 607,0.06310870,0.,0.,-0.04675862,0.,0.,0.00470508,0.,0.,0.02943991,-0.
 26768123,-0.22713334,0.,0.01477282,0.01883346,0.,-0.01326256,-0.035046
 37,0.,0.78349995,-0.22713334,-0.53009572,0.,-0.01884806,-0.02265701,0.
 ,0.00262538,0.00539715,0.,0.11592917,0.91732273,0.,0.,-0.06278590,0.,0
 .,0.00798551,0.,0.,0.00797652,0.,0.,0.14035388,0.01477282,-0.01884806,
 0.,-0.00098277,-0.00378955,0.,0.00148421,0.00040027,0.,-0.14372204,0.1
 3325393,0.,0.13878507,0.01883346,-0.02265701,0.,-0.00378955,-0.0033082
 7,0.,-0.00038795,0.00149269,0.,0.12705847,-0.29991496,0.,-0.13954396,0
 .31948791,0.,0.,0.00798551,0.,0.,0.01462366,0.,0.,-0.00998403,0.,0.,-0
 .04677139,0.,0.,0.02944117,-0.01326256,0.00262538,0.,0.00148421,-0.000
 38795,0.,0.00055874,-0.00289596,0.,-0.37360694,-0.00582707,0.,-0.01033
 728,-0.00217046,0.,0.39516383,-0.03504637,0.00539715,0.,0.00040027,0.0
 0149269,0.,-0.00289596,-0.00484599,0.,0.00035862,-0.07005219,0.,0.0285
 2737,0.00489964,0.,0.00865607,0.06310870,0.,0.,0.00797652,0.,0.,-0.009
 98403,0.,0.,0.01462113,0.,0.,-0.04675862,0.,0.,0.00470508,0.,0.,0.0294
 3991||-0.00011700,-0.00008365,0.,0.00022385,-0.00006900,0.,-0.00017850
 ,0.00012841,0.,0.00011700,0.00008365,0.,-0.00022385,0.00006900,0.,0.00
 017850,-0.00012841,0.|||@


 THOSE WHO ASPIRE NOT TO GUESS AND DIVINE,
 BUT TO DISCOVER AND KNOW, WHO PROPOSE NOT TO DEVISE 
 MIMIC AND FABULOUS WORLDS OF THEIR OWN, BUT TO 
 EXAMINE AND DISSECT THE NATURE OF THIS VERY WORLD 
 ITSELF, MUST GO TO THE FACTS THEMSELVES FOR EVERYTHING.

                               -- FRANCIS BACON, 1620
 Job cpu time:  0 days  0 hours  0 minutes  2.0 seconds.
 File lengths (MBytes):  RWF=      5 Int=      0 D2E=      0 Chk=      1 Scr=      1
 Normal termination of Gaussian 09 at Thu Oct 29 02:47:17 2020.
