 Entering Link 1 = C:\G09W\l1.exe PID=     14380.
  
 Copyright (c) 1988,1990,1992,1993,1995,1998,2003,2009, Gaussian, Inc.
                  All Rights Reserved.
  
 This is part of the Gaussian(R) 09 program.  It is based on
 the Gaussian(R) 03 system (copyright 2003, Gaussian, Inc.),
 the Gaussian(R) 98 system (copyright 1998, Gaussian, Inc.),
 the Gaussian(R) 94 system (copyright 1995, Gaussian, Inc.),
 the Gaussian 92(TM) system (copyright 1992, Gaussian, Inc.),
 the Gaussian 90(TM) system (copyright 1990, Gaussian, Inc.),
 the Gaussian 88(TM) system (copyright 1988, Gaussian, Inc.),
 the Gaussian 86(TM) system (copyright 1986, Carnegie Mellon
 University), and the Gaussian 82(TM) system (copyright 1983,
 Carnegie Mellon University). Gaussian is a federally registered
 trademark of Gaussian, Inc.
  
 This software contains proprietary and confidential information,
 including trade secrets, belonging to Gaussian, Inc.
  
 This software is provided under written license and may be
 used, copied, transmitted, or stored only in accord with that
 written license.
  
 The following legend is applicable only to US Government
 contracts under FAR:
  
                    RESTRICTED RIGHTS LEGEND
  
 Use, reproduction and disclosure by the US Government is
 subject to restrictions as set forth in subparagraphs (a)
 and (c) of the Commercial Computer Software - Restricted
 Rights clause in FAR 52.227-19.
  
 Gaussian, Inc.
 340 Quinnipiac St., Bldg. 40, Wallingford CT 06492
  
  
 ---------------------------------------------------------------
 Warning -- This program may not be used in any manner that
 competes with the business of Gaussian, Inc. or will provide
 assistance to any competitor of Gaussian, Inc.  The licensee
 of this program is prohibited from giving any competitor of
 Gaussian, Inc. access to this program.  By using this program,
 the user acknowledges that Gaussian, Inc. is engaged in the
 business of creating and licensing software in the field of
 computational chemistry and represents and warrants to the
 licensee that it is not a competitor of Gaussian, Inc. and that
 it will not use this program in any manner prohibited above.
 ---------------------------------------------------------------
  

 Cite this work as:
 Gaussian 09, Revision A.02,
 M. J. Frisch, G. W. Trucks, H. B. Schlegel, G. E. Scuseria, 
 M. A. Robb, J. R. Cheeseman, G. Scalmani, V. Barone, B. Mennucci, 
 G. A. Petersson, H. Nakatsuji, M. Caricato, X. Li, H. P. Hratchian, 
 A. F. Izmaylov, J. Bloino, G. Zheng, J. L. Sonnenberg, M. Hada, 
 M. Ehara, K. Toyota, R. Fukuda, J. Hasegawa, M. Ishida, T. Nakajima, 
 Y. Honda, O. Kitao, H. Nakai, T. Vreven, J. A. Montgomery, Jr., 
 J. E. Peralta, F. Ogliaro, M. Bearpark, J. J. Heyd, E. Brothers, 
 K. N. Kudin, V. N. Staroverov, R. Kobayashi, J. Normand, 
 K. Raghavachari, A. Rendell, J. C. Burant, S. S. Iyengar, J. Tomasi, 
 M. Cossi, N. Rega, J. M. Millam, M. Klene, J. E. Knox, J. B. Cross, 
 V. Bakken, C. Adamo, J. Jaramillo, R. Gomperts, R. E. Stratmann, 
 O. Yazyev, A. J. Austin, R. Cammi, C. Pomelli, J. W. Ochterski, 
 R. L. Martin, K. Morokuma, V. G. Zakrzewski, G. A. Voth, 
 P. Salvador, J. J. Dannenberg, S. Dapprich, A. D. Daniels, 
 O. Farkas, J. B. Foresman, J. V. Ortiz, J. Cioslowski, 
 and D. J. Fox, Gaussian, Inc., Wallingford CT, 2009.
 
 ******************************************
 Gaussian 09:  IA32W-G09RevA.02 11-Jun-2009
                08-Feb-2021 
 ******************************************
 %chk=D:\Documents\rayGit\FQ\quimicaComputacional\proyecto\decompositionHydrogenP
 eroxide\descompositionByRadicals\gasPhase\step4\ts\tsM062X.chk
 %mem=1500MB
 %nprocshared=4
 Will use up to    4 processors via shared memory.
 --------------------------------------------------------
 # opt=(calcfc,ts,noeigen) freq=noraman 6-31+g(d,p) m062x
 --------------------------------------------------------
 1/5=1,10=4,11=1,14=-1,18=20,26=3,38=1/1,3;
 2/9=110,12=2,17=6,18=5,40=1/2;
 3/5=1,6=6,7=111,11=2,16=1,25=1,30=1,71=2,74=-55/1,2,3;
 4//1;
 5/5=2,38=5/2;
 8/6=4,10=90,11=11/1;
 11/6=1,8=1,9=11,15=111,16=1/1,2,10;
 10/6=1,7=6,13=1/2;
 6/7=2,8=2,9=2,10=2,28=1/1;
 7/10=1,18=20,25=1/1,2,3,16;
 1/5=1,10=4,11=1,14=-1,18=20/3(2);
 2/9=110/2;
 99//99;
 2/9=110/2;
 3/5=1,6=6,7=111,11=2,16=1,25=1,30=1,71=1,74=-55/1,2,3;
 4/5=5,16=3/1;
 5/5=2,38=5/2;
 7//1,2,3,16;
 1/5=1,11=1,14=-1,18=20/3(-5);
 2/9=110/2;
 6/7=2,8=2,9=2,10=2,19=2,28=1/1;
 99/9=1/99;
 ---
 ts2
 ---
 Symbolic Z-matrix:
 Charge =  0 Multiplicity = 1
 O                    -0.63024  -0.08799  -0.1773 
 H                    -1.18586  -0.0075   -1.50823 
 O                     0.25266  -0.8929   -0.06501 
 O                    -1.58643  -0.0075   -2.6394 
 H                    -2.28617   0.6497   -2.6466 
 

 GradGradGradGradGradGradGradGradGradGradGradGradGradGradGradGradGradGrad
 Berny optimization.
 Initialization pass.
                           ----------------------------
                           !    Initial Parameters    !
                           ! (Angstroms and Degrees)  !
 --------------------------                            --------------------------
 ! Name  Definition              Value          Derivative Info.                !
 --------------------------------------------------------------------------------
 ! R1    R(1,2)                  1.4445         calculate D2E/DX2 analytically  !
 ! R2    R(1,3)                  1.2            calculate D2E/DX2 analytically  !
 ! R3    R(2,4)                  1.2            calculate D2E/DX2 analytically  !
 ! R4    R(4,5)                  0.96           calculate D2E/DX2 analytically  !
 ! A1    A(2,1,3)              113.9914         calculate D2E/DX2 analytically  !
 ! A2    A(2,4,5)              104.5            calculate D2E/DX2 analytically  !
 ! A3    L(1,2,4,3,-1)         175.5086         calculate D2E/DX2 analytically  !
 ! A4    L(1,2,4,3,-2)         180.0            calculate D2E/DX2 analytically  !
 ! D1    D(3,1,4,5)            179.6327         calculate D2E/DX2 analytically  !
 --------------------------------------------------------------------------------
 Trust Radius=3.00D-01 FncErr=1.00D-07 GrdErr=1.00D-06
 Number of steps in this run=  20 maximum allowed number of steps= 100.
 Search for a saddle point of order  1.
 GradGradGradGradGradGradGradGradGradGradGradGradGradGradGradGradGradGrad

                          Input orientation:                          
 ---------------------------------------------------------------------
 Center     Atomic      Atomic             Coordinates (Angstroms)
 Number     Number       Type             X           Y           Z
 ---------------------------------------------------------------------
      1          8           0       -0.630239   -0.087991   -0.177299
      2          1           0       -1.185859   -0.007500   -1.508226
      3          8           0        0.252662   -0.892898   -0.065009
      4          8           0       -1.586427   -0.007500   -2.639396
      5          1           0       -2.286167    0.649700   -2.646596
 ---------------------------------------------------------------------
                    Distance matrix (angstroms):
                    1          2          3          4          5
     1  O    0.000000
     2  H    1.444493   0.000000
     3  O    1.200000   2.221745   0.000000
     4  O    2.642479   1.200000   3.285369   0.000000
     5  H    3.063284   1.714198   3.935716   0.960000   0.000000
 Stoichiometry    H2O3
 Framework group  C1[X(H2O3)]
 Deg. of freedom     9
 Full point group                 C1      NOp   1
 Largest Abelian subgroup         C1      NOp   1
 Largest concise Abelian subgroup C1      NOp   1
                         Standard orientation:                         
 ---------------------------------------------------------------------
 Center     Atomic      Atomic             Coordinates (Angstroms)
 Number     Number       Type             X           Y           Z
 ---------------------------------------------------------------------
      1          8           0        0.721259    0.532432   -0.000460
      2          1           0       -0.677251    0.170866   -0.000535
      3          8           0        1.468064   -0.406866    0.000471
      4          8           0       -1.811962   -0.219559   -0.000519
      5          1           0       -2.341635    0.581078    0.004601
 ---------------------------------------------------------------------
 Rotational constants (GHZ):     60.9825462      4.9967502      4.6183384
 Standard basis: 6-31+G(d,p) (6D, 7F)
 There are    67 symmetry adapted basis functions of A   symmetry.
 Integral buffers will be    262144 words long.
 Raffenetti 2 integral format.
 Two-electron integral symmetry is turned on.
    67 basis functions,   110 primitive gaussians,    67 cartesian basis functions
    13 alpha electrons       13 beta electrons
       nuclear repulsion energy        66.8879874180 Hartrees.
 NAtoms=    5 NActive=    5 NUniq=    5 SFac= 7.50D-01 NAtFMM=   80 NAOKFM=F Big=F
 One-electron integrals computed using PRISM.
 NBasis=    67 RedAO= T  NBF=    67
 NBsUse=    67 1.00D-06 NBFU=    67
 Harris functional with IExCor= 1009 diagonalized for initial guess.
 ExpMin= 8.45D-02 ExpMax= 5.48D+03 ExpMxC= 8.25D+02 IAcc=2 IRadAn=         0 AccDes= 0.00D+00
 HarFok:  IExCor= 1009 AccDes= 0.00D+00 IRadAn=         0 IDoV= 1
 ScaDFX=  1.000000  1.000000  1.000000  1.000000
 FoFCou: FMM=F IPFlag=           0 FMFlag=      100000 FMFlg1=           0
         NFxFlg=           0 DoJE=T BraDBF=F KetDBF=T FulRan=T
         Omega=  0.000000  0.000000  1.000000  0.000000  0.000000 ICntrl=     500 IOpCl=  0
         NMat0=    1 NMatS0=    1 NMatT0=    0 NMatD0=    1 NMtDS0=    0 NMtDT0=    0
         I1Cent=           4 NGrid=           0.
 Petite list used in FoFCou.
 Initial guess orbital symmetries:
       Occupied  (A) (A) (A) (A) (A) (A) (A) (A) (A) (A) (A) (A)
                 (A)
       Virtual   (A) (A) (A) (A) (A) (A) (A) (A) (A) (A) (A) (A)
                 (A) (A) (A) (A) (A) (A) (A) (A) (A) (A) (A) (A)
                 (A) (A) (A) (A) (A) (A) (A) (A) (A) (A) (A) (A)
                 (A) (A) (A) (A) (A) (A) (A) (A) (A) (A) (A) (A)
                 (A) (A) (A) (A) (A) (A)
 The electronic state of the initial guess is 1-A.
 Requested convergence on RMS density matrix=1.00D-08 within 128 cycles.
 Requested convergence on MAX density matrix=1.00D-06.
 Requested convergence on             energy=1.00D-06.
 No special actions if energy rises.
 Keep R1 ints in memory in canonical form, NReq=3551234.
 Integral accuracy reduced to 1.0D-05 until final iterations.
 Initial convergence to 1.0D-05 achieved.  Increase integral accuracy.
 SCF Done:  E(RM062X) =  -226.562115180     A.U. after   24 cycles
             Convg  =    0.2311D-08             -V/T =  2.0089
 Range of M.O.s used for correlation:     1    67
 NBasis=    67 NAE=    13 NBE=    13 NFC=     0 NFV=     0
 NROrb=     67 NOA=    13 NOB=    13 NVA=    54 NVB=    54

 **** Warning!!: The largest alpha MO coefficient is  0.17480754D+02

 Symmetrizing basis deriv contribution to polar:
 IMax=3 JMax=2 DiffMx= 0.00D+00
 G2DrvN: will do     6 centers at a time, making    1 passes doing MaxLOS=2.
 Calling FoFCou, ICntrl=  3107 FMM=F I1Cent=   0 AccDes= 0.00D+00.
 FoFDir/FoFCou used for L=0 through L=2.
 End of G2Drv Frequency-dependent properties file   721 does not exist.
 End of G2Drv Frequency-dependent properties file   722 does not exist.
          IDoAtm=11111
          Differentiating once with respect to nuclear coordinates.
          Keep R1 ints in memory in canonical form, NReq=3416925.
          There are    18 degrees of freedom in the 1st order CPHF.  IDoFFX=5.
     12 vectors produced by pass  0 Test12= 3.90D-11 5.56D-07 XBig12= 9.10D-02 1.55D-01.
 AX will form    12 AO Fock derivatives at one time.
     12 vectors produced by pass  1 Test12= 3.90D-11 5.56D-07 XBig12= 1.12D-02 6.05D-02.
     12 vectors produced by pass  2 Test12= 3.90D-11 5.56D-07 XBig12= 2.43D-03 2.25D-02.
     12 vectors produced by pass  3 Test12= 3.90D-11 5.56D-07 XBig12= 4.18D-05 1.49D-03.
     12 vectors produced by pass  4 Test12= 3.90D-11 5.56D-07 XBig12= 3.46D-07 1.86D-04.
      5 vectors produced by pass  5 Test12= 3.90D-11 5.56D-07 XBig12= 1.62D-09 7.42D-06.
      1 vectors produced by pass  6 Test12= 3.90D-11 5.56D-07 XBig12= 6.76D-12 9.33D-07.
 Inverted reduced A of dimension    66 with in-core refinement.
 End of Minotr Frequency-dependent properties file   721 does not exist.
 End of Minotr Frequency-dependent properties file   722 does not exist.

 **********************************************************************

            Population analysis using the SCF density.

 **********************************************************************

 Orbital symmetries:
       Occupied  (A) (A) (A) (A) (A) (A) (A) (A) (A) (A) (A) (A)
                 (A)
       Virtual   (A) (A) (A) (A) (A) (A) (A) (A) (A) (A) (A) (A)
                 (A) (A) (A) (A) (A) (A) (A) (A) (A) (A) (A) (A)
                 (A) (A) (A) (A) (A) (A) (A) (A) (A) (A) (A) (A)
                 (A) (A) (A) (A) (A) (A) (A) (A) (A) (A) (A) (A)
                 (A) (A) (A) (A) (A) (A)
 The electronic state is 1-A.
 Alpha  occ. eigenvalues --  -19.87987 -19.87365 -19.61637  -1.49493  -1.06408
 Alpha  occ. eigenvalues --   -0.98422  -0.71064  -0.68226  -0.65925  -0.52546
 Alpha  occ. eigenvalues --   -0.43904  -0.37828  -0.35203
 Alpha virt. eigenvalues --   -0.17698   0.06670   0.08239   0.12051   0.12068
 Alpha virt. eigenvalues --    0.16035   0.17771   0.19752   0.21827   0.23240
 Alpha virt. eigenvalues --    0.23499   0.26824   0.28043   0.30282   0.32882
 Alpha virt. eigenvalues --    0.36006   0.98279   1.03101   1.06536   1.06975
 Alpha virt. eigenvalues --    1.09107   1.11196   1.13758   1.20499   1.23265
 Alpha virt. eigenvalues --    1.24119   1.26857   1.31893   1.43947   1.47332
 Alpha virt. eigenvalues --    1.49647   1.50725   1.61442   1.62750   1.63803
 Alpha virt. eigenvalues --    1.70112   1.73369   1.88474   1.92130   2.21106
 Alpha virt. eigenvalues --    2.46256   2.48291   2.51578   2.56728   2.57959
 Alpha virt. eigenvalues --    2.62680   2.71804   2.92106   2.96563   3.37577
 Alpha virt. eigenvalues --    3.60752   3.76886   4.09760   4.14131
          Condensed to atoms (all electrons):
              1          2          3          4          5
     1  O    7.842366  -0.065107   0.237966  -0.036958   0.000182
     2  H   -0.065107   0.401556   0.033153   0.236918  -0.018949
     3  O    0.237966   0.033153   7.648811   0.020862   0.002515
     4  O   -0.036958   0.236918   0.020862   8.353849   0.266745
     5  H    0.000182  -0.018949   0.002515   0.266745   0.398761
 Mulliken atomic charges:
              1
     1  O    0.021550
     2  H    0.412429
     3  O    0.056692
     4  O   -0.841417
     5  H    0.350746
 Sum of Mulliken atomic charges =   0.00000
 Mulliken charges with hydrogens summed into heavy atoms:
              1
     1  O    0.021550
     3  O    0.056692
     4  O   -0.078241
 Sum of Mulliken charges with hydrogens summed into heavy atoms =   0.00000
 APT atomic charges:
              1
     1  O   -0.067562
     2  H    0.322288
     3  O    0.159018
     4  O   -1.058068
     5  H    0.644324
 Sum of APT charges=   0.00000
 APT Atomic charges with hydrogens summed into heavy atoms:
              1
     1  O   -0.067562
     2  H    0.000000
     3  O    0.159018
     4  O   -0.091456
     5  H    0.000000
 Sum of APT charges=   0.00000
 Electronic spatial extent (au):  <R**2>=            247.2565
 Charge=              0.0000 electrons
 Dipole moment (field-independent basis, Debye):
    X=              2.5381    Y=              2.1068    Z=              0.0092  Tot=              3.2986
 Quadrupole moment (field-independent basis, Debye-Ang):
   XX=            -19.3703   YY=            -17.5258   ZZ=            -17.2993
   XY=             -4.8799   XZ=             -0.0268   YZ=              0.0084
 Traceless Quadrupole moment (field-independent basis, Debye-Ang):
   XX=             -1.3052   YY=              0.5393   ZZ=              0.7658
   XY=             -4.8799   XZ=             -0.0268   YZ=              0.0084
 Octapole moment (field-independent basis, Debye-Ang**2):
  XXX=              4.4637  YYY=              1.5833  ZZZ=              0.0061  XYY=              0.9410
  XXY=              9.2021  XXZ=              0.0622  XZZ=              4.7999  YZZ=              0.6235
  YYZ=              0.0029  XYZ=             -0.0172
 Hexadecapole moment (field-independent basis, Debye-Ang**3):
 XXXX=           -222.6912 YYYY=            -31.4545 ZZZZ=            -14.5442 XXXY=            -25.3786
 XXXZ=             -0.1706 YYYX=             -4.9765 YYYZ=              0.0083 ZZZX=             -0.0162
 ZZZY=              0.0042 XXYY=            -42.2927 XXZZ=            -43.2086 YYZZ=             -7.3891
 XXYZ=              0.0385 YYXZ=             -0.0093 ZZXY=             -1.5613
 N-N= 6.688798741797D+01 E-N=-6.677194202592D+02  KE= 2.245734995799D+02
  Exact polarizability:   0.000   0.000   0.000   0.000   0.000   0.000
 Approx polarizability:  28.632  -5.030  21.572   0.002  -0.003  13.253
 Calling FoFJK, ICntrl=    100147 FMM=F ISym2X=0 I1Cent= 0 IOpClX= 0 NMat=1 NMatS=1 NMatT=0.
 ***** Axes restored to original set *****
 -------------------------------------------------------------------
 Center     Atomic                   Forces (Hartrees/Bohr)
 Number     Number              X              Y              Z
 -------------------------------------------------------------------
      1        8           0.015238653   -0.007830992    0.019872395
      2        1          -0.037631506    0.000518825   -0.104735948
      3        8          -0.008880064    0.007490788   -0.002927352
      4        8           0.034432613   -0.002950118    0.088353491
      5        1          -0.003159696    0.002771496   -0.000562586
 -------------------------------------------------------------------
 Cartesian Forces:  Max     0.104735948 RMS     0.038502499

 GradGradGradGradGradGradGradGradGradGradGradGradGradGradGradGradGradGrad
 Berny optimization.
 Internal  Forces:  Max     0.093187189 RMS     0.031955415
 Search for a saddle point.
 Step number   1 out of a maximum of   20
 All quantities printed in internal units (Hartrees-Bohrs-Radians)
 Swaping is turned off.
 Second derivative matrix not updated -- analytic derivatives used.
 The second derivative matrix:
                          R1        R2        R3        R4        A1
           R1           0.04822
           R2           0.00146   0.90377
           R3           0.04534   0.00807   0.09552
           R4          -0.00048  -0.00108  -0.00371   0.56512
           A1          -0.00334   0.00880   0.00391  -0.00080   0.03798
           A2           0.01240  -0.00223   0.01821   0.01645  -0.00429
           A3           0.00007  -0.00662   0.00119   0.00079  -0.01785
           A4          -0.00001   0.00002   0.00000   0.00000   0.00002
           D1           0.00002   0.00001   0.00002  -0.00007  -0.00002
                          A2        A3        A4        D1
           A2           0.11403
           A3           0.00892   0.01672
           A4          -0.00001  -0.00001   0.00536
           D1          -0.00005   0.00004   0.00045  -0.00075
     Eigenvalues ---   -0.00078   0.00540   0.00569   0.02072   0.04738
     Eigenvalues ---    0.09660   0.14121   0.56574   0.90401
 Eigenvectors required to have negative eigenvalues:
                          D1        A4        A3        A1        R1
   1                    0.99729  -0.07348  -0.00387  -0.00126  -0.00092
                          A2        R3        R4        R2
   1                    0.00075   0.00021   0.00011  -0.00002
 RFO step:  Lambda0=1.559717339D-06 Lambda=-7.05424589D-02.
 Linear search not attempted -- option 19 set.
 Maximum step size (   0.300) exceeded in Quadratic search.
    -- Step size scaled by   0.379
 Iteration  1 RMS(Cart)=  0.05177815 RMS(Int)=  0.01879671
 Iteration  2 RMS(Cart)=  0.01956391 RMS(Int)=  0.00003479
 Iteration  3 RMS(Cart)=  0.00003068 RMS(Int)=  0.00000000
 Iteration  4 RMS(Cart)=  0.00000000 RMS(Int)=  0.00000000
 Variable       Old X    -DE/DX   Delta X   Delta X   Delta X     New X
                                 (Linear)    (Quad)   (Total)
    R1        2.72970   0.01808   0.00000   0.15379   0.15379   2.88349
    R2        2.26767  -0.01184   0.00000  -0.00270  -0.00270   2.26497
    R3        2.26767  -0.09319   0.00000  -0.25635  -0.25635   2.01132
    R4        1.81414   0.00420   0.00000   0.00068   0.00068   1.81482
    A1        1.98952  -0.00424   0.00000  -0.00092  -0.00092   1.98861
    A2        1.82387   0.00101   0.00000   0.01722   0.01722   1.84109
    A3        3.06320  -0.00162   0.00000  -0.00590  -0.00590   3.05730
    A4        3.14159   0.00000   0.00000  -0.00121  -0.00121   3.14038
    D1        3.13518  -0.00001   0.00000   0.01700   0.01700  -3.13100
         Item               Value     Threshold  Converged?
 Maximum Force            0.093187     0.000450     NO 
 RMS     Force            0.031955     0.000300     NO 
 Maximum Displacement     0.142669     0.001800     NO 
 RMS     Displacement     0.065312     0.001200     NO 
 Predicted change in Energy=-2.483345D-02
 GradGradGradGradGradGradGradGradGradGradGradGradGradGradGradGradGradGrad

                          Input orientation:                          
 ---------------------------------------------------------------------
 Center     Atomic      Atomic             Coordinates (Angstroms)
 Number     Number       Type             X           Y           Z
 ---------------------------------------------------------------------
      1          8           0       -0.634229   -0.088523   -0.176868
      2          1           0       -1.219243   -0.005957   -1.583724
      3          8           0        0.252857   -0.886744   -0.065116
      4          8           0       -1.569022   -0.012210   -2.588931
      5          1           0       -2.266391    0.647246   -2.621888
 ---------------------------------------------------------------------
                    Distance matrix (angstroms):
                    1          2          3          4          5
     1  O    0.000000
     2  H    1.525877   0.000000
     3  O    1.198569   2.291077   0.000000
     4  O    2.587994   1.064344   3.233218   0.000000
     5  H    3.030417   1.612755   3.903437   0.960360   0.000000
 Stoichiometry    H2O3
 Framework group  C1[X(H2O3)]
 Deg. of freedom     9
 Full point group                 C1      NOp   1
 Largest Abelian subgroup         C1      NOp   1
 Largest concise Abelian subgroup C1      NOp   1
                         Standard orientation:                         
 ---------------------------------------------------------------------
 Center     Atomic      Atomic             Coordinates (Angstroms)
 Number     Number       Type             X           Y           Z
 ---------------------------------------------------------------------
      1          8           0       -0.704101    0.532173   -0.000766
      2          1           0        0.770573    0.140207   -0.000493
      3          8           0       -1.455516   -0.401605    0.000768
      4          8           0        1.772531   -0.218829   -0.000880
      5          1           0        2.326117    0.565877    0.007519
 ---------------------------------------------------------------------
 Rotational constants (GHZ):     61.7460849      5.1592503      4.7614140
 Standard basis: 6-31+G(d,p) (6D, 7F)
 There are    67 symmetry adapted basis functions of A   symmetry.
 Integral buffers will be    262144 words long.
 Raffenetti 2 integral format.
 Two-electron integral symmetry is turned on.
    67 basis functions,   110 primitive gaussians,    67 cartesian basis functions
    13 alpha electrons       13 beta electrons
       nuclear repulsion energy        67.6351047529 Hartrees.
 NAtoms=    5 NActive=    5 NUniq=    5 SFac= 7.50D-01 NAtFMM=   80 NAOKFM=F Big=F
 One-electron integrals computed using PRISM.
 NBasis=    67 RedAO= T  NBF=    67
 NBsUse=    67 1.00D-06 NBFU=    67
 Initial guess read from the read-write file.
 B after Tr=     0.000000    0.000000    0.000000
         Rot=    1.000000    0.000000    0.000000    0.000000 Ang=   0.00 deg.
 Initial guess orbital symmetries:
       Occupied  (A) (A) (A) (A) (A) (A) (A) (A) (A) (A) (A) (A)
                 (A)
       Virtual   (A) (A) (A) (A) (A) (A) (A) (A) (A) (A) (A) (A)
                 (A) (A) (A) (A) (A) (A) (A) (A) (A) (A) (A) (A)
                 (A) (A) (A) (A) (A) (A) (A) (A) (A) (A) (A) (A)
                 (A) (A) (A) (A) (A) (A) (A) (A) (A) (A) (A) (A)
                 (A) (A) (A) (A) (A) (A)
 Harris functional with IExCor= 1009 diagonalized for initial guess.
 ExpMin= 8.45D-02 ExpMax= 5.48D+03 ExpMxC= 8.25D+02 IAcc=2 IRadAn=         0 AccDes= 0.00D+00
 HarFok:  IExCor= 1009 AccDes= 0.00D+00 IRadAn=         0 IDoV= 1
 ScaDFX=  1.000000  1.000000  1.000000  1.000000
 FoFCou: FMM=F IPFlag=           0 FMFlag=      100000 FMFlg1=           0
         NFxFlg=           0 DoJE=T BraDBF=F KetDBF=T FulRan=T
         Omega=  0.000000  0.000000  1.000000  0.000000  0.000000 ICntrl=     500 IOpCl=  0
         NMat0=    1 NMatS0=    1 NMatT0=    0 NMatD0=    1 NMtDS0=    0 NMtDT0=    0
         I1Cent=           4 NGrid=           0.
 Petite list used in FoFCou.
 Requested convergence on RMS density matrix=1.00D-08 within 128 cycles.
 Requested convergence on MAX density matrix=1.00D-06.
 Requested convergence on             energy=1.00D-06.
 No special actions if energy rises.
 Keep R1 ints in memory in canonical form, NReq=3551234.
 Integral accuracy reduced to 1.0D-05 until final iterations.
 Initial convergence to 1.0D-05 achieved.  Increase integral accuracy.
 SCF Done:  E(RM062X) =  -226.585383559     A.U. after   24 cycles
             Convg  =    0.1709D-08             -V/T =  2.0083
 Calling FoFJK, ICntrl=      2127 FMM=F ISym2X=0 I1Cent= 0 IOpClX= 0 NMat=1 NMatS=1 NMatT=0.
 ***** Axes restored to original set *****
 -------------------------------------------------------------------
 Center     Atomic                   Forces (Hartrees/Bohr)
 Number     Number              X              Y              Z
 -------------------------------------------------------------------
      1        8           0.013508383   -0.005320521    0.022234417
      2        1          -0.026057504    0.000012421   -0.073500590
      3        8          -0.005493714    0.004552255   -0.001854452
      4        8           0.020009283   -0.000686280    0.054513293
      5        1          -0.001966448    0.001442125   -0.001392668
 -------------------------------------------------------------------
 Cartesian Forces:  Max     0.073500590 RMS     0.026103965

 GradGradGradGradGradGradGradGradGradGradGradGradGradGradGradGradGradGrad
 Berny optimization.
 Internal  Forces:  Max     0.056113774 RMS     0.020281278
 Search for a saddle point.
 Step number   2 out of a maximum of   20
 All quantities printed in internal units (Hartrees-Bohrs-Radians)
 Swaping is turned off.
 Update second derivatives using D2CorX and points    1    2
 The second derivative matrix:
                          R1        R2        R3        R4        A1
           R1           0.04444
           R2           0.00139   0.90379
           R3           0.04228   0.00914   0.17114
           R4          -0.00042  -0.00108  -0.00436   0.56513
           A1          -0.00327   0.00879   0.00359  -0.00080   0.03798
           A2           0.01170  -0.00221   0.02000   0.01644  -0.00429
           A3           0.00010  -0.00660   0.00222   0.00078  -0.01785
           A4           0.00002   0.00002  -0.00001   0.00000   0.00002
           D1          -0.00041   0.00000  -0.00020  -0.00007  -0.00001
                          A2        A3        A4        D1
           A2           0.11397
           A3           0.00895   0.01673
           A4          -0.00001  -0.00001   0.00536
           D1          -0.00013   0.00004   0.00046  -0.00080
     Eigenvalues ---   -0.00084   0.00540   0.00595   0.03109   0.04735
     Eigenvalues ---    0.10834   0.19063   0.56576   0.90406
 Eigenvectors required to have negative eigenvalues:
                          D1        A4        R1        A3        R3
   1                    0.99724  -0.07350   0.01031  -0.00213  -0.00139
                          A2        A1        R4        R2
   1                    0.00047   0.00042   0.00010  -0.00002
 RFO step:  Lambda0=1.099587654D-04 Lambda=-3.22284362D-02.
 Linear search not attempted -- option 19 set.
 Maximum step size (   0.300) exceeded in Quadratic search.
    -- Step size scaled by   0.423
 Iteration  1 RMS(Cart)=  0.07405705 RMS(Int)=  0.00327161
 Iteration  2 RMS(Cart)=  0.00253318 RMS(Int)=  0.00000170
 Iteration  3 RMS(Cart)=  0.00000145 RMS(Int)=  0.00000000
 Iteration  4 RMS(Cart)=  0.00000000 RMS(Int)=  0.00000000
 Variable       Old X    -DE/DX   Delta X   Delta X   Delta X     New X
                                 (Linear)    (Quad)   (Total)
    R1        2.88349   0.02190   0.00000   0.20620   0.20620   3.08969
    R2        2.26497  -0.00726   0.00000  -0.00203  -0.00203   2.26294
    R3        2.01132  -0.05611   0.00000  -0.16078  -0.16078   1.85054
    R4        1.81482   0.00248   0.00000   0.00036   0.00036   1.81518
    A1        1.98861  -0.00279   0.00000   0.00066   0.00066   1.98927
    A2        1.84109   0.00241   0.00000   0.01260   0.01260   1.85369
    A3        3.05730  -0.00116   0.00000  -0.00517  -0.00517   3.05214
    A4        3.14038  -0.00001   0.00000   0.01067   0.01067   3.15106
    D1       -3.13100   0.00002   0.00000  -0.14605  -0.14605   3.00614
         Item               Value     Threshold  Converged?
 Maximum Force            0.056114     0.000450     NO 
 RMS     Force            0.020281     0.000300     NO 
 Maximum Displacement     0.141176     0.001800     NO 
 RMS     Displacement     0.075022     0.001200     NO 
 Predicted change in Energy=-1.182641D-02
 GradGradGradGradGradGradGradGradGradGradGradGradGradGradGradGradGradGrad

                          Input orientation:                          
 ---------------------------------------------------------------------
 Center     Atomic      Atomic             Coordinates (Angstroms)
 Number     Number       Type             X           Y           Z
 ---------------------------------------------------------------------
      1          8           0       -0.598324   -0.075652   -0.153207
      2          1           0       -1.229510    0.019757   -1.658431
      3          8           0        0.242353   -0.919592   -0.030645
      4          8           0       -1.550360    0.014777   -2.583627
      5          1           0       -2.300187    0.614522   -2.610616
 ---------------------------------------------------------------------
                    Distance matrix (angstroms):
                    1          2          3          4          5
     1  O    0.000000
     2  H    1.634992   0.000000
     3  O    1.197495   2.387141   0.000000
     4  O    2.611799   0.979264   3.256468   0.000000
     5  H    3.067824   1.551371   3.933734   0.960553   0.000000
 Stoichiometry    H2O3
 Framework group  C1[X(H2O3)]
 Deg. of freedom     9
 Full point group                 C1      NOp   1
 Largest Abelian subgroup         C1      NOp   1
 Largest concise Abelian subgroup C1      NOp   1
                         Standard orientation:                         
 ---------------------------------------------------------------------
 Center     Atomic      Atomic             Coordinates (Angstroms)
 Number     Number       Type             X           Y           Z
 ---------------------------------------------------------------------
      1          8           0        0.718515    0.532559   -0.009461
      2          1           0       -0.862933    0.117565   -0.008363
      3          8           0        1.466891   -0.402086    0.009654
      4          8           0       -1.784113   -0.214668   -0.011119
      5          1           0       -2.347414    0.556000    0.095774
 ---------------------------------------------------------------------
 Rotational constants (GHZ):     61.8801040      5.0677140      4.6852511
 Standard basis: 6-31+G(d,p) (6D, 7F)
 There are    67 symmetry adapted basis functions of A   symmetry.
 Integral buffers will be    262144 words long.
 Raffenetti 2 integral format.
 Two-electron integral symmetry is turned on.
    67 basis functions,   110 primitive gaussians,    67 cartesian basis functions
    13 alpha electrons       13 beta electrons
       nuclear repulsion energy        67.5391467289 Hartrees.
 NAtoms=    5 NActive=    5 NUniq=    5 SFac= 7.50D-01 NAtFMM=   80 NAOKFM=F Big=F
 One-electron integrals computed using PRISM.
 NBasis=    67 RedAO= T  NBF=    67
 NBsUse=    67 1.00D-06 NBFU=    67
 Initial guess read from the read-write file.
 B after Tr=     0.000000    0.000000    0.000000
         Rot=    1.000000    0.000000    0.000000    0.000000 Ang=   0.00 deg.
 Initial guess orbital symmetries:
       Occupied  (A) (A) (A) (A) (A) (A) (A) (A) (A) (A) (A) (A)
                 (A)
       Virtual   (A) (A) (A) (A) (A) (A) (A) (A) (A) (A) (A) (A)
                 (A) (A) (A) (A) (A) (A) (A) (A) (A) (A) (A) (A)
                 (A) (A) (A) (A) (A) (A) (A) (A) (A) (A) (A) (A)
                 (A) (A) (A) (A) (A) (A) (A) (A) (A) (A) (A) (A)
                 (A) (A) (A) (A) (A) (A)
 Harris functional with IExCor= 1009 diagonalized for initial guess.
 ExpMin= 8.45D-02 ExpMax= 5.48D+03 ExpMxC= 8.25D+02 IAcc=2 IRadAn=         0 AccDes= 0.00D+00
 HarFok:  IExCor= 1009 AccDes= 0.00D+00 IRadAn=         0 IDoV= 1
 ScaDFX=  1.000000  1.000000  1.000000  1.000000
 FoFCou: FMM=F IPFlag=           0 FMFlag=      100000 FMFlg1=           0
         NFxFlg=           0 DoJE=T BraDBF=F KetDBF=T FulRan=T
         Omega=  0.000000  0.000000  1.000000  0.000000  0.000000 ICntrl=     500 IOpCl=  0
         NMat0=    1 NMatS0=    1 NMatT0=    0 NMatD0=    1 NMtDS0=    0 NMtDT0=    0
         I1Cent=           4 NGrid=           0.
 Petite list used in FoFCou.
 Requested convergence on RMS density matrix=1.00D-08 within 128 cycles.
 Requested convergence on MAX density matrix=1.00D-06.
 Requested convergence on             energy=1.00D-06.
 No special actions if energy rises.
 Keep R1 ints in memory in canonical form, NReq=3551234.
 Integral accuracy reduced to 1.0D-05 until final iterations.
 Initial convergence to 1.0D-05 achieved.  Increase integral accuracy.
 SCF Done:  E(RM062X) =  -226.594961333     A.U. after   23 cycles
             Convg  =    0.2764D-08             -V/T =  2.0079
 Calling FoFJK, ICntrl=      2127 FMM=F ISym2X=0 I1Cent= 0 IOpClX= 0 NMat=1 NMatS=1 NMatT=0.
 ***** Axes restored to original set *****
 -------------------------------------------------------------------
 Center     Atomic                   Forces (Hartrees/Bohr)
 Number     Number              X              Y              Z
 -------------------------------------------------------------------
      1        8           0.009965969   -0.003351584    0.018744089
      2        1          -0.007632409    0.000082909   -0.021219189
      3        8          -0.002874624    0.002609232   -0.001209941
      4        8           0.001472282    0.000299371    0.005167903
      5        1          -0.000931218    0.000360072   -0.001482862
 -------------------------------------------------------------------
 Cartesian Forces:  Max     0.021219189 RMS     0.008242591

 GradGradGradGradGradGradGradGradGradGradGradGradGradGradGradGradGradGrad
 Berny optimization.
 Internal  Forces:  Max     0.018906375 RMS     0.006659739
 Search for a saddle point.
 Step number   3 out of a maximum of   20
 All quantities printed in internal units (Hartrees-Bohrs-Radians)
 Swaping is turned off.
 Update second derivatives using D2CorX and points    1    2    3
 The second derivative matrix:
                          R1        R2        R3        R4        A1
           R1           0.02799
           R2           0.00116   0.90380
           R3           0.00953   0.01056   0.32270
           R4           0.00016  -0.00110  -0.00598   0.56514
           A1          -0.00279   0.00878   0.00222  -0.00079   0.03799
           A2           0.00930  -0.00220   0.02097   0.01645  -0.00428
           A3           0.00049  -0.00659   0.00325   0.00076  -0.01787
           A4          -0.00083   0.00001  -0.00102   0.00002   0.00003
           D1           0.00925   0.00013   0.01869  -0.00039  -0.00028
                          A2        A3        A4        D1
           A2           0.11377
           A3           0.00902   0.01672
           A4          -0.00011   0.00001   0.00532
           D1           0.00121  -0.00018   0.00100  -0.00713
     Eigenvalues ---   -0.01031   0.00540   0.00612   0.02876   0.04714
     Eigenvalues ---    0.11316   0.32604   0.56585   0.90415
 Eigenvectors required to have negative eigenvalues:
                          D1        R1        A4        R3        A2
   1                    0.96931  -0.22730  -0.07743  -0.04922   0.01500
                          A3        R2        A1        R4
   1                    0.01178   0.00083   0.00029  -0.00023
 RFO step:  Lambda0=1.402331980D-03 Lambda=-9.04089236D-03.
 Linear search not attempted -- option 19 set.
 Maximum step size (   0.300) exceeded in Quadratic search.
    -- Step size scaled by   0.504
 Iteration  1 RMS(Cart)=  0.09198652 RMS(Int)=  0.00963076
 Iteration  2 RMS(Cart)=  0.00975941 RMS(Int)=  0.00008530
 Iteration  3 RMS(Cart)=  0.00007612 RMS(Int)=  0.00000000
 Iteration  4 RMS(Cart)=  0.00000000 RMS(Int)=  0.00000000
 Variable       Old X    -DE/DX   Delta X   Delta X   Delta X     New X
                                 (Linear)    (Quad)   (Total)
    R1        3.08969   0.01891   0.00000   0.19548   0.19548   3.28517
    R2        2.26294  -0.00396   0.00000  -0.00222  -0.00222   2.26072
    R3        1.85054  -0.00368   0.00000  -0.02365  -0.02365   1.82689
    R4        1.81518   0.00101   0.00000   0.00077   0.00077   1.81595
    A1        1.98927  -0.00195   0.00000  -0.01608  -0.01608   1.97319
    A2        1.85369   0.00265   0.00000  -0.00071  -0.00071   1.85298
    A3        3.05214  -0.00079   0.00000  -0.02536  -0.02536   3.02678
    A4        3.15106   0.00009   0.00000  -0.01243  -0.01243   3.13863
    D1        3.00614   0.00005   0.00000   0.22398   0.22398  -3.05307
         Item               Value     Threshold  Converged?
 Maximum Force            0.018906     0.000450     NO 
 RMS     Force            0.006660     0.000300     NO 
 Maximum Displacement     0.128413     0.001800     NO 
 RMS     Displacement     0.098290     0.001200     NO 
 Predicted change in Energy=-3.128261D-03
 GradGradGradGradGradGradGradGradGradGradGradGradGradGradGradGradGradGrad

                          Input orientation:                          
 ---------------------------------------------------------------------
 Center     Atomic      Atomic             Coordinates (Angstroms)
 Number     Number       Type             X           Y           Z
 ---------------------------------------------------------------------
      1          8           0       -0.597275   -0.113123   -0.085253
      2          1           0       -1.285326    0.001297   -1.677627
      3          8           0        0.306443   -0.894319   -0.020398
      4          8           0       -1.594175   -0.012129   -2.593614
      5          1           0       -2.265696    0.672085   -2.659633
 ---------------------------------------------------------------------
                    Distance matrix (angstroms):
                    1          2          3          4          5
     1  O    0.000000
     2  H    1.738436   0.000000
     3  O    1.196320   2.466226   0.000000
     4  O    2.701089   0.966747   3.318441   0.000000
     5  H    3.166640   1.541238   4.004383   0.960961   0.000000
 Stoichiometry    H2O3
 Framework group  C1[X(H2O3)]
 Deg. of freedom     9
 Full point group                 C1      NOp   1
 Largest Abelian subgroup         C1      NOp   1
 Largest concise Abelian subgroup C1      NOp   1
                         Standard orientation:                         
 ---------------------------------------------------------------------
 Center     Atomic      Atomic             Coordinates (Angstroms)
 Number     Number       Type             X           Y           Z
 ---------------------------------------------------------------------
      1          8           0       -0.764162    0.541029   -0.005938
      2          1           0        0.924046    0.126161   -0.006578
      3          8           0       -1.481800   -0.416064    0.006226
      4          8           0        1.830245   -0.210590   -0.007289
      5          1           0        2.401687    0.558838    0.062587
 ---------------------------------------------------------------------
 Rotational constants (GHZ):     59.7071754      4.8349753      4.4732214
 Standard basis: 6-31+G(d,p) (6D, 7F)
 There are    67 symmetry adapted basis functions of A   symmetry.
 Integral buffers will be    262144 words long.
 Raffenetti 2 integral format.
 Two-electron integral symmetry is turned on.
    67 basis functions,   110 primitive gaussians,    67 cartesian basis functions
    13 alpha electrons       13 beta electrons
       nuclear repulsion energy        66.7274072823 Hartrees.
 NAtoms=    5 NActive=    5 NUniq=    5 SFac= 7.50D-01 NAtFMM=   80 NAOKFM=F Big=F
 One-electron integrals computed using PRISM.
 NBasis=    67 RedAO= T  NBF=    67
 NBsUse=    67 1.00D-06 NBFU=    67
 Initial guess read from the read-write file.
 B after Tr=     0.000000    0.000000    0.000000
         Rot=    1.000000    0.000000    0.000000    0.000000 Ang=   0.00 deg.
 Initial guess orbital symmetries:
       Occupied  (A) (A) (A) (A) (A) (A) (A) (A) (A) (A) (A) (A)
                 (A)
       Virtual   (A) (A) (A) (A) (A) (A) (A) (A) (A) (A) (A) (A)
                 (A) (A) (A) (A) (A) (A) (A) (A) (A) (A) (A) (A)
                 (A) (A) (A) (A) (A) (A) (A) (A) (A) (A) (A) (A)
                 (A) (A) (A) (A) (A) (A) (A) (A) (A) (A) (A) (A)
                 (A) (A) (A) (A) (A) (A)
 Harris functional with IExCor= 1009 diagonalized for initial guess.
 ExpMin= 8.45D-02 ExpMax= 5.48D+03 ExpMxC= 8.25D+02 IAcc=2 IRadAn=         0 AccDes= 0.00D+00
 HarFok:  IExCor= 1009 AccDes= 0.00D+00 IRadAn=         0 IDoV= 1
 ScaDFX=  1.000000  1.000000  1.000000  1.000000
 FoFCou: FMM=F IPFlag=           0 FMFlag=      100000 FMFlg1=           0
         NFxFlg=           0 DoJE=T BraDBF=F KetDBF=T FulRan=T
         Omega=  0.000000  0.000000  1.000000  0.000000  0.000000 ICntrl=     500 IOpCl=  0
         NMat0=    1 NMatS0=    1 NMatT0=    0 NMatD0=    1 NMtDS0=    0 NMtDT0=    0
         I1Cent=           4 NGrid=           0.
 Petite list used in FoFCou.
 Requested convergence on RMS density matrix=1.00D-08 within 128 cycles.
 Requested convergence on MAX density matrix=1.00D-06.
 Requested convergence on             energy=1.00D-06.
 No special actions if energy rises.
 Keep R1 ints in memory in canonical form, NReq=3551234.
 Integral accuracy reduced to 1.0D-05 until final iterations.
 Initial convergence to 1.0D-05 achieved.  Increase integral accuracy.
 SCF Done:  E(RM062X) =  -226.598093240     A.U. after   17 cycles
             Convg  =    0.3504D-08             -V/T =  2.0079
 Calling FoFJK, ICntrl=      2127 FMM=F ISym2X=0 I1Cent= 0 IOpClX= 0 NMat=1 NMatS=1 NMatT=0.
 ***** Axes restored to original set *****
 -------------------------------------------------------------------
 Center     Atomic                   Forces (Hartrees/Bohr)
 Number     Number              X              Y              Z
 -------------------------------------------------------------------
      1        8           0.005999763   -0.001412995    0.012764474
      2        1          -0.003074591    0.000046406   -0.008594078
      3        8          -0.001210560    0.000804786   -0.000898999
      4        8          -0.001207516    0.000458199   -0.001942095
      5        1          -0.000507095    0.000103604   -0.001329301
 -------------------------------------------------------------------
 Cartesian Forces:  Max     0.012764474 RMS     0.004431967

 GradGradGradGradGradGradGradGradGradGradGradGradGradGradGradGradGradGrad
 Berny optimization.
 Internal  Forces:  Max     0.012794225 RMS     0.004586837
 Search for a saddle point.
 Step number   4 out of a maximum of   20
 All quantities printed in internal units (Hartrees-Bohrs-Radians)
 Swaping is turned off.
 Update second derivatives using D2CorX and points    2    3    4
 The second derivative matrix:
                          R1        R2        R3        R4        A1
           R1           0.02079
           R2          -0.00030   0.90386
           R3          -0.00540   0.01157   0.33727
           R4           0.00008  -0.00110  -0.00600   0.56514
           A1          -0.00020   0.00879   0.00182  -0.00078   0.03779
           A2           0.00598  -0.00213   0.02249   0.01644  -0.00415
           A3           0.00119  -0.00646   0.00468   0.00077  -0.01812
           A4          -0.00037   0.00004  -0.00077   0.00002  -0.00004
           D1           0.00869  -0.00074   0.00852  -0.00043   0.00106
                          A2        A3        A4        D1
           A2           0.11378
           A3           0.00933   0.01665
           A4          -0.00003  -0.00003   0.00530
           D1          -0.00060  -0.00006   0.00124  -0.00654
     Eigenvalues ---   -0.00954   0.00541   0.00583   0.02295   0.04706
     Eigenvalues ---    0.11266   0.33958   0.56586   0.90425
 Eigenvectors required to have negative eigenvalues:
                          D1        R1        A4        R3        A2
   1                    0.95371  -0.28424  -0.08832  -0.02947   0.02328
                          A1        A3        R2        R4
   1                   -0.02062  -0.00209   0.00130  -0.00024
 RFO step:  Lambda0=1.207469037D-03 Lambda=-5.70328546D-03.
 Linear search not attempted -- option 19 set.
 Maximum step size (   0.300) exceeded in Quadratic search.
    -- Step size scaled by   0.519
 Iteration  1 RMS(Cart)=  0.10060746 RMS(Int)=  0.01218974
 Iteration  2 RMS(Cart)=  0.01245659 RMS(Int)=  0.00013015
 Iteration  3 RMS(Cart)=  0.00011809 RMS(Int)=  0.00000001
 Iteration  4 RMS(Cart)=  0.00000001 RMS(Int)=  0.00000000
 Variable       Old X    -DE/DX   Delta X   Delta X   Delta X     New X
                                 (Linear)    (Quad)   (Total)
    R1        3.28517   0.01279   0.00000   0.16507   0.16507   3.45024
    R2        2.26072  -0.00147   0.00000  -0.00060  -0.00060   2.26012
    R3        1.82689   0.00363   0.00000   0.00326   0.00326   1.83015
    R4        1.81595   0.00053   0.00000   0.00049   0.00049   1.81644
    A1        1.97319  -0.00194   0.00000  -0.06109  -0.06109   1.91210
    A2        1.85298   0.00238   0.00000   0.00687   0.00687   1.85985
    A3        3.02678  -0.00078   0.00000  -0.07974  -0.07974   2.94704
    A4        3.13863  -0.00006   0.00000  -0.03292  -0.03292   3.10570
    D1       -3.05307   0.00004   0.00000   0.22698   0.22698  -2.82609
         Item               Value     Threshold  Converged?
 Maximum Force            0.012794     0.000450     NO 
 RMS     Force            0.004587     0.000300     NO 
 Maximum Displacement     0.158927     0.001800     NO 
 RMS     Displacement     0.107542     0.001200     NO 
 Predicted change in Energy=-1.879999D-03
 GradGradGradGradGradGradGradGradGradGradGradGradGradGradGradGradGradGrad

                          Input orientation:                          
 ---------------------------------------------------------------------
 Center     Atomic      Atomic             Coordinates (Angstroms)
 Number     Number       Type             X           Y           Z
 ---------------------------------------------------------------------
      1          8           0       -0.596329   -0.147924   -0.001153
      2          1           0       -1.351949    0.008632   -1.655850
      3          8           0        0.354691   -0.870607   -0.062100
      4          8           0       -1.627430   -0.040892   -2.582994
      5          1           0       -2.215012    0.704602   -2.734429
 ---------------------------------------------------------------------
                    Distance matrix (angstroms):
                    1          2          3          4          5
     1  O    0.000000
     2  H    1.825786   0.000000
     3  O    1.196003   2.495140   0.000000
     4  O    2.782181   0.968472   3.312422   0.000000
     5  H    3.289032   1.546798   4.028150   0.961220   0.000000
 Stoichiometry    H2O3
 Framework group  C1[X(H2O3)]
 Deg. of freedom     9
 Full point group                 C1      NOp   1
 Largest Abelian subgroup         C1      NOp   1
 Largest concise Abelian subgroup C1      NOp   1
                         Standard orientation:                         
 ---------------------------------------------------------------------
 Center     Atomic      Atomic             Coordinates (Angstroms)
 Number     Number       Type             X           Y           Z
 ---------------------------------------------------------------------
      1          8           0       -0.824952    0.565215   -0.017668
      2          1           0        0.960409    0.183155   -0.014255
      3          8           0       -1.452182   -0.452431    0.019775
      4          8           0        1.850192   -0.199006   -0.027528
      5          1           0        2.455130    0.506613    0.217618
 ---------------------------------------------------------------------
 Rotational constants (GHZ):     54.0712978      4.7571476      4.3774888
 Standard basis: 6-31+G(d,p) (6D, 7F)
 There are    67 symmetry adapted basis functions of A   symmetry.
 Integral buffers will be    262144 words long.
 Raffenetti 2 integral format.
 Two-electron integral symmetry is turned on.
    67 basis functions,   110 primitive gaussians,    67 cartesian basis functions
    13 alpha electrons       13 beta electrons
       nuclear repulsion energy        66.1853929409 Hartrees.
 NAtoms=    5 NActive=    5 NUniq=    5 SFac= 7.50D-01 NAtFMM=   80 NAOKFM=F Big=F
 One-electron integrals computed using PRISM.
 NBasis=    67 RedAO= T  NBF=    67
 NBsUse=    67 1.00D-06 NBFU=    67
 Initial guess read from the read-write file.
 B after Tr=     0.000000    0.000000    0.000000
         Rot=    1.000000    0.000000    0.000000    0.000000 Ang=   0.00 deg.
 Initial guess orbital symmetries:
       Occupied  (A) (A) (A) (A) (A) (A) (A) (A) (A) (A) (A) (A)
                 (A)
       Virtual   (A) (A) (A) (A) (A) (A) (A) (A) (A) (A) (A) (A)
                 (A) (A) (A) (A) (A) (A) (A) (A) (A) (A) (A) (A)
                 (A) (A) (A) (A) (A) (A) (A) (A) (A) (A) (A) (A)
                 (A) (A) (A) (A) (A) (A) (A) (A) (A) (A) (A) (A)
                 (A) (A) (A) (A) (A) (A)
 Harris functional with IExCor= 1009 diagonalized for initial guess.
 ExpMin= 8.45D-02 ExpMax= 5.48D+03 ExpMxC= 8.25D+02 IAcc=2 IRadAn=         0 AccDes= 0.00D+00
 HarFok:  IExCor= 1009 AccDes= 0.00D+00 IRadAn=         0 IDoV= 1
 ScaDFX=  1.000000  1.000000  1.000000  1.000000
 FoFCou: FMM=F IPFlag=           0 FMFlag=      100000 FMFlg1=           0
         NFxFlg=           0 DoJE=T BraDBF=F KetDBF=T FulRan=T
         Omega=  0.000000  0.000000  1.000000  0.000000  0.000000 ICntrl=     500 IOpCl=  0
         NMat0=    1 NMatS0=    1 NMatT0=    0 NMatD0=    1 NMtDS0=    0 NMtDT0=    0
         I1Cent=           4 NGrid=           0.
 Petite list used in FoFCou.
 Requested convergence on RMS density matrix=1.00D-08 within 128 cycles.
 Requested convergence on MAX density matrix=1.00D-06.
 Requested convergence on             energy=1.00D-06.
 No special actions if energy rises.
 Keep R1 ints in memory in canonical form, NReq=3551234.
 Integral accuracy reduced to 1.0D-05 until final iterations.
 Initial convergence to 1.0D-05 achieved.  Increase integral accuracy.
 SCF Done:  E(RM062X) =  -226.600001220     A.U. after   22 cycles
             Convg  =    0.1801D-08             -V/T =  2.0080
 Calling FoFJK, ICntrl=      2127 FMM=F ISym2X=0 I1Cent= 0 IOpClX= 0 NMat=1 NMatS=1 NMatT=0.
 ***** Axes restored to original set *****
 -------------------------------------------------------------------
 Center     Atomic                   Forces (Hartrees/Bohr)
 Number     Number              X              Y              Z
 -------------------------------------------------------------------
      1        8           0.003928680   -0.000894269    0.008375080
      2        1          -0.003416986    0.000542889   -0.008708292
      3        8          -0.000695949    0.000267699   -0.000599716
      4        8           0.000352714    0.000244664    0.001401499
      5        1          -0.000168458   -0.000160982   -0.000468571
 -------------------------------------------------------------------
 Cartesian Forces:  Max     0.008708292 RMS     0.003440146

 GradGradGradGradGradGradGradGradGradGradGradGradGradGradGradGradGradGrad
 Berny optimization.
 Internal  Forces:  Max     0.008430946 RMS     0.002908418
 Search for a saddle point.
 Step number   5 out of a maximum of   20
 All quantities printed in internal units (Hartrees-Bohrs-Radians)
 Swaping is turned off.
 Update second derivatives using D2CorX and points    3    4    5
 The second derivative matrix:
                          R1        R2        R3        R4        A1
           R1           0.01711
           R2          -0.00038   0.90387
           R3           0.00036   0.01156   0.33584
           R4           0.00049  -0.00110  -0.00608   0.56514
           A1           0.00084   0.00882   0.00017  -0.00089   0.03750
           A2           0.00645  -0.00213   0.02252   0.01645  -0.00428
           A3           0.00145  -0.00642   0.00274   0.00063  -0.01818
           A4           0.00005   0.00005  -0.00165  -0.00004  -0.00016
           D1           0.00732  -0.00085   0.01526   0.00006   0.00144
                          A2        A3        A4        D1
           A2           0.11379
           A3           0.00914   0.01695
           A4          -0.00011  -0.00001   0.00526
           D1           0.00004  -0.00089   0.00126  -0.00426
     Eigenvalues ---   -0.00739   0.00531   0.00597   0.01902   0.04703
     Eigenvalues ---    0.11261   0.33853   0.56586   0.90425
 Eigenvectors required to have negative eigenvalues:
                          D1        R1        A4        A3        R3
   1                    0.94942  -0.29040  -0.09876   0.04641  -0.04413
                          A2        A1        R2        R4
   1                    0.01972  -0.00480   0.00175  -0.00095
 RFO step:  Lambda0=8.079601564D-04 Lambda=-3.26679115D-03.
 Linear search not attempted -- option 19 set.
 Maximum step size (   0.300) exceeded in Quadratic search.
    -- Step size scaled by   0.570
 Iteration  1 RMS(Cart)=  0.09514421 RMS(Int)=  0.01295803
 Iteration  2 RMS(Cart)=  0.01305528 RMS(Int)=  0.00015159
 Iteration  3 RMS(Cart)=  0.00012717 RMS(Int)=  0.00000001
 Iteration  4 RMS(Cart)=  0.00000001 RMS(Int)=  0.00000000
 Variable       Old X    -DE/DX   Delta X   Delta X   Delta X     New X
                                 (Linear)    (Quad)   (Total)
    R1        3.45024   0.00843   0.00000   0.15030   0.15030   3.60054
    R2        2.26012  -0.00067   0.00000   0.00013   0.00013   2.26025
    R3        1.83015  -0.00096   0.00000  -0.01204  -0.01204   1.81811
    R4        1.81644   0.00006   0.00000  -0.00030  -0.00030   1.81614
    A1        1.91210  -0.00153   0.00000  -0.06699  -0.06699   1.84511
    A2        1.85985   0.00091   0.00000   0.00204   0.00204   1.86189
    A3        2.94704  -0.00065   0.00000  -0.07687  -0.07687   2.87017
    A4        3.10570  -0.00019   0.00000  -0.05960  -0.05960   3.04610
    D1       -2.82609  -0.00019   0.00000   0.23089   0.23089  -2.59520
         Item               Value     Threshold  Converged?
 Maximum Force            0.008431     0.000450     NO 
 RMS     Force            0.002908     0.000300     NO 
 Maximum Displacement     0.139491     0.001800     NO 
 RMS     Displacement     0.103383     0.001200     NO 
 Predicted change in Energy=-1.083595D-03
 GradGradGradGradGradGradGradGradGradGradGradGradGradGradGradGradGradGrad

                          Input orientation:                          
 ---------------------------------------------------------------------
 Center     Atomic      Atomic             Coordinates (Angstroms)
 Number     Number       Type             X           Y           Z
 ---------------------------------------------------------------------
      1          8           0       -0.597169   -0.185311    0.072663
      2          1           0       -1.415882    0.021071   -1.635370
      3          8           0        0.386968   -0.838200   -0.116533
      4          8           0       -1.659062   -0.067885   -2.561969
      5          1           0       -2.150883    0.724136   -2.795317
 ---------------------------------------------------------------------
                    Distance matrix (angstroms):
                    1          2          3          4          5
     1  O    0.000000
     2  H    1.905324   0.000000
     3  O    1.196070   2.509079   0.000000
     4  O    2.843007   0.962100   3.280210   0.000000
     5  H    3.386211   1.542726   4.007176   0.961059   0.000000
 Stoichiometry    H2O3
 Framework group  C1[X(H2O3)]
 Deg. of freedom     9
 Full point group                 C1      NOp   1
 Largest Abelian subgroup         C1      NOp   1
 Largest concise Abelian subgroup C1      NOp   1
                         Standard orientation:                         
 ---------------------------------------------------------------------
 Center     Atomic      Atomic             Coordinates (Angstroms)
 Number     Number       Type             X           Y           Z
 ---------------------------------------------------------------------
      1          8           0       -0.881814    0.584556   -0.023722
      2          1           0        0.992180    0.240854   -0.007184
      3          8           0       -1.408416   -0.488068    0.028734
      4          8           0        1.856359   -0.179935   -0.049225
      5          1           0        2.478780    0.426724    0.360888
 ---------------------------------------------------------------------
 Rotational constants (GHZ):     49.5930277      4.7480955      4.3465896
 Standard basis: 6-31+G(d,p) (6D, 7F)
 There are    67 symmetry adapted basis functions of A   symmetry.
 Integral buffers will be    262144 words long.
 Raffenetti 2 integral format.
 Two-electron integral symmetry is turned on.
    67 basis functions,   110 primitive gaussians,    67 cartesian basis functions
    13 alpha electrons       13 beta electrons
       nuclear repulsion energy        65.9166928986 Hartrees.
 NAtoms=    5 NActive=    5 NUniq=    5 SFac= 7.50D-01 NAtFMM=   80 NAOKFM=F Big=F
 One-electron integrals computed using PRISM.
 NBasis=    67 RedAO= T  NBF=    67
 NBsUse=    67 1.00D-06 NBFU=    67
 Initial guess read from the read-write file.
 B after Tr=     0.000000    0.000000    0.000000
         Rot=    1.000000    0.000000    0.000000    0.000000 Ang=   0.00 deg.
 Initial guess orbital symmetries:
       Occupied  (A) (A) (A) (A) (A) (A) (A) (A) (A) (A) (A) (A)
                 (A)
       Virtual   (A) (A) (A) (A) (A) (A) (A) (A) (A) (A) (A) (A)
                 (A) (A) (A) (A) (A) (A) (A) (A) (A) (A) (A) (A)
                 (A) (A) (A) (A) (A) (A) (A) (A) (A) (A) (A) (A)
                 (A) (A) (A) (A) (A) (A) (A) (A) (A) (A) (A) (A)
                 (A) (A) (A) (A) (A) (A)
 Harris functional with IExCor= 1009 diagonalized for initial guess.
 ExpMin= 8.45D-02 ExpMax= 5.48D+03 ExpMxC= 8.25D+02 IAcc=2 IRadAn=         0 AccDes= 0.00D+00
 HarFok:  IExCor= 1009 AccDes= 0.00D+00 IRadAn=         0 IDoV= 1
 ScaDFX=  1.000000  1.000000  1.000000  1.000000
 FoFCou: FMM=F IPFlag=           0 FMFlag=      100000 FMFlg1=           0
         NFxFlg=           0 DoJE=T BraDBF=F KetDBF=T FulRan=T
         Omega=  0.000000  0.000000  1.000000  0.000000  0.000000 ICntrl=     500 IOpCl=  0
         NMat0=    1 NMatS0=    1 NMatT0=    0 NMatD0=    1 NMtDS0=    0 NMtDT0=    0
         I1Cent=           4 NGrid=           0.
 Petite list used in FoFCou.
 Requested convergence on RMS density matrix=1.00D-08 within 128 cycles.
 Requested convergence on MAX density matrix=1.00D-06.
 Requested convergence on             energy=1.00D-06.
 No special actions if energy rises.
 Keep R1 ints in memory in canonical form, NReq=3551234.
 Integral accuracy reduced to 1.0D-05 until final iterations.
 Initial convergence to 1.0D-05 achieved.  Increase integral accuracy.
 SCF Done:  E(RM062X) =  -226.601053608     A.U. after   32 cycles
             Convg  =    0.4493D-08             -V/T =  2.0080
 Calling FoFJK, ICntrl=      2127 FMM=F ISym2X=0 I1Cent= 0 IOpClX= 0 NMat=1 NMatS=1 NMatT=0.
 ***** Axes restored to original set *****
 -------------------------------------------------------------------
 Center     Atomic                   Forces (Hartrees/Bohr)
 Number     Number              X              Y              Z
 -------------------------------------------------------------------
      1        8           0.002518062   -0.000690987    0.005281285
      2        1          -0.001197010    0.001083060   -0.001237407
      3        8          -0.000311198    0.000039260   -0.000294672
      4        8          -0.000832653   -0.000402880   -0.003526550
      5        1          -0.000177202   -0.000028453   -0.000222656
 -------------------------------------------------------------------
 Cartesian Forces:  Max     0.005281285 RMS     0.001869158

 GradGradGradGradGradGradGradGradGradGradGradGradGradGradGradGradGradGrad
 Berny optimization.
 Internal  Forces:  Max     0.005489634 RMS     0.002275515
 Search for a saddle point.
 Step number   6 out of a maximum of   20
 All quantities printed in internal units (Hartrees-Bohrs-Radians)
 Swaping is turned off.
 Update second derivatives using D2CorX and points    4    5    6
 The second derivative matrix:
                          R1        R2        R3        R4        A1
           R1           0.01327
           R2          -0.00049   0.90387
           R3          -0.00724   0.01155   0.33550
           R4           0.00033  -0.00111  -0.00609   0.56514
           A1           0.00146   0.00886   0.00330  -0.00083   0.03764
           A2           0.00630  -0.00213   0.02236   0.01645  -0.00424
           A3           0.00211  -0.00637   0.00645   0.00071  -0.01798
           A4           0.00073   0.00009   0.00090   0.00001  -0.00012
           D1           0.00498  -0.00100   0.00425  -0.00017   0.00099
                          A2        A3        A4        D1
           A2           0.11379
           A3           0.00919   0.01722
           A4          -0.00007   0.00006   0.00523
           D1          -0.00011  -0.00153   0.00115  -0.00290
     Eigenvalues ---   -0.00480   0.00505   0.00620   0.01470   0.04704
     Eigenvalues ---    0.11267   0.33780   0.56586   0.90425
 Eigenvectors required to have negative eigenvalues:
                          D1        R1        A3        A4        A1
   1                    0.94282  -0.28846   0.13348  -0.08536   0.04675
                          R3        A2        R2        R4
   1                   -0.02148   0.01154   0.00168  -0.00020
 RFO step:  Lambda0=6.777391427D-04 Lambda=-2.03109219D-03.
 Linear search not attempted -- option 19 set.
 Maximum step size (   0.300) exceeded in Quadratic search.
    -- Step size scaled by   0.563
 Iteration  1 RMS(Cart)=  0.08013262 RMS(Int)=  0.01814840
 Iteration  2 RMS(Cart)=  0.01865164 RMS(Int)=  0.00033494
 Iteration  3 RMS(Cart)=  0.00026906 RMS(Int)=  0.00000004
 Iteration  4 RMS(Cart)=  0.00000004 RMS(Int)=  0.00000000
 Variable       Old X    -DE/DX   Delta X   Delta X   Delta X     New X
                                 (Linear)    (Quad)   (Total)
    R1        3.60054   0.00549   0.00000   0.12956   0.12956   3.73010
    R2        2.26025  -0.00023   0.00000   0.00022   0.00022   2.26046
    R3        1.81811   0.00391   0.00000   0.00785   0.00785   1.82596
    R4        1.81614   0.00012   0.00000   0.00032   0.00032   1.81646
    A1        1.84511  -0.00080   0.00000  -0.04293  -0.04293   1.80218
    A2        1.86189   0.00045   0.00000  -0.00431  -0.00431   1.85758
    A3        2.87017  -0.00043   0.00000  -0.04362  -0.04362   2.82656
    A4        3.04610  -0.00024   0.00000  -0.07935  -0.07935   2.96675
    D1       -2.59520  -0.00020   0.00000   0.25118   0.25118  -2.34402
         Item               Value     Threshold  Converged?
 Maximum Force            0.005490     0.000450     NO 
 RMS     Force            0.002276     0.000300     NO 
 Maximum Displacement     0.130400     0.001800     NO 
 RMS     Displacement     0.094650     0.001200     NO 
 Predicted change in Energy=-5.858195D-04
 GradGradGradGradGradGradGradGradGradGradGradGradGradGradGradGradGradGrad

                          Input orientation:                          
 ---------------------------------------------------------------------
 Center     Atomic      Atomic             Coordinates (Angstroms)
 Number     Number       Type             X           Y           Z
 ---------------------------------------------------------------------
      1          8           0       -0.594615   -0.228442    0.129553
      2          1           0       -1.469491    0.028530   -1.621095
      3          8           0        0.418284   -0.799484   -0.151168
      4          8           0       -1.708328   -0.091052   -2.549701
      5          1           0       -2.081879    0.744258   -2.844115
 ---------------------------------------------------------------------
                    Distance matrix (angstroms):
                    1          2          3          4          5
     1  O    0.000000
     2  H    1.973882   0.000000
     3  O    1.196185   2.531796   0.000000
     4  O    2.904760   0.966256   3.282882   0.000000
     5  H    3.464217   1.543717   3.985714   0.961230   0.000000
 Stoichiometry    H2O3
 Framework group  C1[X(H2O3)]
 Deg. of freedom     9
 Full point group                 C1      NOp   1
 Largest Abelian subgroup         C1      NOp   1
 Largest concise Abelian subgroup C1      NOp   1
                         Standard orientation:                         
 ---------------------------------------------------------------------
 Center     Atomic      Atomic             Coordinates (Angstroms)
 Number     Number       Type             X           Y           Z
 ---------------------------------------------------------------------
      1          8           0       -0.929386    0.592752   -0.025271
      2          1           0        1.019285    0.280730    0.013868
      3          8           0       -1.385251   -0.511631    0.032896
      4          8           0        1.876692   -0.156515   -0.071704
      5          1           0        2.484279    0.322416    0.498758
 ---------------------------------------------------------------------
 Rotational constants (GHZ):     47.2175952      4.6693635      4.2733777
 Standard basis: 6-31+G(d,p) (6D, 7F)
 There are    67 symmetry adapted basis functions of A   symmetry.
 Integral buffers will be    262144 words long.
 Raffenetti 2 integral format.
 Two-electron integral symmetry is turned on.
    67 basis functions,   110 primitive gaussians,    67 cartesian basis functions
    13 alpha electrons       13 beta electrons
       nuclear repulsion energy        65.5176264506 Hartrees.
 NAtoms=    5 NActive=    5 NUniq=    5 SFac= 7.50D-01 NAtFMM=   80 NAOKFM=F Big=F
 One-electron integrals computed using PRISM.
 NBasis=    67 RedAO= T  NBF=    67
 NBsUse=    67 1.00D-06 NBFU=    67
 Initial guess read from the read-write file.
 B after Tr=     0.000000    0.000000    0.000000
         Rot=    1.000000    0.000000    0.000000    0.000000 Ang=   0.00 deg.
 Initial guess orbital symmetries:
       Occupied  (A) (A) (A) (A) (A) (A) (A) (A) (A) (A) (A) (A)
                 (A)
       Virtual   (A) (A) (A) (A) (A) (A) (A) (A) (A) (A) (A) (A)
                 (A) (A) (A) (A) (A) (A) (A) (A) (A) (A) (A) (A)
                 (A) (A) (A) (A) (A) (A) (A) (A) (A) (A) (A) (A)
                 (A) (A) (A) (A) (A) (A) (A) (A) (A) (A) (A) (A)
                 (A) (A) (A) (A) (A) (A)
 Harris functional with IExCor= 1009 diagonalized for initial guess.
 ExpMin= 8.45D-02 ExpMax= 5.48D+03 ExpMxC= 8.25D+02 IAcc=2 IRadAn=         0 AccDes= 0.00D+00
 HarFok:  IExCor= 1009 AccDes= 0.00D+00 IRadAn=         0 IDoV= 1
 ScaDFX=  1.000000  1.000000  1.000000  1.000000
 FoFCou: FMM=F IPFlag=           0 FMFlag=      100000 FMFlg1=           0
         NFxFlg=           0 DoJE=T BraDBF=F KetDBF=T FulRan=T
         Omega=  0.000000  0.000000  1.000000  0.000000  0.000000 ICntrl=     500 IOpCl=  0
         NMat0=    1 NMatS0=    1 NMatT0=    0 NMatD0=    1 NMtDS0=    0 NMtDT0=    0
         I1Cent=           4 NGrid=           0.
 Petite list used in FoFCou.
 Requested convergence on RMS density matrix=1.00D-08 within 128 cycles.
 Requested convergence on MAX density matrix=1.00D-06.
 Requested convergence on             energy=1.00D-06.
 No special actions if energy rises.
 Keep R1 ints in memory in canonical form, NReq=3551234.
 Integral accuracy reduced to 1.0D-05 until final iterations.
 Initial convergence to 1.0D-05 achieved.  Increase integral accuracy.
 SCF Done:  E(RM062X) =  -226.601674455     A.U. after   28 cycles
             Convg  =    0.1010D-08             -V/T =  2.0081
 Calling FoFJK, ICntrl=      2127 FMM=F ISym2X=0 I1Cent= 0 IOpClX= 0 NMat=1 NMatS=1 NMatT=0.
 ***** Axes restored to original set *****
 -------------------------------------------------------------------
 Center     Atomic                   Forces (Hartrees/Bohr)
 Number     Number              X              Y              Z
 -------------------------------------------------------------------
      1        8           0.002004219   -0.000816414    0.003470547
      2        1          -0.001727064    0.000472473   -0.004366287
      3        8          -0.000534958    0.000200113   -0.000385955
      4        8           0.000477450    0.000243453    0.001564047
      5        1          -0.000219646   -0.000099625   -0.000282353
 -------------------------------------------------------------------
 Cartesian Forces:  Max     0.004366287 RMS     0.001680181

 GradGradGradGradGradGradGradGradGradGradGradGradGradGradGradGradGradGrad
 Berny optimization.
 Internal  Forces:  Max     0.003490037 RMS     0.001346001
 Search for a saddle point.
 Step number   7 out of a maximum of   20
 All quantities printed in internal units (Hartrees-Bohrs-Radians)
 Swaping is turned off.
 Update second derivatives using D2CorX and points    5    6    7
 The second derivative matrix:
                          R1        R2        R3        R4        A1
           R1           0.01141
           R2           0.00017   0.90384
           R3          -0.00251   0.01139   0.33434
           R4           0.00032  -0.00110  -0.00608   0.56514
           A1           0.00271   0.00860   0.00144  -0.00083   0.03697
           A2           0.00547  -0.00211   0.02249   0.01644  -0.00392
           A3           0.00296  -0.00663   0.00460   0.00071  -0.01851
           A4           0.00139  -0.00026  -0.00161   0.00001  -0.00066
           D1           0.00367   0.00011   0.01232  -0.00017   0.00243
                          A2        A3        A4        D1
           A2           0.11378
           A3           0.00951   0.01685
           A4           0.00037  -0.00026   0.00506
           D1          -0.00155  -0.00081   0.00125  -0.00175
     Eigenvalues ---   -0.00349   0.00307   0.00574   0.01380   0.04702
     Eigenvalues ---    0.11255   0.33686   0.56586   0.90421
 Eigenvectors required to have negative eigenvalues:
                          D1        R1        A4        A3        R3
   1                    0.95856  -0.25253  -0.10656   0.05965  -0.03999
                          A2        A1        R2        R4
   1                    0.02739  -0.01136   0.00101  -0.00087
 RFO step:  Lambda0=2.505171901D-04 Lambda=-1.68688564D-03.
 Linear search not attempted -- option 19 set.
 Maximum step size (   0.300) exceeded in Quadratic search.
    -- Step size scaled by   0.503
 Iteration  1 RMS(Cart)=  0.12191694 RMS(Int)=  0.01163045
 Iteration  2 RMS(Cart)=  0.01047481 RMS(Int)=  0.00002165
 Iteration  3 RMS(Cart)=  0.00002075 RMS(Int)=  0.00000000
 Iteration  4 RMS(Cart)=  0.00000000 RMS(Int)=  0.00000000
 Variable       Old X    -DE/DX   Delta X   Delta X   Delta X     New X
                                 (Linear)    (Quad)   (Total)
    R1        3.73010   0.00349   0.00000   0.14169   0.14169   3.87179
    R2        2.26046  -0.00051   0.00000  -0.00032  -0.00032   2.26014
    R3        1.82596  -0.00126   0.00000  -0.00574  -0.00574   1.82022
    R4        1.81646   0.00005   0.00000  -0.00026  -0.00026   1.81620
    A1        1.80218  -0.00107   0.00000  -0.10192  -0.10192   1.70026
    A2        1.85758   0.00071   0.00000   0.00823   0.00823   1.86580
    A3        2.82656  -0.00069   0.00000  -0.13935  -0.13935   2.68721
    A4        2.96675  -0.00036   0.00000  -0.10838  -0.10838   2.85837
    D1       -2.34402  -0.00017   0.00000   0.16814   0.16814  -2.17588
         Item               Value     Threshold  Converged?
 Maximum Force            0.003490     0.000450     NO 
 RMS     Force            0.001346     0.000300     NO 
 Maximum Displacement     0.177935     0.001800     NO 
 RMS     Displacement     0.122848     0.001200     NO 
 Predicted change in Energy=-6.002922D-04
 GradGradGradGradGradGradGradGradGradGradGradGradGradGradGradGradGradGrad

                          Input orientation:                          
 ---------------------------------------------------------------------
 Center     Atomic      Atomic             Coordinates (Angstroms)
 Number     Number       Type             X           Y           Z
 ---------------------------------------------------------------------
      1          8           0       -0.591598   -0.283942    0.203243
      2          1           0       -1.528247    0.091084   -1.579979
      3          8           0        0.408810   -0.761870   -0.245327
      4          8           0       -1.699060   -0.101428   -2.508177
      5          1           0       -2.025935    0.709967   -2.906287
 ---------------------------------------------------------------------
                    Distance matrix (angstroms):
                    1          2          3          4          5
     1  O    0.000000
     2  H    2.048863   0.000000
     3  O    1.196013   2.502203   0.000000
     4  O    2.934549   0.963217   3.162244   0.000000
     5  H    3.565719   1.545898   3.895510   0.961094   0.000000
 Stoichiometry    H2O3
 Framework group  C1[X(H2O3)]
 Deg. of freedom     9
 Full point group                 C1      NOp   1
 Largest Abelian subgroup         C1      NOp   1
 Largest concise Abelian subgroup C1      NOp   1
                         Standard orientation:                         
 ---------------------------------------------------------------------
 Center     Atomic      Atomic             Coordinates (Angstroms)
 Number     Number       Type             X           Y           Z
 ---------------------------------------------------------------------
      1          8           0       -0.999018    0.604319   -0.019078
      2          1           0        1.035007    0.376767    0.074726
      3          8           0       -1.286537   -0.555626    0.028959
      4          8           0        1.843619   -0.121279   -0.086162
      5          1           0        2.500478    0.203927    0.535513
 ---------------------------------------------------------------------
 Rotational constants (GHZ):     43.6097227      4.8421351      4.3887176
 Standard basis: 6-31+G(d,p) (6D, 7F)
 There are    67 symmetry adapted basis functions of A   symmetry.
 Integral buffers will be    262144 words long.
 Raffenetti 2 integral format.
 Two-electron integral symmetry is turned on.
    67 basis functions,   110 primitive gaussians,    67 cartesian basis functions
    13 alpha electrons       13 beta electrons
       nuclear repulsion energy        65.7419592033 Hartrees.
 NAtoms=    5 NActive=    5 NUniq=    5 SFac= 7.50D-01 NAtFMM=   80 NAOKFM=F Big=F
 One-electron integrals computed using PRISM.
 NBasis=    67 RedAO= T  NBF=    67
 NBsUse=    67 1.00D-06 NBFU=    67
 Initial guess read from the read-write file.
 B after Tr=     0.000000    0.000000    0.000000
         Rot=    1.000000    0.000000    0.000000    0.000000 Ang=   0.00 deg.
 Initial guess orbital symmetries:
       Occupied  (A) (A) (A) (A) (A) (A) (A) (A) (A) (A) (A) (A)
                 (A)
       Virtual   (A) (A) (A) (A) (A) (A) (A) (A) (A) (A) (A) (A)
                 (A) (A) (A) (A) (A) (A) (A) (A) (A) (A) (A) (A)
                 (A) (A) (A) (A) (A) (A) (A) (A) (A) (A) (A) (A)
                 (A) (A) (A) (A) (A) (A) (A) (A) (A) (A) (A) (A)
                 (A) (A) (A) (A) (A) (A)
 Harris functional with IExCor= 1009 diagonalized for initial guess.
 ExpMin= 8.45D-02 ExpMax= 5.48D+03 ExpMxC= 8.25D+02 IAcc=2 IRadAn=         0 AccDes= 0.00D+00
 HarFok:  IExCor= 1009 AccDes= 0.00D+00 IRadAn=         0 IDoV= 1
 ScaDFX=  1.000000  1.000000  1.000000  1.000000
 FoFCou: FMM=F IPFlag=           0 FMFlag=      100000 FMFlg1=           0
         NFxFlg=           0 DoJE=T BraDBF=F KetDBF=T FulRan=T
         Omega=  0.000000  0.000000  1.000000  0.000000  0.000000 ICntrl=     500 IOpCl=  0
         NMat0=    1 NMatS0=    1 NMatT0=    0 NMatD0=    1 NMtDS0=    0 NMtDT0=    0
         I1Cent=           4 NGrid=           0.
 Petite list used in FoFCou.
 Requested convergence on RMS density matrix=1.00D-08 within 128 cycles.
 Requested convergence on MAX density matrix=1.00D-06.
 Requested convergence on             energy=1.00D-06.
 No special actions if energy rises.
 Keep R1 ints in memory in canonical form, NReq=3551234.
 Integral accuracy reduced to 1.0D-05 until final iterations.
 Initial convergence to 1.0D-05 achieved.  Increase integral accuracy.
 SCF Done:  E(RM062X) =  -226.602005755     A.U. after   27 cycles
             Convg  =    0.3440D-08             -V/T =  2.0081
 Calling FoFJK, ICntrl=      2127 FMM=F ISym2X=0 I1Cent= 0 IOpClX= 0 NMat=1 NMatS=1 NMatT=0.
 ***** Axes restored to original set *****
 -------------------------------------------------------------------
 Center     Atomic                   Forces (Hartrees/Bohr)
 Number     Number              X              Y              Z
 -------------------------------------------------------------------
      1        8           0.000362395   -0.000197610    0.001406297
      2        1          -0.000855705    0.001268073   -0.001010097
      3        8           0.000640059   -0.000364789    0.000172297
      4        8           0.000037094   -0.000870789   -0.000867400
      5        1          -0.000183844    0.000165115    0.000298903
 -------------------------------------------------------------------
[...]
           R1           0.00653
           R2          -0.00071   0.90439
           R3           0.00414   0.01070   0.34547
           R4           0.00061  -0.00119  -0.00551   0.56508
           A1           0.00244   0.00932   0.00672  -0.00073   0.04421
           A2           0.00351  -0.00228   0.02052   0.01643  -0.00554
           A3           0.00970  -0.00700   0.00932   0.00096  -0.01145
           A4           0.00406   0.00065  -0.01028   0.00056   0.00480
           D1          -0.00047  -0.00128   0.00924  -0.00052  -0.00116
                          A2        A3        A4        D1
           A2           0.11582
           A3           0.00840   0.02355
           A4          -0.00028   0.00234   0.00797
           D1          -0.00165  -0.00172   0.00300   0.00047
     Eigenvalues ---   -0.00189   0.00053   0.00782   0.02522   0.04837
     Eigenvalues ---    0.11487   0.34804   0.56579   0.90477
 Eigenvectors required to have negative eigenvalues:
                          D1        A4        R1        A3        A1
   1                    0.87956  -0.43425   0.12311   0.10777   0.09493
                          R3        A2        R2        R4
   1                   -0.04319   0.01191   0.00205   0.00028
 RFO step:  Lambda0=7.874513479D-05 Lambda=-1.92797242D-04.
 Linear search not attempted -- option 19 set.
 Maximum step size (   0.300) exceeded in Quadratic search.
    -- Step size scaled by   0.689
 Iteration  1 RMS(Cart)=  0.07986051 RMS(Int)=  0.02061504
 Iteration  2 RMS(Cart)=  0.01680971 RMS(Int)=  0.00003690
 Iteration  3 RMS(Cart)=  0.00003287 RMS(Int)=  0.00000000
 Iteration  4 RMS(Cart)=  0.00000000 RMS(Int)=  0.00000000
 Variable       Old X    -DE/DX   Delta X   Delta X   Delta X     New X
                                 (Linear)    (Quad)   (Total)
    R1        5.18138   0.00022   0.00000   0.24291   0.24291   5.42429
    R2        2.26075  -0.00032   0.00000  -0.00033  -0.00033   2.26042
    R3        1.81625   0.00161   0.00000  -0.00040  -0.00040   1.81585
    R4        1.81763  -0.00013   0.00000  -0.00013  -0.00013   1.81750
    A1        1.52876  -0.00032   0.00000  -0.03960  -0.03960   1.48916
    A2        1.85749  -0.00012   0.00000   0.00005   0.00005   1.85754
    A3        1.82236  -0.00038   0.00000  -0.11568  -0.11568   1.70669
    A4        1.44261   0.00071   0.00000  -0.04952  -0.04952   1.39309
    D1        1.45515   0.00003   0.00000   0.11659   0.11659   1.57174
         Item               Value     Threshold  Converged?
 Maximum Force            0.001609     0.000450     NO 
 RMS     Force            0.000626     0.000300     NO 
 Maximum Displacement     0.134006     0.001800     NO 
 RMS     Displacement     0.080841     0.001200     NO 
 Predicted change in Energy=-5.761201D-05
 GradGradGradGradGradGradGradGradGradGradGradGradGradGradGradGradGradGrad

                          Input orientation:                          
 ---------------------------------------------------------------------
 Center     Atomic      Atomic             Coordinates (Angstroms)
 Number     Number       Type             X           Y           Z
 ---------------------------------------------------------------------
      1          8           0       -0.653579   -0.784748    0.247868
      2          1           0       -1.481707    0.980213   -1.858878
      3          8           0        0.418951   -0.753971   -0.280845
      4          8           0       -1.671686    0.078334   -2.130662
      5          1           0       -2.048007    0.133983   -3.014010
 ---------------------------------------------------------------------
                    Distance matrix (angstroms):
                    1          2          3          4          5
     1  O    0.000000
     2  H    2.870412   0.000000
     3  O    1.196163   3.018291   0.000000
     4  O    2.727427   0.960908   2.912956   0.000000
     5  H    3.664471   1.539847   3.787418   0.961779   0.000000
 Stoichiometry    H2O3
 Framework group  C1[X(H2O3)]
 Deg. of freedom     9
 Full point group                 C1      NOp   1
 Largest Abelian subgroup         C1      NOp   1
 Largest concise Abelian subgroup C1      NOp   1
                         Standard orientation:                         
 ---------------------------------------------------------------------
 Center     Atomic      Atomic             Coordinates (Angstroms)
 Number     Number       Type             X           Y           Z
 ---------------------------------------------------------------------
      1          8           0       -0.995865    0.606836   -0.007241
      2          1           0        1.641780   -0.070099    0.900423
      3          8           0       -1.192624   -0.573033   -0.006932
      4          8           0        1.662848    0.000569   -0.057651
      5          1           0        2.563345   -0.204876   -0.325825
 ---------------------------------------------------------------------
 Rotational constants (GHZ):     41.5951225      5.4453661      4.9054232
 Standard basis: 6-31+G(d,p) (6D, 7F)
 There are    67 symmetry adapted basis functions of A   symmetry.
 Integral buffers will be    262144 words long.
 Raffenetti 2 integral format.
 Two-electron integral symmetry is turned on.
    67 basis functions,   110 primitive gaussians,    67 cartesian basis functions
    13 alpha electrons       13 beta electrons
       nuclear repulsion energy        66.6584890484 Hartrees.
 NAtoms=    5 NActive=    5 NUniq=    5 SFac= 7.50D-01 NAtFMM=   80 NAOKFM=F Big=F
 One-electron integrals computed using PRISM.
 NBasis=    67 RedAO= T  NBF=    67
 NBsUse=    67 1.00D-06 NBFU=    67
 Initial guess read from the read-write file.
 B after Tr=     0.000000    0.000000    0.000000
         Rot=    1.000000    0.000000    0.000000    0.000000 Ang=   0.00 deg.
 Initial guess orbital symmetries:
       Occupied  (A) (A) (A) (A) (A) (A) (A) (A) (A) (A) (A) (A)
                 (A)
       Virtual   (A) (A) (A) (A) (A) (A) (A) (A) (A) (A) (A) (A)
                 (A) (A) (A) (A) (A) (A) (A) (A) (A) (A) (A) (A)
                 (A) (A) (A) (A) (A) (A) (A) (A) (A) (A) (A) (A)
                 (A) (A) (A) (A) (A) (A) (A) (A) (A) (A) (A) (A)
                 (A) (A) (A) (A) (A) (A)
 Harris functional with IExCor= 1009 diagonalized for initial guess.
 ExpMin= 8.45D-02 ExpMax= 5.48D+03 ExpMxC= 8.25D+02 IAcc=2 IRadAn=         0 AccDes= 0.00D+00
 HarFok:  IExCor= 1009 AccDes= 0.00D+00 IRadAn=         0 IDoV= 1
 ScaDFX=  1.000000  1.000000  1.000000  1.000000
 FoFCou: FMM=F IPFlag=           0 FMFlag=      100000 FMFlg1=           0
         NFxFlg=           0 DoJE=T BraDBF=F KetDBF=T FulRan=T
         Omega=  0.000000  0.000000  1.000000  0.000000  0.000000 ICntrl=     500 IOpCl=  0
         NMat0=    1 NMatS0=    1 NMatT0=    0 NMatD0=    1 NMtDS0=    0 NMtDT0=    0
         I1Cent=           4 NGrid=           0.
 Petite list used in FoFCou.
 Requested convergence on RMS density matrix=1.00D-08 within 128 cycles.
 Requested convergence on MAX density matrix=1.00D-06.
 Requested convergence on             energy=1.00D-06.
 No special actions if energy rises.
 Keep R1 ints in memory in canonical form, NReq=3550937.
 Integral accuracy reduced to 1.0D-05 until final iterations.
 Initial convergence to 1.0D-05 achieved.  Increase integral accuracy.
 SCF Done:  E(RM062X) =  -226.603172482     A.U. after   26 cycles
             Convg  =    0.6177D-08             -V/T =  2.0081
 Calling FoFJK, ICntrl=      2127 FMM=F ISym2X=0 I1Cent= 0 IOpClX= 0 NMat=1 NMatS=1 NMatT=0.
 ***** Axes restored to original set *****
 -------------------------------------------------------------------
 Center     Atomic                   Forces (Hartrees/Bohr)
 Number     Number              X              Y              Z
 -------------------------------------------------------------------
      1        8           0.000358070    0.000011765    0.000270862
      2        1          -0.000024044    0.001901854    0.000280901
      3        8          -0.000441001   -0.000163975   -0.000071836
      4        8           0.000308586   -0.001779121   -0.000554649
      5        1          -0.000201611    0.000029476    0.000074723
 -------------------------------------------------------------------
 Cartesian Forces:  Max     0.001901854 RMS     0.000718332

 GradGradGradGradGradGradGradGradGradGradGradGradGradGradGradGradGradGrad
 Berny optimization.
 Internal  Forces:  Max     0.001734200 RMS     0.000647739
 Search for a saddle point.
 Step number  20 out of a maximum of   20
 All quantities printed in internal units (Hartrees-Bohrs-Radians)
 Swaping is turned off.
 Update second derivatives using D2CorX and points   17   18   19   20
 The second derivative matrix:
                          R1        R2        R3        R4        A1
           R1           0.00676
           R2          -0.00029   0.90438
           R3           0.00048   0.01078   0.34500
           R4           0.00045  -0.00120  -0.00550   0.56508
           A1           0.00301   0.00924   0.00744  -0.00070   0.04399
           A2           0.00369  -0.00228   0.02049   0.01643  -0.00557
           A3           0.01069  -0.00722   0.01114   0.00103  -0.01193
           A4           0.00316   0.00064  -0.01012   0.00058   0.00493
           D1          -0.00065  -0.00119   0.00841  -0.00056  -0.00099
                          A2        A3        A4        D1
           A2           0.11583
           A3           0.00833   0.02254
           A4          -0.00030   0.00269   0.00805
           D1          -0.00161  -0.00139   0.00282   0.00040
     Eigenvalues ---   -0.00175  -0.00024   0.00733   0.02530   0.04836
     Eigenvalues ---    0.11488   0.34761   0.56579   0.90476
 Eigenvectors required to have negative eigenvalues:
                          D1        A4        A3        R1        A1
   1                    0.86391  -0.38314   0.24618  -0.15440   0.14264
                          R3        A2        R2        R4
   1                   -0.04372   0.01267   0.00242   0.00032
 RFO step:  Lambda0=8.904574049D-05 Lambda=-5.50413980D-04.
 Linear search not attempted -- option 19 set.
 Maximum step size (   0.300) exceeded in Quadratic search.
    -- Step size scaled by   0.292
 Iteration  1 RMS(Cart)=  0.08460379 RMS(Int)=  0.01596433
 Iteration  2 RMS(Cart)=  0.01298705 RMS(Int)=  0.00004859
 Iteration  3 RMS(Cart)=  0.00004396 RMS(Int)=  0.00000000
 Iteration  4 RMS(Cart)=  0.00000000 RMS(Int)=  0.00000000
 Variable       Old X    -DE/DX   Delta X   Delta X   Delta X     New X
                                 (Linear)    (Quad)   (Total)
    R1        5.42429   0.00017   0.00000   0.23020   0.23020   5.65450
    R2        2.26042  -0.00024   0.00000  -0.00034  -0.00034   2.26008
    R3        1.81585   0.00173   0.00000   0.00117   0.00117   1.81702
    R4        1.81750   0.00002   0.00000   0.00017   0.00017   1.81767
    A1        1.48916  -0.00033   0.00000  -0.04144  -0.04144   1.44771
    A2        1.85754  -0.00010   0.00000   0.00065   0.00065   1.85818
    A3        1.70669  -0.00054   0.00000  -0.12092  -0.12092   1.58577
    A4        1.39309   0.00052   0.00000  -0.04962  -0.04962   1.34347
    D1        1.57174   0.00009   0.00000   0.13492   0.13492   1.70666
         Item               Value     Threshold  Converged?
 Maximum Force            0.001734     0.000450     NO 
 RMS     Force            0.000648     0.000300     NO 
 Maximum Displacement     0.127252     0.001800     NO 
 RMS     Displacement     0.085394     0.001200     NO 
 Predicted change in Energy=-1.173854D-04
 Optimization stopped.
    -- Number of steps exceeded,  NStep=  20
    -- Flag reset to prevent archiving.
                           ----------------------------
                           ! Non-Optimized Parameters !
                           ! (Angstroms and Degrees)  !
 --------------------------                            --------------------------
 ! Name  Definition              Value          Derivative Info.                !
 --------------------------------------------------------------------------------
 ! R1    R(1,2)                  2.9922         -DE/DX =    0.0002              !
 ! R2    R(1,3)                  1.196          -DE/DX =   -0.0002              !
 ! R3    R(2,4)                  0.9615         -DE/DX =    0.0017              !
 ! R4    R(4,5)                  0.9619         -DE/DX =    0.0                 !
 ! A1    A(2,1,3)               82.9478         -DE/DX =   -0.0003              !
 ! A2    A(2,4,5)              106.4661         -DE/DX =   -0.0001              !
 ! A3    L(1,2,4,3,-1)          90.8578         -DE/DX =   -0.0005              !
 ! A4    L(1,2,4,3,-2)          76.9751         -DE/DX =    0.0005              !
 ! D1    D(3,1,4,5)             97.7845         -DE/DX =    0.0001              !
 --------------------------------------------------------------------------------
 GradGradGradGradGradGradGradGradGradGradGradGradGradGradGradGradGradGrad

                          Input orientation:                          
 ---------------------------------------------------------------------
 Center     Atomic      Atomic             Coordinates (Angstroms)
 Number     Number       Type             X           Y           Z
 ---------------------------------------------------------------------
      1          8           0       -0.653579   -0.784748    0.247868
      2          1           0       -1.481707    0.980213   -1.858878
      3          8           0        0.418951   -0.753971   -0.280845
      4          8           0       -1.671686    0.078334   -2.130662
      5          1           0       -2.048007    0.133983   -3.014010
 ---------------------------------------------------------------------
                    Distance matrix (angstroms):
                    1          2          3          4          5
     1  O    0.000000
     2  H    2.870412   0.000000
     3  O    1.196163   3.018291   0.000000
     4  O    2.727427   0.960908   2.912956   0.000000
     5  H    3.664471   1.539847   3.787418   0.961779   0.000000
 Stoichiometry    H2O3
 Framework group  C1[X(H2O3)]
 Deg. of freedom     9
 Full point group                 C1      NOp   1
 Largest Abelian subgroup         C1      NOp   1
 Largest concise Abelian subgroup C1      NOp   1
                         Standard orientation:                         
 ---------------------------------------------------------------------
 Center     Atomic      Atomic             Coordinates (Angstroms)
 Number     Number       Type             X           Y           Z
 ---------------------------------------------------------------------
      1          8           0       -0.995865    0.606836   -0.007241
      2          1           0        1.641780   -0.070099    0.900423
      3          8           0       -1.192624   -0.573033   -0.006932
      4          8           0        1.662848    0.000569   -0.057651
      5          1           0        2.563345   -0.204876   -0.325825
 ---------------------------------------------------------------------
 Rotational constants (GHZ):     41.5951225      5.4453661      4.9054232

 **********************************************************************

            Population analysis using the SCF density.

 **********************************************************************

 Orbital symmetries:
       Occupied  (A) (A) (A) (A) (A) (A) (A) (A) (A) (A) (A) (A)
                 (A)
       Virtual   (A) (A) (A) (A) (A) (A) (A) (A) (A) (A) (A) (A)
                 (A) (A) (A) (A) (A) (A) (A) (A) (A) (A) (A) (A)
                 (A) (A) (A) (A) (A) (A) (A) (A) (A) (A) (A) (A)
                 (A) (A) (A) (A) (A) (A) (A) (A) (A) (A) (A) (A)
                 (A) (A) (A) (A) (A) (A)
 The electronic state is 1-A.
 Alpha  occ. eigenvalues --  -19.79646 -19.79510 -19.65654  -1.41772  -1.14171
 Alpha  occ. eigenvalues --   -0.89851  -0.62347  -0.60831  -0.60570  -0.58455
 Alpha  occ. eigenvalues --   -0.47387  -0.40379  -0.32405
 Alpha virt. eigenvalues --   -0.09976   0.06003   0.11225   0.11685   0.13845
 Alpha virt. eigenvalues --    0.18398   0.19395   0.20055   0.21570   0.23434
 Alpha virt. eigenvalues --    0.26594   0.27242   0.29511   0.34467   0.36669
 Alpha virt. eigenvalues --    0.38507   0.97878   1.04952   1.07914   1.10599
 Alpha virt. eigenvalues --    1.14306   1.14772   1.17485   1.18976   1.21373
 Alpha virt. eigenvalues --    1.21766   1.24953   1.27433   1.44257   1.56221
 Alpha virt. eigenvalues --    1.57780   1.58705   1.59561   1.60677   1.67105
 Alpha virt. eigenvalues --    1.69107   1.71988   2.00363   2.00891   2.28705
 Alpha virt. eigenvalues --    2.28879   2.58231   2.58909   2.64663   2.66927
 Alpha virt. eigenvalues --    2.67368   2.68348   2.99233   3.05961   3.38749
 Alpha virt. eigenvalues --    3.54837   3.74789   4.07489   4.12780
          Condensed to atoms (all electrons):
              1          2          3          4          5
     1  O    7.675179   0.004304   0.311851  -0.023442   0.001976
     2  H    0.004304   0.362433  -0.000718   0.291770  -0.022592
     3  O    0.311851  -0.000718   7.702985   0.001405  -0.000261
     4  O   -0.023442   0.291770   0.001405   8.216577   0.288407
     5  H    0.001976  -0.022592  -0.000261   0.288407   0.337427
 Mulliken atomic charges:
              1
     1  O    0.030133
     2  H    0.364804
     3  O   -0.015263
     4  O   -0.774717
     5  H    0.395043
 Sum of Mulliken atomic charges =   0.00000
 Mulliken charges with hydrogens summed into heavy atoms:
              1
     1  O    0.030133
     3  O   -0.015263
     4  O   -0.014870
 Sum of Mulliken charges with hydrogens summed into heavy atoms =   0.00000
 Electronic spatial extent (au):  <R**2>=            237.0854
 Charge=              0.0000 electrons
 Dipole moment (field-independent basis, Debye):
    X=              1.8010    Y=             -0.4860    Z=              1.2622  Tot=              2.2523
 Quadrupole moment (field-independent basis, Debye-Ang):
   XX=             -9.5619   YY=            -18.3503   ZZ=            -15.9268
   XY=             -1.6053   XZ=              0.7504   YZ=              0.1092
 Traceless Quadrupole moment (field-independent basis, Debye-Ang):
   XX=              5.0511   YY=             -3.7373   ZZ=             -1.3138
   XY=             -1.6053   XZ=              0.7504   YZ=              0.1092
 Octapole moment (field-independent basis, Debye-Ang**2):
  XXX=             18.9413  YYY=             -0.1804  ZZZ=              1.9902  XYY=             -1.2371
  XXY=             -3.0944  XXZ=              1.4174  XZZ=              3.4245  YZZ=             -0.2237
  YYZ=              0.1987  XYZ=              0.0556
 Hexadecapole moment (field-independent basis, Debye-Ang**3):
 XXXX=           -138.9019 YYYY=            -36.0858 ZZZZ=            -14.5567 XXXY=            -10.2797
 XXXZ=             -6.9168 YYYX=             -0.7361 YYYZ=              0.2792 ZZZX=              2.4520
 ZZZY=             -0.0328 XXYY=            -43.4116 XXZZ=            -32.6469 YYZZ=             -9.5512
 XXYZ=              0.6876 YYXZ=             -0.2659 ZZXY=             -0.6678
 N-N= 6.665848904838D+01 E-N=-6.681932697448D+02  KE= 2.247855252124D+02


 ON INDUCTION, OR "WHY DO YOU BELIEVE THE SUN WILL RISE TOMORROW?":

 ... THE FARMER WHO HAS FED THE CHICKEN EVERY DAY THROUGHOUT ITS
 LIFE AT LAST WRINGS ITS NECK INSTEAD, SHOWING THAT MORE REFINED VIEWS
 AS TO THE UNIFORMITY OF NATURE WOULD HAVE BEEN USEFUL TO THE CHICKEN.

                               -- BERTRAND RUSSELL
 Error termination request processed by link 9999.
 Error termination via Lnk1e in C:\G09W\l9999.exe at Mon Feb 08 05:51:15 2021.
 Job cpu time:  0 days  0 hours  2 minutes  0.0 seconds.
 File lengths (MBytes):  RWF=      6 Int=      0 D2E=      0 Chk=      1 Scr=      1
