 Entering Link 1 = C:\G09W\l1.exe PID=     16308.
  
 Copyright (c) 1988,1990,1992,1993,1995,1998,2003,2009, Gaussian, Inc.
                  All Rights Reserved.
  
 This is part of the Gaussian(R) 09 program.  It is based on
 the Gaussian(R) 03 system (copyright 2003, Gaussian, Inc.),
 the Gaussian(R) 98 system (copyright 1998, Gaussian, Inc.),
 the Gaussian(R) 94 system (copyright 1995, Gaussian, Inc.),
 the Gaussian 92(TM) system (copyright 1992, Gaussian, Inc.),
 the Gaussian 90(TM) system (copyright 1990, Gaussian, Inc.),
 the Gaussian 88(TM) system (copyright 1988, Gaussian, Inc.),
 the Gaussian 86(TM) system (copyright 1986, Carnegie Mellon
 University), and the Gaussian 82(TM) system (copyright 1983,
 Carnegie Mellon University). Gaussian is a federally registered
 trademark of Gaussian, Inc.
  
 This software contains proprietary and confidential information,
 including trade secrets, belonging to Gaussian, Inc.
  
 This software is provided under written license and may be
 used, copied, transmitted, or stored only in accord with that
 written license.
  
 The following legend is applicable only to US Government
 contracts under FAR:
  
                    RESTRICTED RIGHTS LEGEND
  
 Use, reproduction and disclosure by the US Government is
 subject to restrictions as set forth in subparagraphs (a)
 and (c) of the Commercial Computer Software - Restricted
 Rights clause in FAR 52.227-19.
  
 Gaussian, Inc.
 340 Quinnipiac St., Bldg. 40, Wallingford CT 06492
  
  
 ---------------------------------------------------------------
 Warning -- This program may not be used in any manner that
 competes with the business of Gaussian, Inc. or will provide
 assistance to any competitor of Gaussian, Inc.  The licensee
 of this program is prohibited from giving any competitor of
 Gaussian, Inc. access to this program.  By using this program,
 the user acknowledges that Gaussian, Inc. is engaged in the
 business of creating and licensing software in the field of
 computational chemistry and represents and warrants to the
 licensee that it is not a competitor of Gaussian, Inc. and that
 it will not use this program in any manner prohibited above.
 ---------------------------------------------------------------
  

 Cite this work as:
 Gaussian 09, Revision A.02,
 M. J. Frisch, G. W. Trucks, H. B. Schlegel, G. E. Scuseria, 
 M. A. Robb, J. R. Cheeseman, G. Scalmani, V. Barone, B. Mennucci, 
 G. A. Petersson, H. Nakatsuji, M. Caricato, X. Li, H. P. Hratchian, 
 A. F. Izmaylov, J. Bloino, G. Zheng, J. L. Sonnenberg, M. Hada, 
 M. Ehara, K. Toyota, R. Fukuda, J. Hasegawa, M. Ishida, T. Nakajima, 
 Y. Honda, O. Kitao, H. Nakai, T. Vreven, J. A. Montgomery, Jr., 
 J. E. Peralta, F. Ogliaro, M. Bearpark, J. J. Heyd, E. Brothers, 
 K. N. Kudin, V. N. Staroverov, R. Kobayashi, J. Normand, 
 K. Raghavachari, A. Rendell, J. C. Burant, S. S. Iyengar, J. Tomasi, 
 M. Cossi, N. Rega, J. M. Millam, M. Klene, J. E. Knox, J. B. Cross, 
 V. Bakken, C. Adamo, J. Jaramillo, R. Gomperts, R. E. Stratmann, 
 O. Yazyev, A. J. Austin, R. Cammi, C. Pomelli, J. W. Ochterski, 
 R. L. Martin, K. Morokuma, V. G. Zakrzewski, G. A. Voth, 
 P. Salvador, J. J. Dannenberg, S. Dapprich, A. D. Daniels, 
 O. Farkas, J. B. Foresman, J. V. Ortiz, J. Cioslowski, 
 and D. J. Fox, Gaussian, Inc., Wallingford CT, 2009.
 
 ******************************************
 Gaussian 09:  IA32W-G09RevA.02 11-Jun-2009
                08-Feb-2021 
 ******************************************
 %chk=D:\Documents\rayGit\FQ\quimicaComputacional\proyecto\decompositionHydrogenP
 eroxide\descompositionByRadicals\gasPhase\step4\ts\tsM062X.chk
 %mem=1500MB
 %nprocshared=4
 Will use up to    4 processors via shared memory.
 ----------------------------------------------------------------------
 # opt=(readfc,ts,noeigen) geom=check guess=check freq=noraman 6-31+g(d
 ,p) m062x
 ----------------------------------------------------------------------
 1/5=1,10=3,11=1,14=-1,18=20,26=3,29=2,38=1/1,3;
 2/9=110,12=2,40=1/2;
 3/5=1,6=6,7=111,11=2,14=-4,16=1,25=1,30=1,71=1,74=-55,116=-2/1,2,3;
 4/5=1/1;
 5/5=2,38=6/2;
 6/7=2,8=2,9=2,10=2,28=1/1;
 7//1,2,3,16;
 1/5=1,11=1,14=-1,18=20/3(2);
 2/9=110/2;
 99//99;
 2/9=110/2;
 3/5=1,6=6,7=111,11=2,14=-2,16=1,25=1,30=1,71=1,74=-55/1,2,3;
 4/5=5,16=3/1;
 5/5=2,38=5/2;
 7//1,2,3,16;
 1/5=1,11=1,14=-1,18=20/3(-5);
 2/9=110/2;
 6/7=2,8=2,9=2,10=2,19=2,28=1/1;
 99/9=1/99;
 ---
 ts2
 ---
 Redundant internal coordinates taken from checkpoint file:
 D:\Documents\rayGit\FQ\quimicaComputacional\proyecto\decompositionHydrogenPeroxide\descompositionByRadicals\gasPhase\step4\ts\tsM062X.chk
 Charge =  0 Multiplicity = 1
 O,0,-0.3238341149,-0.6920749295,0.5448018676
 H,0,-1.9617463556,1.205261282,-2.0571168265
 O,0,0.0707013384,-1.2047809591,-0.4606185058
 O,0,-1.6015723497,0.3134339422,-2.0719435193
 H,0,-1.6195771882,0.0319721144,-2.9916494059
 Recover connectivity data from disk.

 GradGradGradGradGradGradGradGradGradGradGradGradGradGradGradGradGradGrad
 Berny optimization.
 Initialization pass.
 Force constant matrix read from checkpoint file:
 D:\Documents\rayGit\FQ\quimicaComputacional\proyecto\decompositionHydrogenPeroxi
 de\descompositionByRadicals\gasPhase\step4\ts\tsM062X.chk
                           ----------------------------
                           !    Initial Parameters    !
                           ! (Angstroms and Degrees)  !
 --------------------------                            --------------------------
 ! Name  Definition              Value          Derivative Info.                !
 --------------------------------------------------------------------------------
 ! R1    R(1,2)                  3.6128         D2E/DX2 =    0.0068             !
 ! R2    R(1,3)                  1.1956         D2E/DX2 =    0.9048             !
 ! R3    R(2,4)                  0.9619         D2E/DX2 =    0.4218             !
 ! R4    R(4,5)                  0.962          D2E/DX2 =    0.5648             !
 ! A1    A(2,1,3)               76.6543         D2E/DX2 =    0.0278             !
 ! A2    A(2,4,5)              106.2001         D2E/DX2 =    0.1247             !
 ! A3    L(1,2,4,3,-1)          52.0075         D2E/DX2 =    0.0233             !
 ! A4    L(1,2,4,3,-2)         146.2831         D2E/DX2 =    0.0025             !
 ! D1    D(3,1,4,5)             12.0039         D2E/DX2 =    0.0018             !
 --------------------------------------------------------------------------------
 Trust Radius=3.00D-01 FncErr=1.00D-07 GrdErr=1.00D-06
 Number of steps in this run=  20 maximum allowed number of steps= 100.
 Search for a saddle point of order  1.
 GradGradGradGradGradGradGradGradGradGradGradGradGradGradGradGradGradGrad

                          Input orientation:                          
 ---------------------------------------------------------------------
 Center     Atomic      Atomic             Coordinates (Angstroms)
 Number     Number       Type             X           Y           Z
 ---------------------------------------------------------------------
      1          8           0       -0.323834   -0.692075    0.544802
      2          1           0       -1.961746    1.205261   -2.057117
      3          8           0        0.070701   -1.204781   -0.460619
      4          8           0       -1.601572    0.313434   -2.071944
      5          1           0       -1.619577    0.031972   -2.991649
 ---------------------------------------------------------------------
                    Distance matrix (angstroms):
                    1          2          3          4          5
     1  O    0.000000
     2  H    3.612841   0.000000
     3  O    1.195573   3.533830   0.000000
     4  O    3.080750   0.961926   2.774499   0.000000
     5  H    3.835320   1.538518   3.285227   0.961979   0.000000
 Stoichiometry    H2O3
 Framework group  C1[X(H2O3)]
 Deg. of freedom     9
 Full point group                 C1      NOp   1
 Largest Abelian subgroup         C1      NOp   1
 Largest concise Abelian subgroup C1      NOp   1
                         Standard orientation:                         
 ---------------------------------------------------------------------
 Center     Atomic      Atomic             Coordinates (Angstroms)
 Number     Number       Type             X           Y           Z
 ---------------------------------------------------------------------
      1          8           0        1.321902   -0.536193   -0.029017
      2          1           0       -2.268334   -0.782635    0.290507
      3          8           0        0.971709    0.605051    0.036727
      4          8           0       -1.721549   -0.058259   -0.028252
      5          1           0       -2.308164    0.697849   -0.126170
 ---------------------------------------------------------------------
 Rotational constants (GHZ):     42.9634595      5.0166429      4.5031963
 Standard basis: 6-31+G(d,p) (6D, 7F)
 There are    67 symmetry adapted basis functions of A   symmetry.
 Integral buffers will be    262144 words long.
 Raffenetti 2 integral format.
 Two-electron integral symmetry is turned on.
    67 basis functions,   110 primitive gaussians,    67 cartesian basis functions
    13 alpha electrons       13 beta electrons
       nuclear repulsion energy        65.4349740730 Hartrees.
 NAtoms=    5 NActive=    5 NUniq=    5 SFac= 7.50D-01 NAtFMM=   80 NAOKFM=F Big=F
 One-electron integrals computed using PRISM.
 NBasis=    67 RedAO= T  NBF=    67
 NBsUse=    67 1.00D-06 NBFU=    67
 Initial guess read from the checkpoint file:  D:\Documents\rayGit\FQ\quimicaComp
 utacional\proyecto\decompositionHydrogenPeroxide\descompositionByRadicals\gasPha
 se\step4\ts\tsM062X.chk
 B after Tr=     0.000000    0.000000    0.000000
         Rot=    1.000000    0.000000    0.000000    0.000000 Ang=   0.00 deg.
 Initial guess orbital symmetries:
       Occupied  (A) (A) (A) (A) (A) (A) (A) (A) (A) (A) (A) (A)
                 (A)
       Virtual   (A) (A) (A) (A) (A) (A) (A) (A) (A) (A) (A) (A)
                 (A) (A) (A) (A) (A) (A) (A) (A) (A) (A) (A) (A)
                 (A) (A) (A) (A) (A) (A) (A) (A) (A) (A) (A) (A)
                 (A) (A) (A) (A) (A) (A) (A) (A) (A) (A) (A) (A)
                 (A) (A) (A) (A) (A) (A)
 Requested convergence on RMS density matrix=1.00D-08 within 128 cycles.
 Requested convergence on MAX density matrix=1.00D-06.
 Requested convergence on             energy=1.00D-06.
 No special actions if energy rises.
 Keep R1 ints in memory in canonical form, NReq=3551234.
 SCF Done:  E(RM062X) =  -226.602926047     A.U. after    1 cycles
             Convg  =    0.2668D-10             -V/T =  2.0081

 **********************************************************************

            Population analysis using the SCF density.

 **********************************************************************

 Orbital symmetries:
       Occupied  (A) (A) (A) (A) (A) (A) (A) (A) (A) (A) (A) (A)
                 (A)
       Virtual   (A) (A) (A) (A) (A) (A) (A) (A) (A) (A) (A) (A)
                 (A) (A) (A) (A) (A) (A) (A) (A) (A) (A) (A) (A)
                 (A) (A) (A) (A) (A) (A) (A) (A) (A) (A) (A) (A)
                 (A) (A) (A) (A) (A) (A) (A) (A) (A) (A) (A) (A)
                 (A) (A) (A) (A) (A) (A)
 The electronic state is 1-A.
 Alpha  occ. eigenvalues --  -19.79162 -19.78927 -19.65706  -1.41267  -1.14175
 Alpha  occ. eigenvalues --   -0.89341  -0.61921  -0.60413  -0.60189  -0.58143
 Alpha  occ. eigenvalues --   -0.47471  -0.40392  -0.31841
 Alpha virt. eigenvalues --   -0.09486   0.06063   0.10661   0.12094   0.15431
 Alpha virt. eigenvalues --    0.16811   0.19071   0.20735   0.22762   0.23623
 Alpha virt. eigenvalues --    0.25396   0.26788   0.31074   0.33203   0.36918
 Alpha virt. eigenvalues --    0.40573   1.01175   1.04999   1.08733   1.12131
 Alpha virt. eigenvalues --    1.14640   1.15047   1.15533   1.19034   1.19839
 Alpha virt. eigenvalues --    1.22390   1.23160   1.28261   1.40899   1.55577
 Alpha virt. eigenvalues --    1.58015   1.58559   1.59662   1.61125   1.66100
 Alpha virt. eigenvalues --    1.69572   1.72264   2.01117   2.01693   2.27945
 Alpha virt. eigenvalues --    2.28984   2.58254   2.59408   2.65630   2.67288
 Alpha virt. eigenvalues --    2.67430   2.67788   2.99766   3.05796   3.37268
 Alpha virt. eigenvalues --    3.54297   3.72703   4.04089   4.14406
          Condensed to atoms (all electrons):
              1          2          3          4          5
     1  O    7.705524  -0.000912   0.317111   0.012875   0.000828
     2  H   -0.000912   0.352103   0.002979   0.289973  -0.022374
     3  O    0.317111   0.002979   7.662590  -0.045868   0.001864
     4  O    0.012875   0.289973  -0.045868   8.236188   0.287472
     5  H    0.000828  -0.022374   0.001864   0.287472   0.355697
 Mulliken atomic charges:
              1
     1  O   -0.035427
     2  H    0.378231
     3  O    0.061324
     4  O   -0.780639
     5  H    0.376512
 Sum of Mulliken atomic charges =   0.00000
 Mulliken charges with hydrogens summed into heavy atoms:
              1
     1  O   -0.035427
     3  O    0.061324
     4  O   -0.025897
 Sum of Mulliken charges with hydrogens summed into heavy atoms =   0.00000
 Electronic spatial extent (au):  <R**2>=            253.3328
 Charge=              0.0000 electrons
 Dipole moment (field-independent basis, Debye):
    X=             -2.2868    Y=              0.1009    Z=              0.4167  Tot=              2.3266
 Quadrupole moment (field-independent basis, Debye-Ang):
   XX=             -8.2648   YY=            -15.1614   ZZ=            -18.5769
   XY=              0.3030   XZ=             -0.9788   YZ=             -0.9130
 Traceless Quadrupole moment (field-independent basis, Debye-Ang):
   XX=              5.7362   YY=             -1.1604   ZZ=             -4.5758
   XY=              0.3030   XZ=             -0.9788   YZ=             -0.9130
 Octapole moment (field-independent basis, Debye-Ang**2):
  XXX=            -20.2588  YYY=             -0.2026  ZZZ=              0.2924  XYY=             -5.2864
  XXY=              1.3527  XXZ=              2.3368  XZZ=              0.4332  YZZ=             -0.0232
  YYZ=              0.3355  XYZ=              2.0268
 Hexadecapole moment (field-independent basis, Debye-Ang**3):
 XXXX=           -158.5443 YYYY=            -33.6876 ZZZZ=            -16.1759 XXXY=              0.7953
 XXXZ=             -5.5592 YYYX=              0.6720 YYYZ=             -0.8107 ZZZX=             -0.6760
 ZZZY=             -0.7184 XXYY=            -32.2331 XXZZ=            -43.4785 YYZZ=             -9.3468
 XXYZ=             -4.4333 YYXZ=             -0.8181 ZZXY=              0.3778
 N-N= 6.543497407300D+01 E-N=-6.658220193359D+02  KE= 2.247802741708D+02
 Calling FoFJK, ICntrl=      2127 FMM=F ISym2X=0 I1Cent= 0 IOpClX= 0 NMat=1 NMatS=1 NMatT=0.
 ***** Axes restored to original set *****
 -------------------------------------------------------------------
 Center     Atomic                   Forces (Hartrees/Bohr)
 Number     Number              X              Y              Z
 -------------------------------------------------------------------
      1        8           0.000078328    0.000112057   -0.000033142
      2        1           0.000153454    0.000126910   -0.000108982
      3        8          -0.000078673   -0.000107485    0.000035171
      4        8           0.000000713   -0.000058570    0.000052814
      5        1          -0.000153822   -0.000072912    0.000054139
 -------------------------------------------------------------------
 Cartesian Forces:  Max     0.000153822 RMS     0.000092531

 GradGradGradGradGradGradGradGradGradGradGradGradGradGradGradGradGradGrad
 Berny optimization.
 Internal  Forces:  Max     0.000074862 RMS     0.000035427
 Search for a saddle point.
 Step number   1 out of a maximum of   20
 All quantities printed in internal units (Hartrees-Bohrs-Radians)
 Swaping is turned off.
 Second derivative matrix not updated -- first step.
 The second derivative matrix:
                          R1        R2        R3        R4        A1
           R1           0.00684
           R2          -0.00099   0.90476
           R3          -0.00417   0.00701   0.42183
           R4          -0.00030  -0.00106  -0.00599   0.56476
           A1           0.00885   0.00762  -0.00253  -0.00048   0.02784
           A2          -0.00110  -0.00105   0.02157   0.01717  -0.00501
           A3           0.00978  -0.00568  -0.01031   0.00006   0.00476
           A4           0.00024  -0.00207  -0.00253   0.00028  -0.00641
           D1           0.00082  -0.00020  -0.00532   0.00048  -0.00056
                          A2        A3        A4        D1
           A2           0.12471
           A3          -0.00164   0.02331
           A4           0.00076   0.00457   0.00254
           D1           0.00036   0.00391   0.00193   0.00183
     Eigenvalues ---   -0.00073   0.00068   0.00154   0.02384   0.03622
     Eigenvalues ---    0.12274   0.42356   0.56562   0.90497
 Eigenvectors required to have negative eigenvalues:
                          A4        D1        A1        R1        A3
   1                    0.84228  -0.42951   0.25233  -0.19658  -0.06123
                          A2        R3        R2        R4
   1                    0.00413  -0.00247  -0.00086  -0.00010
 RFO step:  Lambda0=5.734532426D-09 Lambda=-3.49485413D-07.
 Linear search not attempted -- option 19 set.
 Iteration  1 RMS(Cart)=  0.00239280 RMS(Int)=  0.00000709
 Iteration  2 RMS(Cart)=  0.00000535 RMS(Int)=  0.00000000
 Iteration  3 RMS(Cart)=  0.00000000 RMS(Int)=  0.00000000
 Variable       Old X    -DE/DX   Delta X   Delta X   Delta X     New X
                                 (Linear)    (Quad)   (Total)
    R1        6.82728   0.00000   0.00000  -0.00565  -0.00565   6.82163
    R2        2.25931   0.00000   0.00000  -0.00004  -0.00004   2.25926
    R3        1.81778   0.00004   0.00000   0.00005   0.00005   1.81783
    R4        1.81788  -0.00002   0.00000  -0.00002  -0.00002   1.81785
    A1        1.33787   0.00007   0.00000   0.00439   0.00439   1.34226
    A2        1.85354  -0.00004   0.00000  -0.00020  -0.00020   1.85334
    A3        0.90770  -0.00004   0.00000   0.00018   0.00018   0.90789
    A4        2.55312  -0.00003   0.00000  -0.00006  -0.00006   2.55306
    D1        0.20951  -0.00001   0.00000  -0.00148  -0.00148   0.20803
         Item               Value     Threshold  Converged?
 Maximum Force            0.000075     0.000450     YES
 RMS     Force            0.000035     0.000300     YES
 Maximum Displacement     0.003502     0.001800     NO 
 RMS     Displacement     0.002392     0.001200     NO 
 Predicted change in Energy=-1.718754D-07
 GradGradGradGradGradGradGradGradGradGradGradGradGradGradGradGradGradGrad

                          Input orientation:                          
 ---------------------------------------------------------------------
 Center     Atomic      Atomic             Coordinates (Angstroms)
 Number     Number       Type             X           Y           Z
 ---------------------------------------------------------------------
      1          8           0       -0.325054   -0.690516    0.542951
      2          1           0       -1.961848    1.205240   -2.056673
      3          8           0        0.072168   -1.206634   -0.459634
      4          8           0       -1.601773    0.313346   -2.071661
      5          1           0       -1.619522    0.032376   -2.991509
 ---------------------------------------------------------------------
                    Distance matrix (angstroms):
                    1          2          3          4          5
     1  O    0.000000
     2  H    3.609852   0.000000
     3  O    1.195550   3.536226   0.000000
     4  O    3.077978   0.961953   2.776877   0.000000
     5  H    3.832836   1.538413   3.287454   0.961967   0.000000
 Stoichiometry    H2O3
 Framework group  C1[X(H2O3)]
 Deg. of freedom     9
 Full point group                 C1      NOp   1
 Largest Abelian subgroup         C1      NOp   1
 Largest concise Abelian subgroup C1      NOp   1
                         Standard orientation:                         
 ---------------------------------------------------------------------
 Center     Atomic      Atomic             Coordinates (Angstroms)
 Number     Number       Type             X           Y           Z
 ---------------------------------------------------------------------
      1          8           0        1.318947   -0.537547   -0.028937
      2          1           0       -2.268449   -0.781721    0.290432
      3          8           0        0.974438    0.605414    0.036593
      4          8           0       -1.721368   -0.057515   -0.028285
      5          1           0       -2.307691    0.698906   -0.125403
 ---------------------------------------------------------------------
 Rotational constants (GHZ):     42.8596182      5.0192286      4.5041035
 Standard basis: 6-31+G(d,p) (6D, 7F)
 There are    67 symmetry adapted basis functions of A   symmetry.
 Integral buffers will be    262144 words long.
 Raffenetti 2 integral format.
 Two-electron integral symmetry is turned on.
    67 basis functions,   110 primitive gaussians,    67 cartesian basis functions
    13 alpha electrons       13 beta electrons
       nuclear repulsion energy        65.4349326147 Hartrees.
 NAtoms=    5 NActive=    5 NUniq=    5 SFac= 7.50D-01 NAtFMM=   80 NAOKFM=F Big=F
 One-electron integrals computed using PRISM.
 NBasis=    67 RedAO= T  NBF=    67
 NBsUse=    67 1.00D-06 NBFU=    67
 Initial guess read from the read-write file.
 B after Tr=     0.000000    0.000000    0.000000
         Rot=    1.000000    0.000000    0.000000    0.000000 Ang=   0.00 deg.
 Initial guess orbital symmetries:
       Occupied  (A) (A) (A) (A) (A) (A) (A) (A) (A) (A) (A) (A)
                 (A)
       Virtual   (A) (A) (A) (A) (A) (A) (A) (A) (A) (A) (A) (A)
                 (A) (A) (A) (A) (A) (A) (A) (A) (A) (A) (A) (A)
                 (A) (A) (A) (A) (A) (A) (A) (A) (A) (A) (A) (A)
                 (A) (A) (A) (A) (A) (A) (A) (A) (A) (A) (A) (A)
                 (A) (A) (A) (A) (A) (A)
 Requested convergence on RMS density matrix=1.00D-08 within 128 cycles.
 Requested convergence on MAX density matrix=1.00D-06.
 Requested convergence on             energy=1.00D-06.
 No special actions if energy rises.
 Keep R1 ints in memory in canonical form, NReq=3551234.
 SCF Done:  E(RM062X) =  -226.602926210     A.U. after   15 cycles
             Convg  =    0.5489D-08             -V/T =  2.0081
 Calling FoFJK, ICntrl=      2127 FMM=F ISym2X=0 I1Cent= 0 IOpClX= 0 NMat=1 NMatS=1 NMatT=0.
 ***** Axes restored to original set *****
 -------------------------------------------------------------------
 Center     Atomic                   Forces (Hartrees/Bohr)
 Number     Number              X              Y              Z
 -------------------------------------------------------------------
      1        8           0.000095321    0.000131506   -0.000014627
      2        1           0.000163799    0.000104450   -0.000092738
      3        8          -0.000096170   -0.000125325    0.000018844
      4        8          -0.000011096   -0.000020191    0.000049078
      5        1          -0.000151854   -0.000090441    0.000039444
 -------------------------------------------------------------------
 Cartesian Forces:  Max     0.000163799 RMS     0.000094509

 GradGradGradGradGradGradGradGradGradGradGradGradGradGradGradGradGradGrad
 Berny optimization.
 Internal  Forces:  Max     0.000055883 RMS     0.000024942
 Search for a saddle point.
 Step number   2 out of a maximum of   20
 All quantities printed in internal units (Hartrees-Bohrs-Radians)
 Swaping is turned off.
 Update second derivatives using D2CorX and points    1    2
 The second derivative matrix:
                          R1        R2        R3        R4        A1
           R1           0.01004
           R2           0.00069   0.90478
           R3          -0.00286   0.00701   0.42181
           R4          -0.00004  -0.00105  -0.00598   0.56477
           A1           0.01234   0.00636  -0.00360  -0.00066   0.02050
           A2          -0.00287  -0.00100   0.02164   0.01717  -0.00341
           A3           0.00624  -0.00576  -0.01032   0.00003   0.00731
           A4          -0.00125  -0.00207  -0.00251   0.00028  -0.00519
           D1          -0.00068   0.00023  -0.00495   0.00054   0.00217
                          A2        A3        A4        D1
           A2           0.12458
           A3          -0.00170   0.02353
           A4           0.00069   0.00459   0.00251
           D1          -0.00019   0.00306   0.00152   0.00082
     Eigenvalues ---   -0.00225   0.00081   0.00324   0.01906   0.03582
     Eigenvalues ---    0.12252   0.42353   0.56562   0.90498
 Eigenvectors required to have negative eigenvalues:
                          A4        D1        A1        R1        A3
   1                    0.60349  -0.59489   0.40141  -0.34034  -0.07020
                          R3        R2        A2        R4
   1                   -0.00387  -0.00145  -0.00144   0.00072
 RFO step:  Lambda0=3.690712028D-07 Lambda=-3.42114066D-07.
 Linear search not attempted -- option 19 set.
 Iteration  1 RMS(Cart)=  0.00441874 RMS(Int)=  0.00003053
 Iteration  2 RMS(Cart)=  0.00004987 RMS(Int)=  0.00000000
 Iteration  3 RMS(Cart)=  0.00000000 RMS(Int)=  0.00000000
 Variable       Old X    -DE/DX   Delta X   Delta X   Delta X     New X
                                 (Linear)    (Quad)   (Total)
    R1        6.82163   0.00000   0.00000  -0.00040  -0.00040   6.82123
    R2        2.25926   0.00002   0.00000   0.00001   0.00001   2.25927
    R3        1.81783   0.00001   0.00000   0.00000   0.00000   1.81782
    R4        1.81785   0.00000   0.00000   0.00001   0.00001   1.81786
    A1        1.34226   0.00006   0.00000  -0.00262  -0.00262   1.33964
    A2        1.85334  -0.00002   0.00000  -0.00009  -0.00009   1.85325
    A3        0.90789  -0.00003   0.00000   0.00265   0.00265   0.91053
    A4        2.55306  -0.00001   0.00000  -0.01737  -0.01737   2.53569
    D1        0.20803  -0.00002   0.00000   0.00208   0.00208   0.21010
         Item               Value     Threshold  Converged?
 Maximum Force            0.000056     0.000450     YES
 RMS     Force            0.000025     0.000300     YES
 Maximum Displacement     0.006641     0.001800     NO 
 RMS     Displacement     0.004429     0.001200     NO 
 Predicted change in Energy= 1.350890D-08
 GradGradGradGradGradGradGradGradGradGradGradGradGradGradGradGradGradGrad

                          Input orientation:                          
 ---------------------------------------------------------------------
 Center     Atomic      Atomic             Coordinates (Angstroms)
 Number     Number       Type             X           Y           Z
 ---------------------------------------------------------------------
      1          8           0       -0.326753   -0.692553    0.543178
      2          1           0       -1.958334    1.206286   -2.057178
      3          8           0        0.073523   -1.203144   -0.461028
      4          8           0       -1.604581    0.311845   -2.070723
      5          1           0       -1.619883    0.031377   -2.990775
 ---------------------------------------------------------------------
                    Distance matrix (angstroms):
                    1          2          3          4          5
     1  O    0.000000
     2  H    3.609639   0.000000
     3  O    1.195557   3.532915   0.000000
     4  O    3.078009   0.961950   2.775310   0.000000
     5  H    3.832112   1.538364   3.285009   0.961972   0.000000
 Stoichiometry    H2O3
 Framework group  C1[X(H2O3)]
 Deg. of freedom     9
 Full point group                 C1      NOp   1
 Largest Abelian subgroup         C1      NOp   1
 Largest concise Abelian subgroup C1      NOp   1
                         Standard orientation:                         
 ---------------------------------------------------------------------
 Center     Atomic      Atomic             Coordinates (Angstroms)
 Number     Number       Type             X           Y           Z
 ---------------------------------------------------------------------
      1          8           0        1.319608   -0.536961   -0.029533
      2          1           0       -2.266874   -0.778909    0.299266
      3          8           0        0.973023    0.605294    0.037457
      4          8           0       -1.720955   -0.058298   -0.029431
      5          1           0       -2.306528    0.698627   -0.127208
 ---------------------------------------------------------------------
 Rotational constants (GHZ):     42.8870432      5.0213812      4.5067636
 Standard basis: 6-31+G(d,p) (6D, 7F)
 There are    67 symmetry adapted basis functions of A   symmetry.
 Integral buffers will be    262144 words long.
 Raffenetti 2 integral format.
 Two-electron integral symmetry is turned on.
    67 basis functions,   110 primitive gaussians,    67 cartesian basis functions
    13 alpha electrons       13 beta electrons
       nuclear repulsion energy        65.4439054829 Hartrees.
 NAtoms=    5 NActive=    5 NUniq=    5 SFac= 7.50D-01 NAtFMM=   80 NAOKFM=F Big=F
 One-electron integrals computed using PRISM.
 NBasis=    67 RedAO= T  NBF=    67
 NBsUse=    67 1.00D-06 NBFU=    67
 Initial guess read from the read-write file.
 B after Tr=     0.000000    0.000000    0.000000
         Rot=    1.000000    0.000000    0.000000    0.000000 Ang=   0.00 deg.
 Initial guess orbital symmetries:
       Occupied  (A) (A) (A) (A) (A) (A) (A) (A) (A) (A) (A) (A)
                 (A)
       Virtual   (A) (A) (A) (A) (A) (A) (A) (A) (A) (A) (A) (A)
                 (A) (A) (A) (A) (A) (A) (A) (A) (A) (A) (A) (A)
                 (A) (A) (A) (A) (A) (A) (A) (A) (A) (A) (A) (A)
                 (A) (A) (A) (A) (A) (A) (A) (A) (A) (A) (A) (A)
                 (A) (A) (A) (A) (A) (A)
 Requested convergence on RMS density matrix=1.00D-08 within 128 cycles.
 Requested convergence on MAX density matrix=1.00D-06.
 Requested convergence on             energy=1.00D-06.
 No special actions if energy rises.
 Keep R1 ints in memory in canonical form, NReq=3551234.
 SCF Done:  E(RM062X) =  -226.602929949     A.U. after   16 cycles
             Convg  =    0.1448D-08             -V/T =  2.0081
 Calling FoFJK, ICntrl=      2127 FMM=F ISym2X=0 I1Cent= 0 IOpClX= 0 NMat=1 NMatS=1 NMatT=0.
 ***** Axes restored to original set *****
 -------------------------------------------------------------------
 Center     Atomic                   Forces (Hartrees/Bohr)
 Number     Number              X              Y              Z
 -------------------------------------------------------------------
      1        8           0.000089029    0.000115113   -0.000014814
      2        1           0.000158754    0.000099036   -0.000079179
      3        8          -0.000088122   -0.000110921    0.000022588
      4        8          -0.000006369   -0.000008015    0.000027613
      5        1          -0.000153292   -0.000095213    0.000043791
 -------------------------------------------------------------------
 Cartesian Forces:  Max     0.000158754 RMS     0.000088921

 GradGradGradGradGradGradGradGradGradGradGradGradGradGradGradGradGradGrad
 Berny optimization.
 Internal  Forces:  Max     0.000052405 RMS     0.000019291
 Search for a saddle point.
 Step number   3 out of a maximum of   20
 All quantities printed in internal units (Hartrees-Bohrs-Radians)
 Swaping is turned off.
 Update second derivatives using D2CorX and points    1    2    3
 The second derivative matrix:
                          R1        R2        R3        R4        A1
           R1           0.01026
           R2           0.00079   0.90477
           R3          -0.00270   0.00700   0.42179
           R4          -0.00004  -0.00105  -0.00598   0.56477
           A1           0.01309   0.00627  -0.00376  -0.00066   0.01961
           A2          -0.00300  -0.00099   0.02166   0.01717  -0.00325
           A3           0.00599  -0.00580  -0.01038   0.00003   0.00702
           A4          -0.00112  -0.00169  -0.00189   0.00026  -0.00211
           D1          -0.00077   0.00022  -0.00497   0.00054   0.00211
                          A2        A3        A4        D1
           A2           0.12455
           A3          -0.00165   0.02373
           A4           0.00016   0.00394   0.00122
           D1          -0.00018   0.00313   0.00120   0.00085
     Eigenvalues ---   -0.00152   0.00014   0.00270   0.01803   0.03563
     Eigenvalues ---    0.12247   0.42351   0.56562   0.90497
 Eigenvectors required to have negative eigenvalues:
                          D1        R1        A4        A1        A3
   1                    0.72115   0.44400  -0.37665  -0.37424  -0.02929
                          R3        A2        R2        R4
   1                    0.00548   0.00125   0.00110  -0.00089
 RFO step:  Lambda0=1.832210877D-07 Lambda=-1.03404404D-06.
 Linear search not attempted -- option 19 set.
 Iteration  1 RMS(Cart)=  0.01781946 RMS(Int)=  0.00061068
 Iteration  2 RMS(Cart)=  0.00098837 RMS(Int)=  0.00000088
 Iteration  3 RMS(Cart)=  0.00000067 RMS(Int)=  0.00000000
 Variable       Old X    -DE/DX   Delta X   Delta X   Delta X     New X
                                 (Linear)    (Quad)   (Total)
    R1        6.82123   0.00001   0.00000  -0.02419  -0.02419   6.79704
    R2        2.25927   0.00001   0.00000  -0.00004  -0.00004   2.25923
    R3        1.81782   0.00001   0.00000  -0.00002  -0.00002   1.81780
    R4        1.81786   0.00000   0.00000   0.00005   0.00005   1.81791
    A1        1.33964   0.00005   0.00000   0.00588   0.00588   1.34553
    A2        1.85325  -0.00001   0.00000  -0.00021  -0.00021   1.85304
    A3        0.91053  -0.00001   0.00000   0.01581   0.01581   0.92634
    A4        2.53569  -0.00001   0.00000  -0.07017  -0.07017   2.46552
    D1        0.21010  -0.00001   0.00000  -0.00282  -0.00282   0.20728
         Item               Value     Threshold  Converged?
 Maximum Force            0.000052     0.000450     YES
 RMS     Force            0.000019     0.000300     YES
 Maximum Displacement     0.027996     0.001800     NO 
 RMS     Displacement     0.017984     0.001200     NO 
 Predicted change in Energy=-4.253795D-07
 GradGradGradGradGradGradGradGradGradGradGradGradGradGradGradGradGradGrad

                          Input orientation:                          
 ---------------------------------------------------------------------
 Center     Atomic      Atomic             Coordinates (Angstroms)
 Number     Number       Type             X           Y           Z
 ---------------------------------------------------------------------
      1          8           0       -0.337349   -0.694591    0.537853
      2          1           0       -1.943519    1.210017   -2.056355
      3          8           0        0.084525   -1.196309   -0.461949
      4          8           0       -1.618600    0.304679   -2.067063
      5          1           0       -1.621086    0.030016   -2.989013
 ---------------------------------------------------------------------
                    Distance matrix (angstroms):
                    1          2          3          4          5
     1  O    0.000000
     2  H    3.596837   0.000000
     3  O    1.195535   3.527818   0.000000
     4  O    3.070136   0.961938   2.780285   0.000000
     5  H    3.822541   1.538251   3.286188   0.961996   0.000000
 Stoichiometry    H2O3
 Framework group  C1[X(H2O3)]
 Deg. of freedom     9
 Full point group                 C1      NOp   1
 Largest Abelian subgroup         C1      NOp   1
 Largest concise Abelian subgroup C1      NOp   1
                         Standard orientation:                         
 ---------------------------------------------------------------------
 Center     Atomic      Atomic             Coordinates (Angstroms)
 Number     Number       Type             X           Y           Z
 ---------------------------------------------------------------------
      1          8           0        1.312013   -0.539615   -0.031429
      2          1           0       -2.258954   -0.764201    0.335974
      3          8           0        0.978344    0.606175    0.040229
      4          8           0       -1.720225   -0.058727   -0.034704
      5          1           0       -2.302110    0.701538   -0.128744
 ---------------------------------------------------------------------
 Rotational constants (GHZ):     42.6028210      5.0321513      4.5148647
 Standard basis: 6-31+G(d,p) (6D, 7F)
 There are    67 symmetry adapted basis functions of A   symmetry.
 Integral buffers will be    262144 words long.
 Raffenetti 2 integral format.
 Two-electron integral symmetry is turned on.
    67 basis functions,   110 primitive gaussians,    67 cartesian basis functions
    13 alpha electrons       13 beta electrons
       nuclear repulsion energy        65.4589897717 Hartrees.
 NAtoms=    5 NActive=    5 NUniq=    5 SFac= 7.50D-01 NAtFMM=   80 NAOKFM=F Big=F
 One-electron integrals computed using PRISM.
 NBasis=    67 RedAO= T  NBF=    67
 NBsUse=    67 1.00D-06 NBFU=    67
 Initial guess read from the read-write file.
 B after Tr=     0.000000    0.000000    0.000000
         Rot=    1.000000    0.000000    0.000000    0.000000 Ang=   0.00 deg.
 Initial guess orbital symmetries:
       Occupied  (A) (A) (A) (A) (A) (A) (A) (A) (A) (A) (A) (A)
                 (A)
       Virtual   (A) (A) (A) (A) (A) (A) (A) (A) (A) (A) (A) (A)
                 (A) (A) (A) (A) (A) (A) (A) (A) (A) (A) (A) (A)
                 (A) (A) (A) (A) (A) (A) (A) (A) (A) (A) (A) (A)
                 (A) (A) (A) (A) (A) (A) (A) (A) (A) (A) (A) (A)
                 (A) (A) (A) (A) (A) (A)
 Harris functional with IExCor= 1009 diagonalized for initial guess.
 ExpMin= 8.45D-02 ExpMax= 5.48D+03 ExpMxC= 8.25D+02 IAcc=2 IRadAn=         0 AccDes= 0.00D+00
 HarFok:  IExCor= 1009 AccDes= 0.00D+00 IRadAn=         0 IDoV= 1
 ScaDFX=  1.000000  1.000000  1.000000  1.000000
 FoFCou: FMM=F IPFlag=           0 FMFlag=      100000 FMFlg1=           0
         NFxFlg=           0 DoJE=T BraDBF=F KetDBF=T FulRan=T
         Omega=  0.000000  0.000000  1.000000  0.000000  0.000000 ICntrl=     500 IOpCl=  0
         NMat0=    1 NMatS0=    1 NMatT0=    0 NMatD0=    1 NMtDS0=    0 NMtDT0=    0
         I1Cent=           4 NGrid=           0.
 Petite list used in FoFCou.
 Requested convergence on RMS density matrix=1.00D-08 within 128 cycles.
 Requested convergence on MAX density matrix=1.00D-06.
 Requested convergence on             energy=1.00D-06.
 No special actions if energy rises.
 Keep R1 ints in memory in canonical form, NReq=3551234.
 Integral accuracy reduced to 1.0D-05 until final iterations.
 Initial convergence to 1.0D-05 achieved.  Increase integral accuracy.
 SCF Done:  E(RM062X) =  -226.602941456     A.U. after   20 cycles
             Convg  =    0.7664D-09             -V/T =  2.0081
 Calling FoFJK, ICntrl=      2127 FMM=F ISym2X=0 I1Cent= 0 IOpClX= 0 NMat=1 NMatS=1 NMatT=0.
 ***** Axes restored to original set *****
 -------------------------------------------------------------------
 Center     Atomic                   Forces (Hartrees/Bohr)
 Number     Number              X              Y              Z
 -------------------------------------------------------------------
      1        8           0.000131728    0.000102166    0.000001208
      2        1           0.000108593    0.000083516   -0.000082787
      3        8          -0.000135163   -0.000093484    0.000016960
      4        8           0.000076592    0.000002652    0.000005396
      5        1          -0.000181749   -0.000094849    0.000059224
 -------------------------------------------------------------------
 Cartesian Forces:  Max     0.000181749 RMS     0.000093861

 GradGradGradGradGradGradGradGradGradGradGradGradGradGradGradGradGradGrad
 Berny optimization.
 Internal  Forces:  Max     0.000054599 RMS     0.000029726
 Search for a saddle point.
 Step number   4 out of a maximum of   20
 All quantities printed in internal units (Hartrees-Bohrs-Radians)
 Swaping is turned off.
 Update second derivatives using D2CorX and points    1    2    3    4
 The second derivative matrix:
                          R1        R2        R3        R4        A1
           R1           0.01025
           R2           0.00077   0.90478
           R3          -0.00264   0.00697   0.42182
           R4          -0.00007  -0.00104  -0.00601   0.56478
           A1           0.01301   0.00631  -0.00386  -0.00059   0.01980
           A2          -0.00309  -0.00096   0.02161   0.01721  -0.00310
           A3           0.00591  -0.00575  -0.01048   0.00010   0.00724
           A4          -0.00106  -0.00180  -0.00163   0.00011  -0.00254
           D1          -0.00072   0.00019  -0.00492   0.00051   0.00201
                          A2        A3        A4        D1
           A2           0.12463
           A3          -0.00151   0.02394
           A4          -0.00022   0.00350   0.00184
           D1          -0.00025   0.00303   0.00144   0.00089
     Eigenvalues ---   -0.00154   0.00104   0.00268   0.01802   0.03583
     Eigenvalues ---    0.12255   0.42354   0.56564   0.90498
 Eigenvectors required to have negative eigenvalues:
                          D1        A4        R1        A1        A3
   1                    0.71135  -0.42723   0.41992  -0.36718  -0.01644
                          R3        R2        A2        R4
   1                    0.00542   0.00106   0.00090  -0.00085
 RFO step:  Lambda0=3.972177891D-08 Lambda=-4.18837396D-06.
 Linear search not attempted -- option 19 set.
 Iteration  1 RMS(Cart)=  0.01465500 RMS(Int)=  0.00040462
 Iteration  2 RMS(Cart)=  0.00077405 RMS(Int)=  0.00000049
 Iteration  3 RMS(Cart)=  0.00000040 RMS(Int)=  0.00000000
 Variable       Old X    -DE/DX   Delta X   Delta X   Delta X     New X
                                 (Linear)    (Quad)   (Total)
    R1        6.79704   0.00001   0.00000   0.02147   0.02147   6.81850
    R2        2.25923  -0.00001   0.00000   0.00001   0.00001   2.25925
    R3        1.81780   0.00002   0.00000   0.00011   0.00011   1.81791
    R4        1.81791  -0.00001   0.00000  -0.00005  -0.00005   1.81786
    A1        1.34553  -0.00004   0.00000  -0.00434  -0.00434   1.34118
    A2        1.85304  -0.00003   0.00000   0.00009   0.00009   1.85313
    A3        0.92634  -0.00004   0.00000  -0.01512  -0.01512   0.91121
    A4        2.46552   0.00005   0.00000   0.05612   0.05612   2.52164
    D1        0.20728   0.00002   0.00000   0.01131   0.01131   0.21859
         Item               Value     Threshold  Converged?
 Maximum Force            0.000055     0.000450     YES
 RMS     Force            0.000030     0.000300     YES
 Maximum Displacement     0.024557     0.001800     NO 
 RMS     Displacement     0.014700     0.001200     NO 
 Predicted change in Energy=-2.082651D-06
 GradGradGradGradGradGradGradGradGradGradGradGradGradGradGradGradGradGrad

                          Input orientation:                          
 ---------------------------------------------------------------------
 Center     Atomic      Atomic             Coordinates (Angstroms)
 Number     Number       Type             X           Y           Z
 ---------------------------------------------------------------------
      1          8           0       -0.330034   -0.693989    0.541850
      2          1           0       -1.955982    1.207588   -2.058031
      3          8           0        0.076838   -1.201344   -0.461329
      4          8           0       -1.605604    0.311742   -2.069708
      5          1           0       -1.621246    0.029816   -2.989308
 ---------------------------------------------------------------------
                    Distance matrix (angstroms):
                    1          2          3          4          5
     1  O    0.000000
     2  H    3.608196   0.000000
     3  O    1.195542   3.533379   0.000000
     4  O    3.075518   0.961998   2.776135   0.000000
     5  H    3.828864   1.538334   3.284802   0.961972   0.000000
 Stoichiometry    H2O3
 Framework group  C1[X(H2O3)]
 Deg. of freedom     9
 Full point group                 C1      NOp   1
 Largest Abelian subgroup         C1      NOp   1
 Largest concise Abelian subgroup C1      NOp   1
                         Standard orientation:                         
 ---------------------------------------------------------------------
 Center     Atomic      Atomic             Coordinates (Angstroms)
 Number     Number       Type             X           Y           Z
 ---------------------------------------------------------------------
      1          8           0        1.317515   -0.537710   -0.030276
      2          1           0       -2.267127   -0.775053    0.306022
      3          8           0        0.974362    0.605472    0.038307
      4          8           0       -1.720402   -0.058261   -0.029749
      5          1           0       -2.304672    0.699041   -0.132281
 ---------------------------------------------------------------------
 Rotational constants (GHZ):     42.8206518      5.0252346      4.5096972
 Standard basis: 6-31+G(d,p) (6D, 7F)
 There are    67 symmetry adapted basis functions of A   symmetry.
 Integral buffers will be    262144 words long.
 Raffenetti 2 integral format.
 Two-electron integral symmetry is turned on.
    67 basis functions,   110 primitive gaussians,    67 cartesian basis functions
    13 alpha electrons       13 beta electrons
       nuclear repulsion energy        65.4506550089 Hartrees.
 NAtoms=    5 NActive=    5 NUniq=    5 SFac= 7.50D-01 NAtFMM=   80 NAOKFM=F Big=F
 One-electron integrals computed using PRISM.
 NBasis=    67 RedAO= T  NBF=    67
 NBsUse=    67 1.00D-06 NBFU=    67
 Initial guess read from the read-write file.
 B after Tr=     0.000000    0.000000    0.000000
         Rot=    1.000000    0.000000    0.000000    0.000000 Ang=   0.00 deg.
 Initial guess orbital symmetries:
       Occupied  (A) (A) (A) (A) (A) (A) (A) (A) (A) (A) (A) (A)
                 (A)
       Virtual   (A) (A) (A) (A) (A) (A) (A) (A) (A) (A) (A) (A)
                 (A) (A) (A) (A) (A) (A) (A) (A) (A) (A) (A) (A)
                 (A) (A) (A) (A) (A) (A) (A) (A) (A) (A) (A) (A)
                 (A) (A) (A) (A) (A) (A) (A) (A) (A) (A) (A) (A)
                 (A) (A) (A) (A) (A) (A)
 Harris functional with IExCor= 1009 diagonalized for initial guess.
 ExpMin= 8.45D-02 ExpMax= 5.48D+03 ExpMxC= 8.25D+02 IAcc=2 IRadAn=         0 AccDes= 0.00D+00
 HarFok:  IExCor= 1009 AccDes= 0.00D+00 IRadAn=         0 IDoV= 1
 ScaDFX=  1.000000  1.000000  1.000000  1.000000
 FoFCou: FMM=F IPFlag=           0 FMFlag=      100000 FMFlg1=           0
         NFxFlg=           0 DoJE=T BraDBF=F KetDBF=T FulRan=T
         Omega=  0.000000  0.000000  1.000000  0.000000  0.000000 ICntrl=     500 IOpCl=  0
         NMat0=    1 NMatS0=    1 NMatT0=    0 NMatD0=    1 NMtDS0=    0 NMtDT0=    0
         I1Cent=           4 NGrid=           0.
 Petite list used in FoFCou.
 Requested convergence on RMS density matrix=1.00D-08 within 128 cycles.
 Requested convergence on MAX density matrix=1.00D-06.
 Requested convergence on             energy=1.00D-06.
 No special actions if energy rises.
 Keep R1 ints in memory in canonical form, NReq=3551234.
 Integral accuracy reduced to 1.0D-05 until final iterations.
 Initial convergence to 1.0D-05 achieved.  Increase integral accuracy.
 SCF Done:  E(RM062X) =  -226.602934180     A.U. after   19 cycles
             Convg  =    0.6177D-08             -V/T =  2.0081
 Calling FoFJK, ICntrl=      2127 FMM=F ISym2X=0 I1Cent= 0 IOpClX= 0 NMat=1 NMatS=1 NMatT=0.
 ***** Axes restored to original set *****
 -------------------------------------------------------------------
 Center     Atomic                   Forces (Hartrees/Bohr)
 Number     Number              X              Y              Z
 -------------------------------------------------------------------
      1        8           0.000098985    0.000114686   -0.000002530
      2        1           0.000173409    0.000048728   -0.000064759
      3        8          -0.000097933   -0.000109373    0.000012880
      4        8          -0.000023367    0.000042237    0.000009162
      5        1          -0.000151094   -0.000096277    0.000045247
 -------------------------------------------------------------------
 Cartesian Forces:  Max     0.000173409 RMS     0.000088647

 GradGradGradGradGradGradGradGradGradGradGradGradGradGradGradGradGradGrad
 Berny optimization.
 Internal  Forces:  Max     0.000037096 RMS     0.000015729
 Search for a saddle point.
 Step number   5 out of a maximum of   20
 All quantities printed in internal units (Hartrees-Bohrs-Radians)
 Swaping is turned off.
 Update second derivatives using D2CorX and points    1    2    3    4    5
 The second derivative matrix:
                          R1        R2        R3        R4        A1
           R1           0.01014
           R2           0.00070   0.90480
           R3          -0.00236   0.00690   0.42217
           R4          -0.00007  -0.00104  -0.00602   0.56478
           A1           0.01278   0.00636  -0.00404  -0.00059   0.01994
           A2          -0.00306  -0.00095   0.02158   0.01721  -0.00309
           A3           0.00596  -0.00565  -0.01094   0.00010   0.00753
           A4          -0.00110  -0.00183  -0.00148   0.00010  -0.00263
           D1          -0.00087  -0.00011  -0.00359   0.00053   0.00109
                          A2        A3        A4        D1
           A2           0.12464
           A3          -0.00151   0.02404
           A4          -0.00023   0.00348   0.00183
           D1          -0.00019   0.00283   0.00143   0.00136
     Eigenvalues ---   -0.00089   0.00112   0.00259   0.01789   0.03592
     Eigenvalues ---    0.12256   0.42388   0.56564   0.90499
 Eigenvectors required to have negative eigenvalues:
                          D1        A4        R1        A1        A3
   1                    0.65581  -0.53533   0.39965  -0.35136   0.01244
                          R3        R2        A2        R4
   1                    0.00281   0.00121   0.00090  -0.00083
 RFO step:  Lambda0=1.724979010D-07 Lambda=-3.72510755D-08.
 Linear search not attempted -- option 19 set.
 Iteration  1 RMS(Cart)=  0.00367140 RMS(Int)=  0.00001363
 Iteration  2 RMS(Cart)=  0.00001139 RMS(Int)=  0.00000000
 Iteration  3 RMS(Cart)=  0.00000000 RMS(Int)=  0.00000000
 Variable       Old X    -DE/DX   Delta X   Delta X   Delta X     New X
                                 (Linear)    (Quad)   (Total)
    R1        6.81850   0.00001   0.00000   0.00417   0.00417   6.82268
    R2        2.25925   0.00001   0.00000   0.00002   0.00002   2.25926
    R3        1.81791  -0.00004   0.00000  -0.00004  -0.00004   1.81787
    R4        1.81786   0.00000   0.00000  -0.00001  -0.00001   1.81785
    A1        1.34118   0.00003   0.00000  -0.00349  -0.00349   1.33770
    A2        1.85313   0.00000   0.00000   0.00002   0.00002   1.85316
    A3        0.91121   0.00000   0.00000   0.00072   0.00072   0.91194
    A4        2.52164   0.00000   0.00000  -0.01018  -0.01018   2.51145
    D1        0.21859  -0.00001   0.00000   0.00843   0.00843   0.22702
         Item               Value     Threshold  Converged?
 Maximum Force            0.000037     0.000450     YES
 RMS     Force            0.000016     0.000300     YES
 Maximum Displacement     0.006187     0.001800     NO 
 RMS     Displacement     0.003672     0.001200     NO 
 Predicted change in Energy= 6.764004D-08
 GradGradGradGradGradGradGradGradGradGradGradGradGradGradGradGradGradGrad

                          Input orientation:                          
 ---------------------------------------------------------------------
 Center     Atomic      Atomic             Coordinates (Angstroms)
 Number     Number       Type             X           Y           Z
 ---------------------------------------------------------------------
      1          8           0       -0.331143   -0.696816    0.543072
      2          1           0       -1.954013    1.208500   -2.059058
      3          8           0        0.077961   -1.198070   -0.462274
      4          8           0       -1.606082    0.311712   -2.069545
      5          1           0       -1.622751    0.028486   -2.988721
 ---------------------------------------------------------------------
                    Distance matrix (angstroms):
                    1          2          3          4          5
     1  O    0.000000
     2  H    3.610404   0.000000
     3  O    1.195550   3.531320   0.000000
     4  O    3.077071   0.961975   2.774665   0.000000
     5  H    3.829866   1.538325   3.283260   0.961967   0.000000
 Stoichiometry    H2O3
 Framework group  C1[X(H2O3)]
 Deg. of freedom     9
 Full point group                 C1      NOp   1
 Largest Abelian subgroup         C1      NOp   1
 Largest concise Abelian subgroup C1      NOp   1
                         Standard orientation:                         
 ---------------------------------------------------------------------
 Center     Atomic      Atomic             Coordinates (Angstroms)
 Number     Number       Type             X           Y           Z
 ---------------------------------------------------------------------
      1          8           0        1.319274   -0.536830   -0.030940
      2          1           0       -2.267098   -0.773264    0.311194
      3          8           0        0.972649    0.605224    0.039101
      4          8           0       -1.720464   -0.058962   -0.029922
      5          1           0       -2.304572    0.697814   -0.137101
 ---------------------------------------------------------------------
 Rotational constants (GHZ):     42.8817001      5.0237564      4.5096583
 Standard basis: 6-31+G(d,p) (6D, 7F)
 There are    67 symmetry adapted basis functions of A   symmetry.
 Integral buffers will be    262144 words long.
 Raffenetti 2 integral format.
 Two-electron integral symmetry is turned on.
    67 basis functions,   110 primitive gaussians,    67 cartesian basis functions
    13 alpha electrons       13 beta electrons
       nuclear repulsion energy        65.4517946819 Hartrees.
 NAtoms=    5 NActive=    5 NUniq=    5 SFac= 7.50D-01 NAtFMM=   80 NAOKFM=F Big=F
 One-electron integrals computed using PRISM.
 NBasis=    67 RedAO= T  NBF=    67
 NBsUse=    67 1.00D-06 NBFU=    67
 Initial guess read from the read-write file.
 B after Tr=     0.000000    0.000000    0.000000
         Rot=    1.000000    0.000000    0.000000    0.000000 Ang=   0.00 deg.
 Initial guess orbital symmetries:
       Occupied  (A) (A) (A) (A) (A) (A) (A) (A) (A) (A) (A) (A)
                 (A)
       Virtual   (A) (A) (A) (A) (A) (A) (A) (A) (A) (A) (A) (A)
                 (A) (A) (A) (A) (A) (A) (A) (A) (A) (A) (A) (A)
                 (A) (A) (A) (A) (A) (A) (A) (A) (A) (A) (A) (A)
                 (A) (A) (A) (A) (A) (A) (A) (A) (A) (A) (A) (A)
                 (A) (A) (A) (A) (A) (A)
 Requested convergence on RMS density matrix=1.00D-08 within 128 cycles.
 Requested convergence on MAX density matrix=1.00D-06.
 Requested convergence on             energy=1.00D-06.
 No special actions if energy rises.
 Keep R1 ints in memory in canonical form, NReq=3551234.
 SCF Done:  E(RM062X) =  -226.602937415     A.U. after   15 cycles
             Convg  =    0.2080D-08             -V/T =  2.0081
 Calling FoFJK, ICntrl=      2127 FMM=F ISym2X=0 I1Cent= 0 IOpClX= 0 NMat=1 NMatS=1 NMatT=0.
 ***** Axes restored to original set *****
 -------------------------------------------------------------------
 Center     Atomic                   Forces (Hartrees/Bohr)
 Number     Number              X              Y              Z
 -------------------------------------------------------------------
      1        8           0.000084612    0.000099132   -0.000004931
      2        1           0.000162079    0.000068615   -0.000062665
      3        8          -0.000084973   -0.000093099    0.000011278
      4        8          -0.000016079    0.000018973    0.000012499
      5        1          -0.000145638   -0.000093621    0.000043819
 -------------------------------------------------------------------
 Cartesian Forces:  Max     0.000162079 RMS     0.000081894

 GradGradGradGradGradGradGradGradGradGradGradGradGradGradGradGradGradGrad
 Berny optimization.
 Internal  Forces:  Max     0.000018671 RMS     0.000008297
 Search for a saddle point.
 Step number   6 out of a maximum of   20
 All quantities printed in internal units (Hartrees-Bohrs-Radians)
 Swaping is turned off.
 Update second derivatives using D2CorX and points    1    2    3    4    5
                                                      6
 The second derivative matrix:
                          R1        R2        R3        R4        A1
           R1           0.01006
           R2           0.00060   0.90482
           R3          -0.00218   0.00683   0.42237
           R4          -0.00007  -0.00104  -0.00602   0.56478
           A1           0.01234   0.00649  -0.00435  -0.00058   0.02076
           A2          -0.00309  -0.00094   0.02156   0.01721  -0.00304
           A3           0.00597  -0.00561  -0.01109   0.00010   0.00771
           A4          -0.00089  -0.00170  -0.00172   0.00011  -0.00219
           D1          -0.00104  -0.00039  -0.00284   0.00052  -0.00005
                          A2        A3        A4        D1
           A2           0.12464
           A3          -0.00151   0.02405
           A4          -0.00017   0.00359   0.00102
           D1          -0.00028   0.00270   0.00182   0.00140
     Eigenvalues ---   -0.00103   0.00119   0.00254   0.01786   0.03606
     Eigenvalues ---    0.12256   0.42408   0.56564   0.90501
 Eigenvectors required to have negative eigenvalues:
                          A4        D1        A1        R1        A3
   1                    0.76815  -0.57544   0.20279  -0.18193  -0.06774
                          R3        R4        R2        A2
   1                   -0.00131   0.00058  -0.00055  -0.00046
 RFO step:  Lambda0=3.003896975D-08 Lambda=-9.07553106D-08.
 Linear search not attempted -- option 19 set.
 Iteration  1 RMS(Cart)=  0.00257093 RMS(Int)=  0.00000715
 Iteration  2 RMS(Cart)=  0.00000521 RMS(Int)=  0.00000000
 Iteration  3 RMS(Cart)=  0.00000000 RMS(Int)=  0.00000000
 Variable       Old X    -DE/DX   Delta X   Delta X   Delta X     New X
                                 (Linear)    (Quad)   (Total)
    R1        6.82268   0.00000   0.00000  -0.00592  -0.00592   6.81676
    R2        2.25926   0.00000   0.00000  -0.00002  -0.00002   2.25925
    R3        1.81787  -0.00001   0.00000  -0.00003  -0.00003   1.81784
    R4        1.81785   0.00000   0.00000   0.00001   0.00001   1.81786
    A1        1.33770   0.00002   0.00000   0.00408   0.00408   1.34177
    A2        1.85316   0.00000   0.00000  -0.00003  -0.00003   1.85312
    A3        0.91194   0.00000   0.00000   0.00090   0.00090   0.91284
    A4        2.51145  -0.00001   0.00000   0.00017   0.00017   2.51162
    D1        0.22702   0.00000   0.00000  -0.00595  -0.00595   0.22106
         Item               Value     Threshold  Converged?
 Maximum Force            0.000019     0.000450     YES
 RMS     Force            0.000008     0.000300     YES
 Maximum Displacement     0.003998     0.001800     NO 
 RMS     Displacement     0.002570     0.001200     NO 
 Predicted change in Energy=-3.035773D-08
 GradGradGradGradGradGradGradGradGradGradGradGradGradGradGradGradGradGrad

                          Input orientation:                          
 ---------------------------------------------------------------------
 Center     Atomic      Atomic             Coordinates (Angstroms)
 Number     Number       Type             X           Y           Z
 ---------------------------------------------------------------------
      1          8           0       -0.331678   -0.694816    0.541378
      2          1           0       -1.954064    1.208311   -2.058313
      3          8           0        0.078771   -1.200186   -0.461344
      4          8           0       -1.607125    0.311160   -2.069301
      5          1           0       -1.621932    0.029342   -2.988947
 ---------------------------------------------------------------------
                    Distance matrix (angstroms):
                    1          2          3          4          5
     1  O    0.000000
     2  H    3.607274   0.000000
     3  O    1.195542   3.533212   0.000000
     4  O    3.074800   0.961960   2.777037   0.000000
     5  H    3.827839   1.538298   3.285255   0.961972   0.000000
 Stoichiometry    H2O3
 Framework group  C1[X(H2O3)]
 Deg. of freedom     9
 Full point group                 C1      NOp   1
 Largest Abelian subgroup         C1      NOp   1
 Largest concise Abelian subgroup C1      NOp   1
                         Standard orientation:                         
 ---------------------------------------------------------------------
 Center     Atomic      Atomic             Coordinates (Angstroms)
 Number     Number       Type             X           Y           Z
 ---------------------------------------------------------------------
      1          8           0        1.316676   -0.538048   -0.030667
      2          1           0       -2.266688   -0.772790    0.311122
      3          8           0        0.975157    0.605568    0.038806
      4          8           0       -1.720471   -0.058325   -0.030278
      5          1           0       -2.304213    0.699222   -0.134003
 ---------------------------------------------------------------------
 Rotational constants (GHZ):     42.7858043      5.0255284      4.5099332
 Standard basis: 6-31+G(d,p) (6D, 7F)
 There are    67 symmetry adapted basis functions of A   symmetry.
 Integral buffers will be    262144 words long.
 Raffenetti 2 integral format.
 Two-electron integral symmetry is turned on.
    67 basis functions,   110 primitive gaussians,    67 cartesian basis functions
    13 alpha electrons       13 beta electrons
       nuclear repulsion energy        65.4499303310 Hartrees.
 NAtoms=    5 NActive=    5 NUniq=    5 SFac= 7.50D-01 NAtFMM=   80 NAOKFM=F Big=F
 One-electron integrals computed using PRISM.
 NBasis=    67 RedAO= T  NBF=    67
 NBsUse=    67 1.00D-06 NBFU=    67
 Initial guess read from the read-write file.
 B after Tr=     0.000000    0.000000    0.000000
         Rot=    1.000000    0.000000    0.000000    0.000000 Ang=   0.00 deg.
 Initial guess orbital symmetries:
       Occupied  (A) (A) (A) (A) (A) (A) (A) (A) (A) (A) (A) (A)
                 (A)
       Virtual   (A) (A) (A) (A) (A) (A) (A) (A) (A) (A) (A) (A)
                 (A) (A) (A) (A) (A) (A) (A) (A) (A) (A) (A) (A)
                 (A) (A) (A) (A) (A) (A) (A) (A) (A) (A) (A) (A)
                 (A) (A) (A) (A) (A) (A) (A) (A) (A) (A) (A) (A)
                 (A) (A) (A) (A) (A) (A)
 Requested convergence on RMS density matrix=1.00D-08 within 128 cycles.
 Requested convergence on MAX density matrix=1.00D-06.
 Requested convergence on             energy=1.00D-06.
 No special actions if energy rises.
 Keep R1 ints in memory in canonical form, NReq=3551234.
 SCF Done:  E(RM062X) =  -226.602936504     A.U. after   15 cycles
             Convg  =    0.1339D-08             -V/T =  2.0081
 Calling FoFJK, ICntrl=      2127 FMM=F ISym2X=0 I1Cent= 0 IOpClX= 0 NMat=1 NMatS=1 NMatT=0.
 ***** Axes restored to original set *****
 -------------------------------------------------------------------
 Center     Atomic                   Forces (Hartrees/Bohr)
 Number     Number              X              Y              Z
 -------------------------------------------------------------------
      1        8           0.000105294    0.000110359   -0.000005229
      2        1           0.000155255    0.000081316   -0.000060329
      3        8          -0.000106446   -0.000102885    0.000013983
      4        8          -0.000001515    0.000006281    0.000005032
      5        1          -0.000152588   -0.000095070    0.000046544
 -------------------------------------------------------------------
 Cartesian Forces:  Max     0.000155255 RMS     0.000087299

 GradGradGradGradGradGradGradGradGradGradGradGradGradGradGradGradGradGrad
 Berny optimization.
 Internal  Forces:  Max     0.000007701 RMS     0.000004757
 Search for a saddle point.
 Step number   7 out of a maximum of   20
 All quantities printed in internal units (Hartrees-Bohrs-Radians)
 Swaping is turned off.
 Update second derivatives using D2CorX and points    1    2    3    4    5
                                                      6    7
 The second derivative matrix:
                          R1        R2        R3        R4        A1
           R1           0.01098
           R2           0.00075   0.90484
           R3          -0.00195   0.00679   0.42257
           R4          -0.00017  -0.00104  -0.00603   0.56479
           A1           0.01259   0.00642  -0.00457  -0.00052   0.02008
           A2          -0.00325  -0.00094   0.02153   0.01722  -0.00293
           A3           0.00634  -0.00558  -0.01137   0.00012   0.00741
           A4           0.00016  -0.00161  -0.00131   0.00002  -0.00222
           D1          -0.00130  -0.00038  -0.00251   0.00048   0.00037
                          A2        A3        A4        D1
           A2           0.12465
           A3          -0.00146   0.02398
           A4          -0.00031   0.00383   0.00165
           D1          -0.00033   0.00289   0.00212   0.00086
     Eigenvalues ---   -0.00182   0.00177   0.00296   0.01785   0.03611
     Eigenvalues ---    0.12258   0.42429   0.56564   0.90502
 Eigenvectors required to have negative eigenvalues:
                          D1        A4        R1        A1        A3
   1                    0.66968  -0.60601   0.33491  -0.26831   0.01060
                          A2        R2        R3        R4
   1                    0.00278   0.00089   0.00087  -0.00078
 RFO step:  Lambda0=5.753372500D-08 Lambda= 0.00000000D+00.
 Linear search not attempted -- option 19 set.
 Iteration  1 RMS(Cart)=  0.00145914 RMS(Int)=  0.00000209
 Iteration  2 RMS(Cart)=  0.00000152 RMS(Int)=  0.00000000
 Iteration  3 RMS(Cart)=  0.00000000 RMS(Int)=  0.00000000
 Variable       Old X    -DE/DX   Delta X   Delta X   Delta X     New X
                                 (Linear)    (Quad)   (Total)
    R1        6.81676   0.00000   0.00000   0.00265   0.00265   6.81941
    R2        2.25925   0.00000   0.00000   0.00001   0.00001   2.25925
    R3        1.81784   0.00000   0.00000   0.00002   0.00002   1.81786
    R4        1.81786   0.00000   0.00000  -0.00001  -0.00001   1.81786
    A1        1.34177   0.00001   0.00000  -0.00169  -0.00169   1.34009
    A2        1.85312   0.00000   0.00000   0.00002   0.00002   1.85314
    A3        0.91284   0.00000   0.00000   0.00000   0.00000   0.91284
    A4        2.51162   0.00001   0.00000  -0.00280  -0.00280   2.50882
    D1        0.22106  -0.00001   0.00000   0.00386   0.00386   0.22493
         Item               Value     Threshold  Converged?
 Maximum Force            0.000008     0.000450     YES
 RMS     Force            0.000005     0.000300     YES
 Maximum Displacement     0.002386     0.001800     NO 
 RMS     Displacement     0.001459     0.001200     NO 
 Predicted change in Energy= 2.659600D-08
 GradGradGradGradGradGradGradGradGradGradGradGradGradGradGradGradGradGrad

                          Input orientation:                          
 ---------------------------------------------------------------------
 Center     Atomic      Atomic             Coordinates (Angstroms)
 Number     Number       Type             X           Y           Z
 ---------------------------------------------------------------------
      1          8           0       -0.331885   -0.696062    0.542119
      2          1           0       -1.953555    1.208650   -2.058802
      3          8           0        0.079057   -1.198924   -0.461668
      4          8           0       -1.607017    0.311329   -2.069379
      5          1           0       -1.622629    0.028818   -2.988796
 ---------------------------------------------------------------------
                    Distance matrix (angstroms):
                    1          2          3          4          5
     1  O    0.000000
     2  H    3.608675   0.000000
     3  O    1.195546   3.532529   0.000000
     4  O    3.075829   0.961970   2.776409   0.000000
     5  H    3.828685   1.538313   3.284731   0.961969   0.000000
 Stoichiometry    H2O3
 Framework group  C1[X(H2O3)]
 Deg. of freedom     9
 Full point group                 C1      NOp   1
 Largest Abelian subgroup         C1      NOp   1
 Largest concise Abelian subgroup C1      NOp   1
                         Standard orientation:                         
 ---------------------------------------------------------------------
 Center     Atomic      Atomic             Coordinates (Angstroms)
 Number     Number       Type             X           Y           Z
 ---------------------------------------------------------------------
      1          8           0        1.317697   -0.537595   -0.030920
      2          1           0       -2.266914   -0.772367    0.312555
      3          8           0        0.974326    0.605437    0.039094
      4          8           0       -1.720608   -0.058619   -0.030227
      5          1           0       -2.304406    0.698579   -0.136130
 ---------------------------------------------------------------------
 Rotational constants (GHZ):     42.8194544      5.0241080      4.5093162
 Standard basis: 6-31+G(d,p) (6D, 7F)
 There are    67 symmetry adapted basis functions of A   symmetry.
 Integral buffers will be    262144 words long.
 Raffenetti 2 integral format.
 Two-electron integral symmetry is turned on.
    67 basis functions,   110 primitive gaussians,    67 cartesian basis functions
    13 alpha electrons       13 beta electrons
       nuclear repulsion energy        65.4486193118 Hartrees.
 NAtoms=    5 NActive=    5 NUniq=    5 SFac= 7.50D-01 NAtFMM=   80 NAOKFM=F Big=F
 One-electron integrals computed using PRISM.
 NBasis=    67 RedAO= T  NBF=    67
 NBsUse=    67 1.00D-06 NBFU=    67
 Initial guess read from the read-write file.
 B after Tr=     0.000000    0.000000    0.000000
         Rot=    1.000000    0.000000    0.000000    0.000000 Ang=   0.00 deg.
 Initial guess orbital symmetries:
       Occupied  (A) (A) (A) (A) (A) (A) (A) (A) (A) (A) (A) (A)
                 (A)
       Virtual   (A) (A) (A) (A) (A) (A) (A) (A) (A) (A) (A) (A)
                 (A) (A) (A) (A) (A) (A) (A) (A) (A) (A) (A) (A)
                 (A) (A) (A) (A) (A) (A) (A) (A) (A) (A) (A) (A)
                 (A) (A) (A) (A) (A) (A) (A) (A) (A) (A) (A) (A)
                 (A) (A) (A) (A) (A) (A)
 Requested convergence on RMS density matrix=1.00D-08 within 128 cycles.
 Requested convergence on MAX density matrix=1.00D-06.
 Requested convergence on             energy=1.00D-06.
 No special actions if energy rises.
 Keep R1 ints in memory in canonical form, NReq=3551234.
 SCF Done:  E(RM062X) =  -226.602937637     A.U. after   15 cycles
             Convg  =    0.2442D-09             -V/T =  2.0081
 Calling FoFJK, ICntrl=      2127 FMM=F ISym2X=0 I1Cent= 0 IOpClX= 0 NMat=1 NMatS=1 NMatT=0.
 ***** Axes restored to original set *****
 -------------------------------------------------------------------
 Center     Atomic                   Forces (Hartrees/Bohr)
 Number     Number              X              Y              Z
 -------------------------------------------------------------------
      1        8           0.000097410    0.000104405   -0.000006479
      2        1           0.000158532    0.000071308   -0.000061141
      3        8          -0.000099723   -0.000096211    0.000012251
      4        8          -0.000006750    0.000013949    0.000010302
      5        1          -0.000149470   -0.000093450    0.000045067
 -------------------------------------------------------------------
 Cartesian Forces:  Max     0.000158532 RMS     0.000084534

 GradGradGradGradGradGradGradGradGradGradGradGradGradGradGradGradGradGrad
 Berny optimization.
 Internal  Forces:  Max     0.000004645 RMS     0.000002494
 Search for a saddle point.
 Step number   8 out of a maximum of   20
 All quantities printed in internal units (Hartrees-Bohrs-Radians)
 Swaping is turned off.
 Update second derivatives using D2CorX and points    1    2    3    4    5
                                                      6    7    8
 The second derivative matrix:
                          R1        R2        R3        R4        A1
           R1           0.01162
           R2           0.00083   0.90485
           R3          -0.00202   0.00679   0.42265
           R4          -0.00021  -0.00105  -0.00604   0.56479
           A1           0.01241   0.00640  -0.00448  -0.00051   0.01995
           A2          -0.00333  -0.00096   0.02151   0.01723  -0.00291
           A3           0.00641  -0.00557  -0.01124   0.00011   0.00738
           A4           0.00066  -0.00139  -0.00228  -0.00009  -0.00151
           D1          -0.00131  -0.00052  -0.00206   0.00055  -0.00026
                          A2        A3        A4        D1
           A2           0.12467
           A3          -0.00147   0.02412
           A4          -0.00060   0.00388   0.00159
           D1          -0.00017   0.00276   0.00190   0.00139
     Eigenvalues ---   -0.00114   0.00190   0.00331   0.01773   0.03618
     Eigenvalues ---    0.12261   0.42436   0.56565   0.90504
 Eigenvectors required to have negative eigenvalues:
                          A4        D1        R1        A1        A3
   1                    0.67667  -0.62150  -0.31583   0.23559  -0.02444
                          A2        R3        R2        R4
   1                   -0.00109   0.00104  -0.00085   0.00085
 RFO step:  Lambda0=1.359489895D-08 Lambda= 0.00000000D+00.
 Linear search not attempted -- option 19 set.
 Iteration  1 RMS(Cart)=  0.00089551 RMS(Int)=  0.00000090
 Iteration  2 RMS(Cart)=  0.00000111 RMS(Int)=  0.00000000
 Iteration  3 RMS(Cart)=  0.00000000 RMS(Int)=  0.00000000
 Variable       Old X    -DE/DX   Delta X   Delta X   Delta X     New X
                                 (Linear)    (Quad)   (Total)
    R1        6.81941   0.00000   0.00000   0.00072   0.00072   6.82013
    R2        2.25925   0.00000   0.00000   0.00000   0.00000   2.25926
    R3        1.81786   0.00000   0.00000  -0.00001  -0.00001   1.81785
    R4        1.81786   0.00000   0.00000   0.00000   0.00000   1.81785
    A1        1.34009   0.00000   0.00000  -0.00056  -0.00056   1.33953
    A2        1.85314   0.00000   0.00000  -0.00001  -0.00001   1.85313
    A3        0.91284   0.00000   0.00000   0.00032   0.00032   0.91316
    A4        2.50882   0.00000   0.00000  -0.00315  -0.00315   2.50568
    D1        0.22493   0.00000   0.00000   0.00155   0.00155   0.22648
         Item               Value     Threshold  Converged?
 Maximum Force            0.000005     0.000450     YES
 RMS     Force            0.000002     0.000300     YES
 Maximum Displacement     0.001301     0.001800     YES
 RMS     Displacement     0.000896     0.001200     YES
 Predicted change in Energy= 5.112564D-09
 Optimization completed.
    -- Stationary point found.
                           ----------------------------
                           !   Optimized Parameters   !
                           ! (Angstroms and Degrees)  !
 --------------------------                            --------------------------
 ! Name  Definition              Value          Derivative Info.                !
 --------------------------------------------------------------------------------
 ! R1    R(1,2)                  3.6087         -DE/DX =    0.0                 !
 ! R2    R(1,3)                  1.1955         -DE/DX =    0.0                 !
 ! R3    R(2,4)                  0.962          -DE/DX =    0.0                 !
 ! R4    R(4,5)                  0.962          -DE/DX =    0.0                 !
 ! A1    A(2,1,3)               76.7813         -DE/DX =    0.0                 !
 ! A2    A(2,4,5)              106.1771         -DE/DX =    0.0                 !
 ! A3    L(1,2,4,3,-1)          52.3019         -DE/DX =    0.0                 !
 ! A4    L(1,2,4,3,-2)         143.745          -DE/DX =    0.0                 !
 ! D1    D(3,1,4,5)             12.8875         -DE/DX =    0.0                 !
 --------------------------------------------------------------------------------
 GradGradGradGradGradGradGradGradGradGradGradGradGradGradGradGradGradGrad

                          Input orientation:                          
 ---------------------------------------------------------------------
 Center     Atomic      Atomic             Coordinates (Angstroms)
 Number     Number       Type             X           Y           Z
 ---------------------------------------------------------------------
      1          8           0       -0.331885   -0.696062    0.542119
      2          1           0       -1.953555    1.208650   -2.058802
      3          8           0        0.079057   -1.198924   -0.461668
      4          8           0       -1.607017    0.311329   -2.069379
      5          1           0       -1.622629    0.028818   -2.988796
 ---------------------------------------------------------------------
                    Distance matrix (angstroms):
                    1          2          3          4          5
     1  O    0.000000
     2  H    3.608675   0.000000
     3  O    1.195546   3.532529   0.000000
     4  O    3.075829   0.961970   2.776409   0.000000
     5  H    3.828685   1.538313   3.284731   0.961969   0.000000
 Stoichiometry    H2O3
 Framework group  C1[X(H2O3)]
 Deg. of freedom     9
 Full point group                 C1      NOp   1
 Largest Abelian subgroup         C1      NOp   1
 Largest concise Abelian subgroup C1      NOp   1
                         Standard orientation:                         
 ---------------------------------------------------------------------
 Center     Atomic      Atomic             Coordinates (Angstroms)
 Number     Number       Type             X           Y           Z
 ---------------------------------------------------------------------
      1          8           0        1.317697   -0.537595   -0.030920
      2          1           0       -2.266914   -0.772367    0.312555
      3          8           0        0.974326    0.605437    0.039094
      4          8           0       -1.720608   -0.058619   -0.030227
      5          1           0       -2.304406    0.698579   -0.136130
 ---------------------------------------------------------------------
 Rotational constants (GHZ):     42.8194544      5.0241080      4.5093162

 **********************************************************************

            Population analysis using the SCF density.

 **********************************************************************

 Orbital symmetries:
       Occupied  (A) (A) (A) (A) (A) (A) (A) (A) (A) (A) (A) (A)
                 (A)
       Virtual   (A) (A) (A) (A) (A) (A) (A) (A) (A) (A) (A) (A)
                 (A) (A) (A) (A) (A) (A) (A) (A) (A) (A) (A) (A)
                 (A) (A) (A) (A) (A) (A) (A) (A) (A) (A) (A) (A)
                 (A) (A) (A) (A) (A) (A) (A) (A) (A) (A) (A) (A)
                 (A) (A) (A) (A) (A) (A)
 The electronic state is 1-A.
[...]

 Orbital symmetries:
       Occupied  (A) (A) (A) (A) (A) (A) (A) (A) (A) (A) (A) (A)
                 (A)
       Virtual   (A) (A) (A) (A) (A) (A) (A) (A) (A) (A) (A) (A)
                 (A) (A) (A) (A) (A) (A) (A) (A) (A) (A) (A) (A)
                 (A) (A) (A) (A) (A) (A) (A) (A) (A) (A) (A) (A)
                 (A) (A) (A) (A) (A) (A) (A) (A) (A) (A) (A) (A)
                 (A) (A) (A) (A) (A) (A)
 The electronic state is 1-A.
 Alpha  occ. eigenvalues --  -19.79163 -19.78931 -19.65709  -1.41272  -1.14177
 Alpha  occ. eigenvalues --   -0.89343  -0.61917  -0.60416  -0.60193  -0.58146
 Alpha  occ. eigenvalues --   -0.47477  -0.40394  -0.31843
 Alpha virt. eigenvalues --   -0.09488   0.06069   0.10661   0.12093   0.15382
 Alpha virt. eigenvalues --    0.16860   0.19089   0.20720   0.22817   0.23565
 Alpha virt. eigenvalues --    0.25388   0.26824   0.30978   0.33218   0.36915
 Alpha virt. eigenvalues --    0.40530   1.01099   1.05054   1.08696   1.12106
 Alpha virt. eigenvalues --    1.14619   1.15030   1.15535   1.19043   1.19851
 Alpha virt. eigenvalues --    1.22377   1.23202   1.28227   1.40822   1.55593
 Alpha virt. eigenvalues --    1.58024   1.58512   1.59661   1.61150   1.65954
 Alpha virt. eigenvalues --    1.69626   1.72355   2.01116   2.01673   2.27948
 Alpha virt. eigenvalues --    2.28986   2.58209   2.59409   2.65598   2.67296
 Alpha virt. eigenvalues --    2.67440   2.67788   2.99767   3.05773   3.37249
 Alpha virt. eigenvalues --    3.54296   3.72664   4.04119   4.14337
          Condensed to atoms (all electrons):
              1          2          3          4          5
     1  O    7.705271  -0.000818   0.316929   0.011811   0.000909
     2  H   -0.000818   0.352577   0.002865   0.289827  -0.022354
     3  O    0.316929   0.002865   7.663236  -0.044759   0.001725
     4  O    0.011811   0.289827  -0.044759   8.236037   0.287527
     5  H    0.000909  -0.022354   0.001725   0.287527   0.355556
 Mulliken atomic charges:
              1
     1  O   -0.034102
     2  H    0.377902
     3  O    0.060004
     4  O   -0.780442
     5  H    0.376637
 Sum of Mulliken atomic charges =   0.00000
 Mulliken charges with hydrogens summed into heavy atoms:
              1
     1  O   -0.034102
     3  O    0.060004
     4  O   -0.025903
 Sum of Mulliken charges with hydrogens summed into heavy atoms =   0.00000
 APT atomic charges:
              1
     1  O   -0.021403
     2  H    0.299608
     3  O    0.012780
     4  O   -0.593368
     5  H    0.302384
 Sum of APT charges=   0.00000
 APT Atomic charges with hydrogens summed into heavy atoms:
              1
     1  O   -0.021403
     2  H    0.000000
     3  O    0.012780
     4  O    0.008623
     5  H    0.000000
 Sum of APT charges=   0.00000
 Electronic spatial extent (au):  <R**2>=            253.0807
 Charge=              0.0000 electrons
 Dipole moment (field-independent basis, Debye):
    X=             -2.2793    Y=              0.1218    Z=              0.4466  Tot=              2.3258
 Quadrupole moment (field-independent basis, Debye-Ang):
   XX=             -8.2966   YY=            -15.2106   ZZ=            -18.5287
   XY=              0.2440   XZ=             -1.0458   YZ=             -0.9726
 Traceless Quadrupole moment (field-independent basis, Debye-Ang):
   XX=              5.7154   YY=             -1.1986   ZZ=             -4.5168
   XY=              0.2440   XZ=             -1.0458   YZ=             -0.9726
 Octapole moment (field-independent basis, Debye-Ang**2):
  XXX=            -20.0962  YYY=             -0.1525  ZZZ=              0.3196  XYY=             -5.1930
  XXY=              1.4478  XXZ=              2.5148  XZZ=              0.3347  YZZ=             -0.0350
  YYZ=              0.3499  XYZ=              2.1614
 Hexadecapole moment (field-independent basis, Debye-Ang**3):
 XXXX=           -158.6232 YYYY=            -33.8006 ZZZZ=            -16.1892 XXXY=              0.4978
 XXXZ=             -5.9436 YYYX=              0.5463 YYYZ=             -0.8519 ZZZX=             -0.7393
 ZZZY=             -0.7737 XXYY=            -32.4172 XXZZ=            -43.2020 YYZZ=             -9.3406
 XXYZ=             -4.7215 YYXZ=             -0.8497 ZZXY=              0.3996
 N-N= 6.544861931178D+01 E-N=-6.658486846711D+02  KE= 2.247803330579D+02
  Exact polarizability:  14.230  -2.000  19.279  -0.176  -0.024  12.378
 Approx polarizability:  14.721  -3.365  25.407  -0.373   0.054  12.003
 Calling FoFJK, ICntrl=    100127 FMM=F ISym2X=0 I1Cent= 0 IOpClX= 0 NMat=1 NMatS=1 NMatT=0.
 Full mass-weighted force constant matrix:
 Low frequencies ---  -89.4111   -0.0020   -0.0018   -0.0017   13.9767   20.0142
 Low frequencies ---   79.2841  101.4674  170.1235
 Diagonal vibrational polarizability:
       10.9004174      89.5118911     196.1348934
 Harmonic frequencies (cm**-1), IR intensities (KM/Mole), Raman scattering
 activities (A**4/AMU), depolarization ratios for plane and unpolarized
 incident light, reduced masses (AMU), force constants (mDyne/A),
 and normal coordinates:
                     1                      2                      3
                     A                      A                      A
 Frequencies --    55.9484                99.6364               157.5623
 Red. masses --    11.2259                 6.8016                 1.1681
 Frc consts  --     0.0207                 0.0398                 0.0171
 IR Inten    --     2.3797                 0.3756                22.0702
  Atom  AN      X      Y      Z        X      Y      Z        X      Y      Z
     1   8     0.55   0.05  -0.01     0.26   0.00   0.02     0.00  -0.01   0.05
     2   1    -0.13   0.37   0.26    -0.47  -0.14  -0.24     0.05  -0.35  -0.74
     3   8    -0.52  -0.27   0.00     0.29   0.02  -0.02    -0.03  -0.01  -0.06
     4   8    -0.04   0.18   0.00    -0.49  -0.01   0.00     0.03   0.03   0.02
     5   1     0.11   0.28  -0.08    -0.50   0.01   0.26    -0.04   0.05   0.56
                     4                      5                      6
                     A                      A                      A
 Frequencies --   193.7749               216.3269              1615.1547
 Red. masses --     1.1197                 1.1475                 1.0832
 Frc consts  --     0.0248                 0.0316                 1.6649
 IR Inten    --   159.4163               235.8392               106.3396
  Atom  AN      X      Y      Z        X      Y      Z        X      Y      Z
     1   8     0.00  -0.01   0.01    -0.01   0.01   0.02     0.00   0.00   0.00
     2   1     0.60  -0.17   0.45    -0.21   0.27   0.31     0.56  -0.43   0.01
     3   8     0.00  -0.01   0.00     0.00   0.01  -0.01     0.00   0.00   0.00
     4   8    -0.01   0.05  -0.07    -0.01  -0.06  -0.07    -0.07   0.00   0.01
     5   1    -0.43  -0.21   0.42     0.45   0.39   0.65     0.54   0.38  -0.24
                     7                      8                      9
                     A                      A                      A
 Frequencies --  1773.9209              3888.4179              4012.1597
 Red. masses --    15.9873                 1.0443                 1.0835
 Frc consts  --    29.6411                 9.3028                10.2765
 IR Inten    --     0.0769                15.3047                87.2684
  Atom  AN      X      Y      Z        X      Y      Z        X      Y      Z
     1   8    -0.20   0.68   0.04     0.00   0.00   0.00     0.00   0.00   0.00
     2   1    -0.01   0.01   0.00    -0.37  -0.55   0.25     0.40   0.52  -0.25
     3   8     0.20  -0.68  -0.04     0.00   0.00   0.00     0.00   0.00   0.00
     4   8     0.00   0.00   0.00     0.05   0.00  -0.01     0.00  -0.07   0.02
     5   1    -0.02  -0.01   0.01    -0.40   0.58  -0.09    -0.43   0.55  -0.08

 -------------------
 - Thermochemistry -
 -------------------
 Temperature   298.150 Kelvin.  Pressure   1.00000 Atm.
 Atom     1 has atomic number  8 and mass  15.99491
 Atom     2 has atomic number  1 and mass   1.00783
 Atom     3 has atomic number  8 and mass  15.99491
 Atom     4 has atomic number  8 and mass  15.99491
 Atom     5 has atomic number  1 and mass   1.00783
 Molecular mass:    50.00039 amu.
 Principal axes and moments of inertia in atomic units:
                           1         2         3
     Eigenvalues --    42.14769 359.21624 400.22503
           X            0.99999   0.00152  -0.00410
           Y           -0.00163   0.99957  -0.02914
           Z            0.00406   0.02915   0.99957
 This molecule is an asymmetric top.
 Rotational symmetry number  1.
 Rotational temperatures (Kelvin)      2.05501     0.24112     0.21641
 Rotational constants (GHZ):          42.81945     5.02411     4.50932
 Zero-point vibrational energy      71853.1 (Joules/Mol)
                                   17.17331 (Kcal/Mol)
 Warning -- explicit consideration of   5 degrees of freedom as
           vibrations may cause significant error
 Vibrational temperatures:     80.50   143.35   226.70   278.80   311.25
          (Kelvin)           2323.84  2552.27  5594.56  5772.60
 
 Zero-point correction=                           0.027367 (Hartree/Particle)
 Thermal correction to Energy=                    0.033499
 Thermal correction to Enthalpy=                  0.034443
 Thermal correction to Gibbs Free Energy=        -0.001572
 Sum of electronic and zero-point Energies=           -226.575570
 Sum of electronic and thermal Energies=              -226.569439
 Sum of electronic and thermal Enthalpies=            -226.568495
 Sum of electronic and thermal Free Energies=         -226.604509
 
                     E (Thermal)             CV                S
                      KCal/Mol        Cal/Mol-Kelvin    Cal/Mol-Kelvin
 Total                   21.021             15.523             75.799
 Electronic               0.000              0.000              0.000
 Translational            0.889              2.981             37.652
 Rotational               0.889              2.981             23.320
 Vibrational             19.243              9.561             14.827
 Vibration     1          0.596              1.975              4.595
 Vibration     2          0.604              1.949              3.461
 Vibration     3          0.621              1.894              2.579
 Vibration     4          0.635              1.849              2.191
 Vibration     5          0.645              1.816              1.990
                       Q            Log10(Q)             Ln(Q)
 Total Bot       0.528445D+01          0.723000          1.664769
 Total V=0       0.204694D+14         13.311105         30.649953
 Vib (Bot)       0.136465D-10        -10.864979        -25.017538
 Vib (Bot)    1  0.369263D+01          0.567336          1.306339
 Vib (Bot)    2  0.205991D+01          0.313849          0.722663
 Vib (Bot)    3  0.128404D+01          0.108578          0.250010
 Vib (Bot)    4  0.103142D+01          0.013435          0.030936
 Vib (Bot)    5  0.915772D+00         -0.038213         -0.087988
 Vib (V=0)       0.528599D+02          1.723127          3.967646
 Vib (V=0)    1  0.422633D+01          0.625963          1.441333
 Vib (V=0)    2  0.261973D+01          0.418256          0.963070
 Vib (V=0)    3  0.187795D+01          0.273685          0.630182
 Vib (V=0)    4  0.164622D+01          0.216489          0.498483
 Vib (V=0)    5  0.154338D+01          0.188472          0.433974
 Electronic      0.100000D+01          0.000000          0.000000
 Translational   0.138968D+08          7.142915         16.447170
 Rotational      0.278653D+05          4.445063         10.235137
 ***** Axes restored to original set *****
 -------------------------------------------------------------------
 Center     Atomic                   Forces (Hartrees/Bohr)
 Number     Number              X              Y              Z
 -------------------------------------------------------------------
      1        8           0.000097410    0.000104405   -0.000006479
      2        1           0.000158532    0.000071308   -0.000061141
      3        8          -0.000099723   -0.000096211    0.000012251
      4        8          -0.000006750    0.000013949    0.000010302
      5        1          -0.000149470   -0.000093450    0.000045067
 -------------------------------------------------------------------
 Cartesian Forces:  Max     0.000158532 RMS     0.000084534

 GradGradGradGradGradGradGradGradGradGradGradGradGradGradGradGradGradGrad
 Berny optimization.
 Internal  Forces:  Max     0.000004645 RMS     0.000002495
 Search for a saddle point.
 Step number   1 out of a maximum of    2
 All quantities printed in internal units (Hartrees-Bohrs-Radians)
 Swaping is turned off.
 Second derivative matrix not updated -- analytic derivatives used.
 The second derivative matrix:
                          R1        R2        R3        R4        A1
           R1           0.00452
           R2          -0.00175   0.95388
           R3          -0.00205  -0.00010   0.56175
           R4           0.00047  -0.00045  -0.00757   0.56074
           A1           0.00549   0.00373  -0.00251   0.00041   0.01116
           A2          -0.00072   0.00183   0.02822   0.02774   0.00004
           A3           0.00668  -0.00611  -0.00212   0.00115   0.00790
           A4           0.00040  -0.00207   0.00004   0.00038  -0.00251
           D1           0.00039   0.00098  -0.00048   0.00044   0.00285
                          A2        A3        A4        D1
           A2           0.15741
           A3          -0.00535   0.01961
           A4          -0.00140   0.00225   0.00103
           D1          -0.00140   0.00134   0.00151   0.00096
     Eigenvalues ---   -0.00232   0.00140   0.00212   0.00814   0.02761
     Eigenvalues ---    0.15373   0.55757   0.56887   0.95395
 Eigenvectors required to have negative eigenvalues:
                          A4        D1        A1        R1        A3
   1                    0.66197  -0.58298   0.40144  -0.22003  -0.11106
                          A2        R2        R4        R3
   1                   -0.00421  -0.00064   0.00034   0.00024
 Angle between quadratic step and forces= 105.28 degrees.
 Linear search not attempted -- option 19 set.
 Iteration  1 RMS(Cart)=  0.00061741 RMS(Int)=  0.00000057
 Iteration  2 RMS(Cart)=  0.00000082 RMS(Int)=  0.00000000
 Variable       Old X    -DE/DX   Delta X   Delta X   Delta X     New X
                                 (Linear)    (Quad)   (Total)
    R1        6.81941   0.00000   0.00000  -0.00005  -0.00005   6.81935
    R2        2.25925   0.00000   0.00000   0.00000   0.00000   2.25925
    R3        1.81786   0.00000   0.00000  -0.00001  -0.00001   1.81785
    R4        1.81786   0.00000   0.00000   0.00000   0.00000   1.81786
    A1        1.34009   0.00000   0.00000  -0.00048  -0.00048   1.33961
    A2        1.85314   0.00000   0.00000  -0.00001  -0.00001   1.85313
    A3        0.91284   0.00000   0.00000   0.00046   0.00046   0.91330
    A4        2.50882   0.00000   0.00000  -0.00221  -0.00221   2.50661
    D1        0.22493   0.00000   0.00000   0.00039   0.00039   0.22532
         Item               Value     Threshold  Converged?
 Maximum Force            0.000005     0.000450     YES
 RMS     Force            0.000002     0.000300     YES
 Maximum Displacement     0.001024     0.001800     YES
 RMS     Displacement     0.000618     0.001200     YES
 Predicted change in Energy= 2.312566D-09
 Optimization completed.
    -- Stationary point found.
                           ----------------------------
                           !   Optimized Parameters   !
                           ! (Angstroms and Degrees)  !
 --------------------------                            --------------------------
 ! Name  Definition              Value          Derivative Info.                !
 --------------------------------------------------------------------------------
 ! R1    R(1,2)                  3.6087         -DE/DX =    0.0                 !
 ! R2    R(1,3)                  1.1955         -DE/DX =    0.0                 !
 ! R3    R(2,4)                  0.962          -DE/DX =    0.0                 !
 ! R4    R(4,5)                  0.962          -DE/DX =    0.0                 !
 ! A1    A(2,1,3)               76.7813         -DE/DX =    0.0                 !
 ! A2    A(2,4,5)              106.1771         -DE/DX =    0.0                 !
 ! A3    L(1,2,4,3,-1)          52.3019         -DE/DX =    0.0                 !
 ! A4    L(1,2,4,3,-2)         143.745          -DE/DX =    0.0                 !
 ! D1    D(3,1,4,5)             12.8875         -DE/DX =    0.0                 !
 --------------------------------------------------------------------------------
 GradGradGradGradGradGradGradGradGradGradGradGradGradGradGradGradGradGrad

 1|1|UNPC-DESKTOP-319GPER|Freq|RM062X|6-31+G(d,p)|H2O3|SAGAD|08-Feb-202
 1|0||#N Geom=AllCheck Guess=TCheck SCRF=Check GenChk RM062X/6-31+G(d,p
 ) Freq||ts2||0,1|O,-0.3318847554,-0.6960622575,0.5421185265|H,-1.95355
 5003,1.2086503958,-2.0588020497|O,0.0790570165,-1.198923544,-0.4616676
 348|O,-1.6070173996,0.3113292016,-2.0693791963|H,-1.6226285285,0.02881
 7654,-2.9887960356||Version=IA32W-G09RevA.02|State=1-A|HF=-226.6029376
 |RMSD=1.678e-011|RMSF=8.453e-005|ZeroPoint=0.0273674|Thermal=0.0334987
 |Dipole=-0.2901974,0.4714592,-0.7285799|DipoleDeriv=-0.0062566,-0.0083
 661,-0.0050235,-0.0057577,-0.0083122,-0.0014423,-0.0011793,-0.0006321,
 -0.0496409,0.3633572,0.0630905,-0.0298044,0.0682837,0.2315316,0.036632
 ,-0.0245048,0.0356694,0.3039342,0.0009701,0.0055347,0.0310717,0.002600
 7,-0.0056576,-0.0286256,0.0147636,-0.0110435,0.0430277,-0.7327796,-0.0
 840106,0.0236874,-0.0922907,-0.5534395,-0.0037368,0.0439745,-0.0279266
 ,-0.493886,0.3747088,0.0237516,-0.0199313,0.027164,0.3358778,-0.002827
 3,-0.033054,0.0039327,0.1965651|Polar=13.2476482,-1.3372774,14.3563089
 ,-1.5074506,2.3930802,18.2838163|PG=C01 [X(H2O3)]|NImag=0||0.11577456,
 -0.13996484,0.16692711,-0.27513839,0.33567692,0.66877006,0.00018947,0.
 00002157,-0.00040122,0.07297992,0.00022634,-0.00016005,-0.00017958,-0.
 18612682,0.48947375,-0.00005349,0.00003698,-0.00029121,-0.00195189,0.0
 2176415,0.04721860,-0.11531589,0.13947031,0.27566017,-0.00024871,0.000
 11869,-0.00009688,0.11609071,0.13983144,-0.16665629,-0.33655599,0.0001
 3912,-0.00020061,0.00024498,-0.14029688,0.16730702,0.27638016,-0.33720
 268,-0.66882874,0.00028692,0.00050092,0.00003297,-0.27525514,0.3367535
 0,0.67153419,-0.00021629,0.00009913,-0.00023816,-0.07299595,0.17948003
 ,-0.01509285,-0.00087336,0.00062200,-0.00086184,0.08237535,-0.00031162
 ,0.00022994,0.00129873,0.18737168,-0.47665890,0.02322145,0.00095712,-0
 .00085472,-0.00034042,-0.19600991,0.55886893,-0.00095388,0.00124353,0.
 00025406,0.00637039,-0.03243777,-0.04461689,-0.00031295,-0.00030677,-0
 .00215047,0.01981317,0.14445776,0.55129954,-0.00043185,0.00037384,0.00
 011760,0.00007527,0.00630176,0.01719512,0.00034725,-0.00029567,-0.0005
 5010,-0.00828975,0.00799273,-0.02491673,0.00829908,0.00021868,-0.00034
 071,-0.00024007,-0.00140555,-0.01245418,-0.04526756,-0.00024924,0.0004
 0460,0.00028867,0.01580876,-0.08158525,-0.11295674,-0.01437265,0.09397
 553,-0.00023440,0.00024526,0.00009583,-0.00430419,0.01035228,-0.002343
 47,0.00000480,-0.00013572,-0.00058795,-0.00362033,-0.16863753,-0.50478
 624,0.00815411,0.15817570,0.50762184||-0.00009741,-0.00010440,0.000006
 48,-0.00015853,-0.00007131,0.00006114,0.00009972,0.00009621,-0.0000122
 5,0.00000675,-0.00001395,-0.00001030,0.00014947,0.00009345,-0.00004507
 |||@


 WE ARE REACHING THE STAGE WHERE THE PROBLEMS WE MUST SOLVE ARE 
 GOING TO BECOME INSOLUBLE WITHOUT COMPUTERS.
 I DO NOT FEAR COMPUTERS.  I FEAR THE LACK OF THEM.

                                   -- ISSAC ASIMOV
 Job cpu time:  0 days  0 hours  0 minutes 10.0 seconds.
 File lengths (MBytes):  RWF=      6 Int=      0 D2E=      0 Chk=      1 Scr=      1
 Normal termination of Gaussian 09 at Mon Feb 08 05:58:14 2021.
