 Entering Link 1 = C:\G09W\l1.exe PID=      6924.
  
 Copyright (c) 1988,1990,1992,1993,1995,1998,2003,2009, Gaussian, Inc.
                  All Rights Reserved.
  
 This is part of the Gaussian(R) 09 program.  It is based on
 the Gaussian(R) 03 system (copyright 2003, Gaussian, Inc.),
 the Gaussian(R) 98 system (copyright 1998, Gaussian, Inc.),
 the Gaussian(R) 94 system (copyright 1995, Gaussian, Inc.),
 the Gaussian 92(TM) system (copyright 1992, Gaussian, Inc.),
 the Gaussian 90(TM) system (copyright 1990, Gaussian, Inc.),
 the Gaussian 88(TM) system (copyright 1988, Gaussian, Inc.),
 the Gaussian 86(TM) system (copyright 1986, Carnegie Mellon
 University), and the Gaussian 82(TM) system (copyright 1983,
 Carnegie Mellon University). Gaussian is a federally registered
 trademark of Gaussian, Inc.
  
 This software contains proprietary and confidential information,
 including trade secrets, belonging to Gaussian, Inc.
  
 This software is provided under written license and may be
 used, copied, transmitted, or stored only in accord with that
 written license.
  
 The following legend is applicable only to US Government
 contracts under FAR:
  
                    RESTRICTED RIGHTS LEGEND
  
 Use, reproduction and disclosure by the US Government is
 subject to restrictions as set forth in subparagraphs (a)
 and (c) of the Commercial Computer Software - Restricted
 Rights clause in FAR 52.227-19.
  
 Gaussian, Inc.
 340 Quinnipiac St., Bldg. 40, Wallingford CT 06492
  
  
 ---------------------------------------------------------------
 Warning -- This program may not be used in any manner that
 competes with the business of Gaussian, Inc. or will provide
 assistance to any competitor of Gaussian, Inc.  The licensee
 of this program is prohibited from giving any competitor of
 Gaussian, Inc. access to this program.  By using this program,
 the user acknowledges that Gaussian, Inc. is engaged in the
 business of creating and licensing software in the field of
 computational chemistry and represents and warrants to the
 licensee that it is not a competitor of Gaussian, Inc. and that
 it will not use this program in any manner prohibited above.
 ---------------------------------------------------------------
  

 Cite this work as:
 Gaussian 09, Revision A.02,
 M. J. Frisch, G. W. Trucks, H. B. Schlegel, G. E. Scuseria, 
 M. A. Robb, J. R. Cheeseman, G. Scalmani, V. Barone, B. Mennucci, 
 G. A. Petersson, H. Nakatsuji, M. Caricato, X. Li, H. P. Hratchian, 
 A. F. Izmaylov, J. Bloino, G. Zheng, J. L. Sonnenberg, M. Hada, 
 M. Ehara, K. Toyota, R. Fukuda, J. Hasegawa, M. Ishida, T. Nakajima, 
 Y. Honda, O. Kitao, H. Nakai, T. Vreven, J. A. Montgomery, Jr., 
 J. E. Peralta, F. Ogliaro, M. Bearpark, J. J. Heyd, E. Brothers, 
 K. N. Kudin, V. N. Staroverov, R. Kobayashi, J. Normand, 
 K. Raghavachari, A. Rendell, J. C. Burant, S. S. Iyengar, J. Tomasi, 
 M. Cossi, N. Rega, J. M. Millam, M. Klene, J. E. Knox, J. B. Cross, 
 V. Bakken, C. Adamo, J. Jaramillo, R. Gomperts, R. E. Stratmann, 
 O. Yazyev, A. J. Austin, R. Cammi, C. Pomelli, J. W. Ochterski, 
 R. L. Martin, K. Morokuma, V. G. Zakrzewski, G. A. Voth, 
 P. Salvador, J. J. Dannenberg, S. Dapprich, A. D. Daniels, 
 O. Farkas, J. B. Foresman, J. V. Ortiz, J. Cioslowski, 
 and D. J. Fox, Gaussian, Inc., Wallingford CT, 2009.
 
 ******************************************
 Gaussian 09:  IA32W-G09RevA.02 11-Jun-2009
                08-Feb-2021 
 ******************************************
 %chk=D:\Documents\rayGit\FQ\quimicaComputacional\proyecto\decompositionHydrogenP
 eroxide\descompositionByRadicals\gasPhase\step4\ts\tsM062X.chk
 %mem=1500MB
 %nprocshared=4
 Will use up to    4 processors via shared memory.
 ----------------------------------------------------------------------
 # opt=(readfc,ts,noeigen) geom=check guess=check freq=noraman 6-31+g(d
 ,p) m062x
 ----------------------------------------------------------------------
 1/5=1,10=3,11=1,14=-1,18=20,26=3,29=2,38=1/1,3;
 2/9=110,12=2,40=1/2;
 3/5=1,6=6,7=111,11=2,14=-4,16=1,25=1,30=1,71=1,74=-55,116=-2/1,2,3;
 4/5=1/1;
 5/5=2,38=6/2;
 6/7=2,8=2,9=2,10=2,28=1/1;
 7//1,2,3,16;
 1/5=1,11=1,14=-1,18=20/3(2);
 2/9=110/2;
 99//99;
 2/9=110/2;
 3/5=1,6=6,7=111,11=2,14=-2,16=1,25=1,30=1,71=1,74=-55/1,2,3;
 4/5=5,16=3/1;
 5/5=2,38=5/2;
 7//1,2,3,16;
 1/5=1,11=1,14=-1,18=20/3(-5);
 2/9=110/2;
 6/7=2,8=2,9=2,10=2,19=2,28=1/1;
 99/9=1/99;
 ---
 ts2
 ---
 Redundant internal coordinates taken from checkpoint file:
 D:\Documents\rayGit\FQ\quimicaComputacional\proyecto\decompositionHydrogenPeroxide\descompositionByRadicals\gasPhase\step4\ts\tsM062X.chk
 Charge =  0 Multiplicity = 1
 O,0,-0.6535792103,-0.784748347,0.247868286
 H,0,-1.4817073851,0.9802130568,-1.8588777606
 O,0,0.4189510785,-0.7539706292,-0.2808453143
 O,0,-1.6716857601,0.0783339602,-2.1306618978
 H,0,-2.0480073929,0.1339834091,-3.0140097034
 Recover connectivity data from disk.

 GradGradGradGradGradGradGradGradGradGradGradGradGradGradGradGradGradGrad
 Berny optimization.
 Initialization pass.
 Force constant matrix read from checkpoint file:
 D:\Documents\rayGit\FQ\quimicaComputacional\proyecto\decompositionHydrogenPeroxi
 de\descompositionByRadicals\gasPhase\step4\ts\tsM062X.chk
                           ----------------------------
                           !    Initial Parameters    !
                           ! (Angstroms and Degrees)  !
 --------------------------                            --------------------------
 ! Name  Definition              Value          Derivative Info.                !
 --------------------------------------------------------------------------------
 ! R1    R(1,2)                  2.8704         D2E/DX2 =    0.0068             !
 ! R2    R(1,3)                  1.1962         D2E/DX2 =    0.9044             !
 ! R3    R(2,4)                  0.9609         D2E/DX2 =    0.345              !
 ! R4    R(4,5)                  0.9618         D2E/DX2 =    0.5651             !
 ! A1    A(2,1,3)               85.3224         D2E/DX2 =    0.044              !
 ! A2    A(2,4,5)              106.429          D2E/DX2 =    0.1158             !
 ! A3    L(1,2,4,3,-1)          97.7859         D2E/DX2 =    0.0225             !
 ! A4    L(1,2,4,3,-2)          79.8181         D2E/DX2 =    0.008              !
 ! D1    D(3,1,4,5)             90.0541         D2E/DX2 =    0.0004             !
 --------------------------------------------------------------------------------
 Trust Radius=3.00D-01 FncErr=1.00D-07 GrdErr=1.00D-06
 Number of steps in this run=  20 maximum allowed number of steps= 100.
 Search for a saddle point of order  1.
 GradGradGradGradGradGradGradGradGradGradGradGradGradGradGradGradGradGrad

                          Input orientation:                          
 ---------------------------------------------------------------------
 Center     Atomic      Atomic             Coordinates (Angstroms)
 Number     Number       Type             X           Y           Z
 ---------------------------------------------------------------------
      1          8           0       -0.653579   -0.784748    0.247868
      2          1           0       -1.481707    0.980213   -1.858878
      3          8           0        0.418951   -0.753971   -0.280845
      4          8           0       -1.671686    0.078334   -2.130662
      5          1           0       -2.048007    0.133983   -3.014010
 ---------------------------------------------------------------------
                    Distance matrix (angstroms):
                    1          2          3          4          5
     1  O    0.000000
     2  H    2.870412   0.000000
     3  O    1.196163   3.018291   0.000000
     4  O    2.727427   0.960908   2.912956   0.000000
     5  H    3.664471   1.539847   3.787418   0.961779   0.000000
 Stoichiometry    H2O3
 Framework group  C1[X(H2O3)]
 Deg. of freedom     9
 Full point group                 C1      NOp   1
 Largest Abelian subgroup         C1      NOp   1
 Largest concise Abelian subgroup C1      NOp   1
                         Standard orientation:                         
 ---------------------------------------------------------------------
 Center     Atomic      Atomic             Coordinates (Angstroms)
 Number     Number       Type             X           Y           Z
 ---------------------------------------------------------------------
      1          8           0       -0.995865    0.606836   -0.007241
      2          1           0        1.641780   -0.070099    0.900423
      3          8           0       -1.192624   -0.573033   -0.006932
      4          8           0        1.662848    0.000569   -0.057651
      5          1           0        2.563345   -0.204876   -0.325825
 ---------------------------------------------------------------------
 Rotational constants (GHZ):     41.5951225      5.4453661      4.9054232
 Standard basis: 6-31+G(d,p) (6D, 7F)
 There are    67 symmetry adapted basis functions of A   symmetry.
 Integral buffers will be    262144 words long.
 Raffenetti 2 integral format.
 Two-electron integral symmetry is turned on.
    67 basis functions,   110 primitive gaussians,    67 cartesian basis functions
    13 alpha electrons       13 beta electrons
       nuclear repulsion energy        66.6584890484 Hartrees.
 NAtoms=    5 NActive=    5 NUniq=    5 SFac= 7.50D-01 NAtFMM=   80 NAOKFM=F Big=F
 One-electron integrals computed using PRISM.
 NBasis=    67 RedAO= T  NBF=    67
 NBsUse=    67 1.00D-06 NBFU=    67
 Initial guess read from the checkpoint file:  D:\Documents\rayGit\FQ\quimicaComp
 utacional\proyecto\decompositionHydrogenPeroxide\descompositionByRadicals\gasPha
 se\step4\ts\tsM062X.chk
 B after Tr=     0.000000    0.000000    0.000000
         Rot=    1.000000    0.000000    0.000000    0.000000 Ang=   0.00 deg.
 Initial guess orbital symmetries:
       Occupied  (A) (A) (A) (A) (A) (A) (A) (A) (A) (A) (A) (A)
                 (A)
       Virtual   (A) (A) (A) (A) (A) (A) (A) (A) (A) (A) (A) (A)
                 (A) (A) (A) (A) (A) (A) (A) (A) (A) (A) (A) (A)
                 (A) (A) (A) (A) (A) (A) (A) (A) (A) (A) (A) (A)
                 (A) (A) (A) (A) (A) (A) (A) (A) (A) (A) (A) (A)
                 (A) (A) (A) (A) (A) (A)
 Requested convergence on RMS density matrix=1.00D-08 within 128 cycles.
 Requested convergence on MAX density matrix=1.00D-06.
 Requested convergence on             energy=1.00D-06.
 No special actions if energy rises.
 Keep R1 ints in memory in canonical form, NReq=3550937.
 SCF Done:  E(RM062X) =  -226.603172482     A.U. after    1 cycles
             Convg  =    0.2561D-09             -V/T =  2.0081

 **********************************************************************

            Population analysis using the SCF density.

 **********************************************************************

 Orbital symmetries:
       Occupied  (A) (A) (A) (A) (A) (A) (A) (A) (A) (A) (A) (A)
                 (A)
       Virtual   (A) (A) (A) (A) (A) (A) (A) (A) (A) (A) (A) (A)
                 (A) (A) (A) (A) (A) (A) (A) (A) (A) (A) (A) (A)
                 (A) (A) (A) (A) (A) (A) (A) (A) (A) (A) (A) (A)
                 (A) (A) (A) (A) (A) (A) (A) (A) (A) (A) (A) (A)
                 (A) (A) (A) (A) (A) (A)
 The electronic state is 1-A.
 Alpha  occ. eigenvalues --  -19.79646 -19.79510 -19.65654  -1.41772  -1.14171
 Alpha  occ. eigenvalues --   -0.89851  -0.62347  -0.60831  -0.60570  -0.58455
 Alpha  occ. eigenvalues --   -0.47387  -0.40379  -0.32405
 Alpha virt. eigenvalues --   -0.09976   0.06003   0.11225   0.11685   0.13845
 Alpha virt. eigenvalues --    0.18398   0.19395   0.20055   0.21570   0.23434
 Alpha virt. eigenvalues --    0.26594   0.27242   0.29511   0.34467   0.36669
 Alpha virt. eigenvalues --    0.38507   0.97878   1.04952   1.07914   1.10599
 Alpha virt. eigenvalues --    1.14306   1.14772   1.17485   1.18976   1.21373
 Alpha virt. eigenvalues --    1.21766   1.24953   1.27433   1.44257   1.56221
 Alpha virt. eigenvalues --    1.57780   1.58705   1.59561   1.60677   1.67105
 Alpha virt. eigenvalues --    1.69107   1.71988   2.00363   2.00891   2.28705
 Alpha virt. eigenvalues --    2.28879   2.58231   2.58909   2.64663   2.66927
 Alpha virt. eigenvalues --    2.67368   2.68348   2.99233   3.05961   3.38749
 Alpha virt. eigenvalues --    3.54837   3.74789   4.07489   4.12780
          Condensed to atoms (all electrons):
              1          2          3          4          5
     1  O    7.675179   0.004304   0.311851  -0.023442   0.001976
     2  H    0.004304   0.362433  -0.000718   0.291770  -0.022592
     3  O    0.311851  -0.000718   7.702985   0.001405  -0.000261
     4  O   -0.023442   0.291770   0.001405   8.216577   0.288407
     5  H    0.001976  -0.022592  -0.000261   0.288407   0.337427
 Mulliken atomic charges:
              1
     1  O    0.030133
     2  H    0.364804
     3  O   -0.015263
     4  O   -0.774717
     5  H    0.395043
 Sum of Mulliken atomic charges =   0.00000
 Mulliken charges with hydrogens summed into heavy atoms:
              1
     1  O    0.030133
     3  O   -0.015263
     4  O   -0.014870
 Sum of Mulliken charges with hydrogens summed into heavy atoms =   0.00000
 Electronic spatial extent (au):  <R**2>=            237.0854
 Charge=              0.0000 electrons
 Dipole moment (field-independent basis, Debye):
    X=              1.8010    Y=             -0.4860    Z=              1.2622  Tot=              2.2523
 Quadrupole moment (field-independent basis, Debye-Ang):
   XX=             -9.5619   YY=            -18.3503   ZZ=            -15.9268
   XY=             -1.6053   XZ=              0.7504   YZ=              0.1092
 Traceless Quadrupole moment (field-independent basis, Debye-Ang):
   XX=              5.0511   YY=             -3.7373   ZZ=             -1.3138
   XY=             -1.6053   XZ=              0.7504   YZ=              0.1092
 Octapole moment (field-independent basis, Debye-Ang**2):
  XXX=             18.9413  YYY=             -0.1804  ZZZ=              1.9902  XYY=             -1.2371
  XXY=             -3.0944  XXZ=              1.4174  XZZ=              3.4245  YZZ=             -0.2237
  YYZ=              0.1987  XYZ=              0.0556
 Hexadecapole moment (field-independent basis, Debye-Ang**3):
 XXXX=           -138.9019 YYYY=            -36.0858 ZZZZ=            -14.5567 XXXY=            -10.2797
 XXXZ=             -6.9168 YYYX=             -0.7361 YYYZ=              0.2792 ZZZX=              2.4520
 ZZZY=             -0.0328 XXYY=            -43.4116 XXZZ=            -32.6469 YYZZ=             -9.5512
 XXYZ=              0.6876 YYXZ=             -0.2659 ZZXY=             -0.6678
 N-N= 6.665848904838D+01 E-N=-6.681932695877D+02  KE= 2.247855251396D+02
 Calling FoFJK, ICntrl=      2127 FMM=F ISym2X=0 I1Cent= 0 IOpClX= 0 NMat=1 NMatS=1 NMatT=0.
 ***** Axes restored to original set *****
 -------------------------------------------------------------------
 Center     Atomic                   Forces (Hartrees/Bohr)
 Number     Number              X              Y              Z
 -------------------------------------------------------------------
      1        8           0.000358061    0.000011765    0.000270866
      2        1          -0.000024044    0.001901854    0.000280901
      3        8          -0.000440992   -0.000163974   -0.000071841
      4        8           0.000308586   -0.001779121   -0.000554649
      5        1          -0.000201611    0.000029476    0.000074722
 -------------------------------------------------------------------
 Cartesian Forces:  Max     0.001901854 RMS     0.000718331

 GradGradGradGradGradGradGradGradGradGradGradGradGradGradGradGradGradGrad
 Berny optimization.
 Internal  Forces:  Max     0.001734200 RMS     0.000647739
 Search for a saddle point.
 Step number   1 out of a maximum of   20
 All quantities printed in internal units (Hartrees-Bohrs-Radians)
 Swaping is turned off.
 Second derivative matrix not updated -- first step.
 The second derivative matrix:
                          R1        R2        R3        R4        A1
           R1           0.00676
           R2          -0.00029   0.90438
           R3           0.00048   0.01078   0.34500
           R4           0.00045  -0.00120  -0.00550   0.56508
           A1           0.00301   0.00924   0.00744  -0.00070   0.04399
           A2           0.00369  -0.00228   0.02049   0.01643  -0.00557
           A3           0.01069  -0.00722   0.01114   0.00103  -0.01193
           A4           0.00316   0.00064  -0.01012   0.00058   0.00493
           D1          -0.00065  -0.00119   0.00841  -0.00056  -0.00099
                          A2        A3        A4        D1
           A2           0.11583
           A3           0.00833   0.02254
           A4          -0.00030   0.00269   0.00805
           D1          -0.00161  -0.00139   0.00282   0.00040
     Eigenvalues ---   -0.00175  -0.00024   0.00733   0.02530   0.04836
     Eigenvalues ---    0.11488   0.34761   0.56579   0.90476
 Eigenvectors required to have negative eigenvalues:
                          D1        A4        A3        R1        A1
   1                    0.86391  -0.38314   0.24618  -0.15440   0.14264
                          R3        A2        R2        R4
   1                   -0.04372   0.01267   0.00242   0.00032
 RFO step:  Lambda0=8.904567299D-05 Lambda=-5.50413980D-04.
 Linear search not attempted -- option 19 set.
 Maximum step size (   0.300) exceeded in Quadratic search.
    -- Step size scaled by   0.292
 Iteration  1 RMS(Cart)=  0.08460381 RMS(Int)=  0.01596434
 Iteration  2 RMS(Cart)=  0.01298707 RMS(Int)=  0.00004859
 Iteration  3 RMS(Cart)=  0.00004396 RMS(Int)=  0.00000000
 Iteration  4 RMS(Cart)=  0.00000000 RMS(Int)=  0.00000000
 Variable       Old X    -DE/DX   Delta X   Delta X   Delta X     New X
                                 (Linear)    (Quad)   (Total)
    R1        5.42429   0.00017   0.00000   0.23020   0.23020   5.65450
    R2        2.26042  -0.00024   0.00000  -0.00034  -0.00034   2.26008
    R3        1.81585   0.00173   0.00000   0.00117   0.00117   1.81702
    R4        1.81750   0.00002   0.00000   0.00017   0.00017   1.81767
    A1        1.48916  -0.00033   0.00000  -0.04144  -0.04144   1.44771
    A2        1.85754  -0.00010   0.00000   0.00065   0.00065   1.85818
    A3        1.70669  -0.00054   0.00000  -0.12092  -0.12092   1.58577
    A4        1.39309   0.00052   0.00000  -0.04962  -0.04962   1.34347
    D1        1.57174   0.00009   0.00000   0.13492   0.13492   1.70666
         Item               Value     Threshold  Converged?
 Maximum Force            0.001734     0.000450     NO 
 RMS     Force            0.000648     0.000300     NO 
 Maximum Displacement     0.127252     0.001800     NO 
 RMS     Displacement     0.085394     0.001200     NO 
 Predicted change in Energy=-1.173854D-04
 GradGradGradGradGradGradGradGradGradGradGradGradGradGradGradGradGradGrad

                          Input orientation:                          
 ---------------------------------------------------------------------
 Center     Atomic      Atomic             Coordinates (Angstroms)
 Number     Number       Type             X           Y           Z
 ---------------------------------------------------------------------
      1          8           0       -0.655466   -0.835497    0.253122
      2          1           0       -1.504516    1.047552   -1.911753
      3          8           0        0.405890   -0.749656   -0.291420
      4          8           0       -1.639631    0.115789   -2.106937
      5          1           0       -2.042305    0.075623   -2.979538
 ---------------------------------------------------------------------
                    Distance matrix (angstroms):
                    1          2          3          4          5
     1  O    0.000000
     2  H    2.992230   0.000000
     3  O    1.195981   3.083032   0.000000
     4  O    2.728261   0.961527   2.868668   0.000000
     5  H    3.633670   1.540789   3.728368   0.961869   0.000000
 Stoichiometry    H2O3
 Framework group  C1[X(H2O3)]
 Deg. of freedom     9
 Full point group                 C1      NOp   1
 Largest Abelian subgroup         C1      NOp   1
 Largest concise Abelian subgroup C1      NOp   1
                         Standard orientation:                         
 ---------------------------------------------------------------------
 Center     Atomic      Atomic             Coordinates (Angstroms)
 Number     Number       Type             X           Y           Z
 ---------------------------------------------------------------------
      1          8           0       -1.015387    0.606419   -0.001459
      2          1           0        1.744573   -0.113551    0.902812
      3          8           0       -1.162566   -0.580431   -0.011329
      4          8           0        1.645452    0.005299   -0.046179
      5          1           0        2.515433   -0.136744   -0.431079
 ---------------------------------------------------------------------
 Rotational constants (GHZ):     40.9701460      5.5204266      4.9640432
 Standard basis: 6-31+G(d,p) (6D, 7F)
 There are    67 symmetry adapted basis functions of A   symmetry.
 Integral buffers will be    262144 words long.
 Raffenetti 2 integral format.
 Two-electron integral symmetry is turned on.
    67 basis functions,   110 primitive gaussians,    67 cartesian basis functions
    13 alpha electrons       13 beta electrons
       nuclear repulsion energy        66.7730371755 Hartrees.
 NAtoms=    5 NActive=    5 NUniq=    5 SFac= 7.50D-01 NAtFMM=   80 NAOKFM=F Big=F
 One-electron integrals computed using PRISM.
 NBasis=    67 RedAO= T  NBF=    67
 NBsUse=    67 1.00D-06 NBFU=    67
 Initial guess read from the read-write file.
 B after Tr=     0.000000    0.000000    0.000000
         Rot=    1.000000    0.000000    0.000000    0.000000 Ang=   0.00 deg.
 Initial guess orbital symmetries:
       Occupied  (A) (A) (A) (A) (A) (A) (A) (A) (A) (A) (A) (A)
                 (A)
       Virtual   (A) (A) (A) (A) (A) (A) (A) (A) (A) (A) (A) (A)
                 (A) (A) (A) (A) (A) (A) (A) (A) (A) (A) (A) (A)
                 (A) (A) (A) (A) (A) (A) (A) (A) (A) (A) (A) (A)
                 (A) (A) (A) (A) (A) (A) (A) (A) (A) (A) (A) (A)
                 (A) (A) (A) (A) (A) (A)
 Harris functional with IExCor= 1009 diagonalized for initial guess.
 ExpMin= 8.45D-02 ExpMax= 5.48D+03 ExpMxC= 8.25D+02 IAcc=2 IRadAn=         0 AccDes= 0.00D+00
 HarFok:  IExCor= 1009 AccDes= 0.00D+00 IRadAn=         0 IDoV= 1
 ScaDFX=  1.000000  1.000000  1.000000  1.000000
 FoFCou: FMM=F IPFlag=           0 FMFlag=      100000 FMFlg1=           0
         NFxFlg=           0 DoJE=T BraDBF=F KetDBF=T FulRan=T
         Omega=  0.000000  0.000000  1.000000  0.000000  0.000000 ICntrl=     500 IOpCl=  0
         NMat0=    1 NMatS0=    1 NMatT0=    0 NMatD0=    1 NMtDS0=    0 NMtDT0=    0
         I1Cent=           4 NGrid=           0.
 Petite list used in FoFCou.
 Requested convergence on RMS density matrix=1.00D-08 within 128 cycles.
 Requested convergence on MAX density matrix=1.00D-06.
 Requested convergence on             energy=1.00D-06.
 No special actions if energy rises.
 Keep R1 ints in memory in canonical form, NReq=3550937.
 Integral accuracy reduced to 1.0D-05 until final iterations.
 Initial convergence to 1.0D-05 achieved.  Increase integral accuracy.
 SCF Done:  E(RM062X) =  -226.603269101     A.U. after   34 cycles
             Convg  =    0.2395D-08             -V/T =  2.0081
 Calling FoFJK, ICntrl=      2127 FMM=F ISym2X=0 I1Cent= 0 IOpClX= 0 NMat=1 NMatS=1 NMatT=0.
 ***** Axes restored to original set *****
 -------------------------------------------------------------------
 Center     Atomic                   Forces (Hartrees/Bohr)
 Number     Number              X              Y              Z
 -------------------------------------------------------------------
      1        8           0.000330404   -0.000120969    0.000316952
      2        1          -0.000265481    0.001177258   -0.000230164
      3        8          -0.000309670   -0.000073374    0.000036280
      4        8           0.000362707   -0.001318147   -0.000226414
      5        1          -0.000117959    0.000335232    0.000103346
 -------------------------------------------------------------------
 Cartesian Forces:  Max     0.001318147 RMS     0.000509480

 GradGradGradGradGradGradGradGradGradGradGradGradGradGradGradGradGradGrad
 Berny optimization.
 Internal  Forces:  Max     0.000920827 RMS     0.000427655
 Search for a saddle point.
 Step number   2 out of a maximum of   20
 All quantities printed in internal units (Hartrees-Bohrs-Radians)
 Swaping is turned off.
 Update second derivatives using D2CorX and points    1    2
 The second derivative matrix:
                          R1        R2        R3        R4        A1
           R1           0.00597
           R2          -0.00007   0.90439
           R3           0.00122   0.01080   0.34508
           R4           0.00062  -0.00119  -0.00548   0.56509
           A1           0.00269   0.00919   0.00727  -0.00075   0.04415
           A2           0.00496  -0.00224   0.02062   0.01646  -0.00587
           A3           0.00985  -0.00737   0.01063   0.00091  -0.01147
           A4           0.00304   0.00058  -0.01031   0.00054   0.00507
           D1          -0.00100  -0.00106   0.00886  -0.00046  -0.00121
                          A2        A3        A4        D1
           A2           0.11604
           A3           0.00746   0.02383
           A4          -0.00062   0.00307   0.00815
           D1          -0.00085  -0.00195   0.00272   0.00026
     Eigenvalues ---   -0.00197   0.00025   0.00736   0.02565   0.04837
     Eigenvalues ---    0.11504   0.34770   0.56579   0.90477
 Eigenvectors required to have negative eigenvalues:
                          D1        A4        A3        A1        R3
   1                    0.88861  -0.39827   0.18741   0.12116  -0.04320
                          R1        A2        R2        R4
   1                   -0.00631   0.00630   0.00212   0.00037
 RFO step:  Lambda0=8.165018227D-06 Lambda=-2.62708821D-04.
 Linear search not attempted -- option 19 set.
 Maximum step size (   0.300) exceeded in Quadratic search.
    -- Step size scaled by   0.446
 Iteration  1 RMS(Cart)=  0.08067231 RMS(Int)=  0.02153979
 Iteration  2 RMS(Cart)=  0.02411479 RMS(Int)=  0.00002980
 Iteration  3 RMS(Cart)=  0.00002452 RMS(Int)=  0.00000000
 Iteration  4 RMS(Cart)=  0.00000000 RMS(Int)=  0.00000000
 Variable       Old X    -DE/DX   Delta X   Delta X   Delta X     New X
                                 (Linear)    (Quad)   (Total)
    R1        5.65450   0.00038   0.00000   0.26271   0.26271   5.91720
    R2        2.26008  -0.00026   0.00000  -0.00061  -0.00061   2.25946
    R3        1.81702   0.00092   0.00000   0.00355   0.00355   1.82057
    R4        1.81767  -0.00006   0.00000   0.00014   0.00014   1.81781
    A1        1.44771  -0.00009   0.00000  -0.04664  -0.04664   1.40107
    A2        1.85818  -0.00060   0.00000  -0.00832  -0.00832   1.84987
    A3        1.58577  -0.00001   0.00000  -0.12213  -0.12213   1.46364
    A4        1.34347   0.00045   0.00000  -0.01436  -0.01436   1.32911
    D1        1.70666   0.00012   0.00000   0.06005   0.06005   1.76671
         Item               Value     Threshold  Converged?
 Maximum Force            0.000921     0.000450     NO 
 RMS     Force            0.000428     0.000300     NO 
 Maximum Displacement     0.112995     0.001800     NO 
 RMS     Displacement     0.082420     0.001200     NO 
 Predicted change in Energy=-9.996002D-05
 GradGradGradGradGradGradGradGradGradGradGradGradGradGradGradGradGradGrad

                          Input orientation:                          
 ---------------------------------------------------------------------
 Center     Atomic      Atomic             Coordinates (Angstroms)
 Number     Number       Type             X           Y           Z
 ---------------------------------------------------------------------
      1          8           0       -0.646074   -0.882873    0.277353
      2          1           0       -1.539517    1.107346   -1.968868
      3          8           0        0.391276   -0.754706   -0.303226
      4          8           0       -1.610263    0.154597   -2.093028
      5          1           0       -2.031449    0.029448   -2.948758
 ---------------------------------------------------------------------
                    Distance matrix (angstroms):
                    1          2          3          4          5
     1  O    0.000000
     2  H    3.131249   0.000000
     3  O    1.195656   3.157462   0.000000
     4  O    2.761288   0.963406   2.834852   0.000000
     5  H    3.627587   1.537545   3.671966   0.961942   0.000000
 Stoichiometry    H2O3
 Framework group  C1[X(H2O3)]
 Deg. of freedom     9
 Full point group                 C1      NOp   1
 Largest Abelian subgroup         C1      NOp   1
 Largest concise Abelian subgroup C1      NOp   1
                         Standard orientation:                         
 ---------------------------------------------------------------------
 Center     Atomic      Atomic             Coordinates (Angstroms)
 Number     Number       Type             X           Y           Z
 ---------------------------------------------------------------------
      1          8           0       -1.055029    0.602731    0.002311
      2          1           0        1.859204   -0.117249    0.893151
      3          8           0       -1.128223   -0.590586   -0.012826
      4          8           0        1.641896    0.011295   -0.036583
      5          1           0        2.471644   -0.070269   -0.516372
 ---------------------------------------------------------------------
 Rotational constants (GHZ):     40.4308137      5.5142163      4.9563093
 Standard basis: 6-31+G(d,p) (6D, 7F)
 There are    67 symmetry adapted basis functions of A   symmetry.
 Integral buffers will be    262144 words long.
 Raffenetti 2 integral format.
 Two-electron integral symmetry is turned on.
    67 basis functions,   110 primitive gaussians,    67 cartesian basis functions
    13 alpha electrons       13 beta electrons
       nuclear repulsion energy        66.6891031871 Hartrees.
 NAtoms=    5 NActive=    5 NUniq=    5 SFac= 7.50D-01 NAtFMM=   80 NAOKFM=F Big=F
 One-electron integrals computed using PRISM.
 NBasis=    67 RedAO= T  NBF=    67
 NBsUse=    67 1.00D-06 NBFU=    67
 Initial guess read from the read-write file.
 B after Tr=     0.000000    0.000000    0.000000
         Rot=    1.000000    0.000000    0.000000    0.000000 Ang=   0.00 deg.
 Initial guess orbital symmetries:
       Occupied  (A) (A) (A) (A) (A) (A) (A) (A) (A) (A) (A) (A)
                 (A)
       Virtual   (A) (A) (A) (A) (A) (A) (A) (A) (A) (A) (A) (A)
                 (A) (A) (A) (A) (A) (A) (A) (A) (A) (A) (A) (A)
                 (A) (A) (A) (A) (A) (A) (A) (A) (A) (A) (A) (A)
                 (A) (A) (A) (A) (A) (A) (A) (A) (A) (A) (A) (A)
                 (A) (A) (A) (A) (A) (A)
 Harris functional with IExCor= 1009 diagonalized for initial guess.
 ExpMin= 8.45D-02 ExpMax= 5.48D+03 ExpMxC= 8.25D+02 IAcc=2 IRadAn=         0 AccDes= 0.00D+00
 HarFok:  IExCor= 1009 AccDes= 0.00D+00 IRadAn=         0 IDoV= 1
 ScaDFX=  1.000000  1.000000  1.000000  1.000000
 FoFCou: FMM=F IPFlag=           0 FMFlag=      100000 FMFlg1=           0
         NFxFlg=           0 DoJE=T BraDBF=F KetDBF=T FulRan=T
         Omega=  0.000000  0.000000  1.000000  0.000000  0.000000 ICntrl=     500 IOpCl=  0
         NMat0=    1 NMatS0=    1 NMatT0=    0 NMatD0=    1 NMtDS0=    0 NMtDT0=    0
         I1Cent=           4 NGrid=           0.
 Petite list used in FoFCou.
 Requested convergence on RMS density matrix=1.00D-08 within 128 cycles.
 Requested convergence on MAX density matrix=1.00D-06.
 Requested convergence on             energy=1.00D-06.
 No special actions if energy rises.
 Keep R1 ints in memory in canonical form, NReq=3550937.
 Integral accuracy reduced to 1.0D-05 until final iterations.
 Initial convergence to 1.0D-05 achieved.  Increase integral accuracy.
 SCF Done:  E(RM062X) =  -226.603376630     A.U. after   25 cycles
             Convg  =    0.5567D-08             -V/T =  2.0081
 Calling FoFJK, ICntrl=      2127 FMM=F ISym2X=0 I1Cent= 0 IOpClX= 0 NMat=1 NMatS=1 NMatT=0.
 ***** Axes restored to original set *****
 -------------------------------------------------------------------
 Center     Atomic                   Forces (Hartrees/Bohr)
 Number     Number              X              Y              Z
 -------------------------------------------------------------------
      1        8           0.000003387   -0.000140704    0.000289178
      2        1          -0.000243316   -0.000901329   -0.000039623
      3        8           0.000039481   -0.000019881    0.000029135
      4        8           0.000336692    0.001304518   -0.000277430
      5        1          -0.000136243   -0.000242605   -0.000001260
 -------------------------------------------------------------------
 Cartesian Forces:  Max     0.001304518 RMS     0.000443390

 GradGradGradGradGradGradGradGradGradGradGradGradGradGradGradGradGradGrad
 Berny optimization.
 Internal  Forces:  Max     0.001067684 RMS     0.000421627
 Search for a saddle point.
 Step number   3 out of a maximum of   20
 All quantities printed in internal units (Hartrees-Bohrs-Radians)
 Swaping is turned off.
 Update second derivatives using D2CorX and points    1    2    3
 The second derivative matrix:
                          R1        R2        R3        R4        A1
           R1           0.00555
           R2          -0.00064   0.90439
           R3           0.00573   0.01078   0.34518
           R4           0.00028  -0.00119  -0.00548   0.56509
           A1           0.00207   0.00929   0.00645  -0.00069   0.04439
           A2           0.00276  -0.00222   0.02049   0.01646  -0.00546
           A3           0.00985  -0.00709   0.00847   0.00107  -0.01113
           A4           0.00293   0.00064  -0.01072   0.00057   0.00515
           D1          -0.00131  -0.00124   0.01026  -0.00057  -0.00137
                          A2        A3        A4        D1
           A2           0.11614
           A3           0.00852   0.02393
           A4          -0.00041   0.00314   0.00817
           D1          -0.00153  -0.00187   0.00270   0.00011
     Eigenvalues ---   -0.00228   0.00031   0.00736   0.02566   0.04840
     Eigenvalues ---    0.11514   0.34782   0.56579   0.90477
 Eigenvectors required to have negative eigenvalues:
                          D1        A4        R1        A1        A3
   1                    0.88544  -0.40096   0.19199   0.09029   0.08916
                          R3        A2        R2        R4
   1                   -0.04625   0.01130   0.00198   0.00036
 RFO step:  Lambda0=1.095625803D-05 Lambda=-1.52637442D-04.
 Linear search not attempted -- option 19 set.
 Maximum step size (   0.300) exceeded in Quadratic search.
    -- Step size scaled by   0.548
 Iteration  1 RMS(Cart)=  0.09482147 RMS(Int)=  0.01818113
 Iteration  2 RMS(Cart)=  0.02016543 RMS(Int)=  0.00002654
 Iteration  3 RMS(Cart)=  0.00002466 RMS(Int)=  0.00000000
 Iteration  4 RMS(Cart)=  0.00000000 RMS(Int)=  0.00000000
 Variable       Old X    -DE/DX   Delta X   Delta X   Delta X     New X
                                 (Linear)    (Quad)   (Total)
    R1        5.91720   0.00034   0.00000   0.25218   0.25218   6.16939
    R2        2.25946   0.00006   0.00000  -0.00047  -0.00047   2.25899
    R3        1.82057  -0.00107   0.00000   0.00121   0.00121   1.82178
    R4        1.81781   0.00008   0.00000  -0.00001  -0.00001   1.81779
    A1        1.40107   0.00017   0.00000  -0.04963  -0.04963   1.35144
    A2        1.84987   0.00044   0.00000   0.00288   0.00288   1.85274
    A3        1.46364   0.00000   0.00000  -0.13699  -0.13699   1.32665
    A4        1.32911   0.00029   0.00000   0.03531   0.03531   1.36442
    D1        1.76671   0.00016   0.00000  -0.06258  -0.06258   1.70413
         Item               Value     Threshold  Converged?
 Maximum Force            0.001068     0.000450     NO 
 RMS     Force            0.000422     0.000300     NO 
 Maximum Displacement     0.106742     0.001800     NO 
 RMS     Displacement     0.094283     0.001200     NO 
 Predicted change in Energy=-6.312683D-05
 GradGradGradGradGradGradGradGradGradGradGradGradGradGradGradGradGradGrad

                          Input orientation:                          
 ---------------------------------------------------------------------
 Center     Atomic      Atomic             Coordinates (Angstroms)
 Number     Number       Type             X           Y           Z
 ---------------------------------------------------------------------
      1          8           0       -0.631574   -0.911898    0.310635
      2          1           0       -1.591304    1.163831   -2.019285
      3          8           0        0.361064   -0.775679   -0.341373
      4          8           0       -1.584971    0.201226   -2.071557
      5          1           0       -1.989244   -0.023668   -2.914945
 ---------------------------------------------------------------------
                    Distance matrix (angstroms):
                    1          2          3          4          5
     1  O    0.000000
     2  H    3.264699   0.000000
     3  O    1.195408   3.223171   0.000000
     4  O    2.796936   0.964045   2.781175   0.000000
     5  H    3.610621   1.539714   3.565493   0.961934   0.000000
 Stoichiometry    H2O3
 Framework group  C1[X(H2O3)]
 Deg. of freedom     9
 Full point group                 C1      NOp   1
 Largest Abelian subgroup         C1      NOp   1
 Largest concise Abelian subgroup C1      NOp   1
                         Standard orientation:                         
 ---------------------------------------------------------------------
 Center     Atomic      Atomic             Coordinates (Angstroms)
 Number     Number       Type             X           Y           Z
 ---------------------------------------------------------------------
      1          8           0        1.103990   -0.593116   -0.002673
      2          1           0       -1.975004    0.047661    0.873375
      3          8           0        1.076256    0.601969   -0.004909
      4          8           0       -1.633930   -0.022048   -0.025619
      5          1           0       -2.395529    0.057896   -0.607764
 ---------------------------------------------------------------------
 Rotational constants (GHZ):     40.1572928      5.5405687      4.9791081
 Standard basis: 6-31+G(d,p) (6D, 7F)
 There are    67 symmetry adapted basis functions of A   symmetry.
 Integral buffers will be    262144 words long.
 Raffenetti 2 integral format.
 Two-electron integral symmetry is turned on.
    67 basis functions,   110 primitive gaussians,    67 cartesian basis functions
    13 alpha electrons       13 beta electrons
       nuclear repulsion energy        66.7231930510 Hartrees.
 NAtoms=    5 NActive=    5 NUniq=    5 SFac= 7.50D-01 NAtFMM=   80 NAOKFM=F Big=F
 One-electron integrals computed using PRISM.
 NBasis=    67 RedAO= T  NBF=    67
 NBsUse=    67 1.00D-06 NBFU=    67
 Initial guess read from the read-write file.
 B after Tr=     0.000000    0.000000    0.000000
         Rot=    1.000000    0.000000    0.000000    0.000000 Ang=   0.00 deg.
 Initial guess orbital symmetries:
       Occupied  (A) (A) (A) (A) (A) (A) (A) (A) (A) (A) (A) (A)
                 (A)
       Virtual   (A) (A) (A) (A) (A) (A) (A) (A) (A) (A) (A) (A)
                 (A) (A) (A) (A) (A) (A) (A) (A) (A) (A) (A) (A)
                 (A) (A) (A) (A) (A) (A) (A) (A) (A) (A) (A) (A)
                 (A) (A) (A) (A) (A) (A) (A) (A) (A) (A) (A) (A)
                 (A) (A) (A) (A) (A) (A)
 Harris functional with IExCor= 1009 diagonalized for initial guess.
 ExpMin= 8.45D-02 ExpMax= 5.48D+03 ExpMxC= 8.25D+02 IAcc=2 IRadAn=         0 AccDes= 0.00D+00
 HarFok:  IExCor= 1009 AccDes= 0.00D+00 IRadAn=         0 IDoV= 1
 ScaDFX=  1.000000  1.000000  1.000000  1.000000
 FoFCou: FMM=F IPFlag=           0 FMFlag=      100000 FMFlg1=           0
         NFxFlg=           0 DoJE=T BraDBF=F KetDBF=T FulRan=T
         Omega=  0.000000  0.000000  1.000000  0.000000  0.000000 ICntrl=     500 IOpCl=  0
         NMat0=    1 NMatS0=    1 NMatT0=    0 NMatD0=    1 NMtDS0=    0 NMtDT0=    0
         I1Cent=           4 NGrid=           0.
 Petite list used in FoFCou.
 Requested convergence on RMS density matrix=1.00D-08 within 128 cycles.
 Requested convergence on MAX density matrix=1.00D-06.
 Requested convergence on             energy=1.00D-06.
 No special actions if energy rises.
 Keep R1 ints in memory in canonical form, NReq=3550937.
 Integral accuracy reduced to 1.0D-05 until final iterations.
 Initial convergence to 1.0D-05 achieved.  Increase integral accuracy.
 SCF Done:  E(RM062X) =  -226.603437990     A.U. after   29 cycles
             Convg  =    0.7651D-08             -V/T =  2.0081
 Calling FoFJK, ICntrl=      2127 FMM=F ISym2X=0 I1Cent= 0 IOpClX= 0 NMat=1 NMatS=1 NMatT=0.
 ***** Axes restored to original set *****
 -------------------------------------------------------------------
 Center     Atomic                   Forces (Hartrees/Bohr)
 Number     Number              X              Y              Z
 -------------------------------------------------------------------
      1        8          -0.000085731   -0.000214852    0.000453535
      2        1          -0.000209235   -0.001716112   -0.000267193
      3        8           0.000309598   -0.000016701   -0.000005072
      4        8           0.000084896    0.001838878   -0.000103175
      5        1          -0.000099528    0.000108787   -0.000078094
 -------------------------------------------------------------------
 Cartesian Forces:  Max     0.001838878 RMS     0.000675413

 GradGradGradGradGradGradGradGradGradGradGradGradGradGradGradGradGradGrad
 Berny optimization.
 Internal  Forces:  Max     0.001957003 RMS     0.000737984
 Search for a saddle point.
 Step number   4 out of a maximum of   20
 All quantities printed in internal units (Hartrees-Bohrs-Radians)
 Swaping is turned off.
 Update second derivatives using D2CorX and points    2    3    4
 The second derivative matrix:
                          R1        R2        R3        R4        A1
           R1           0.00328
           R2          -0.00106   0.90439
           R3           0.01000   0.01077   0.34526
           R4           0.00016  -0.00119  -0.00548   0.56509
           A1           0.00122   0.00937   0.00562  -0.00066   0.04480
           A2           0.00401  -0.00223   0.02050   0.01646  -0.00571
           A3           0.00865  -0.00687   0.00621   0.00114  -0.01023
           A4           0.00239   0.00060  -0.01035   0.00056   0.00514
           D1          -0.00125  -0.00119   0.00973  -0.00055  -0.00122
                          A2        A3        A4        D1
           A2           0.11614
           A3           0.00786   0.02581
           A4          -0.00030   0.00322   0.00809
           D1          -0.00168  -0.00160   0.00275   0.00013
     Eigenvalues ---   -0.00243   0.00010   0.00742   0.02591   0.04840
     Eigenvalues ---    0.11514   0.34791   0.56579   0.90477
 Eigenvectors required to have negative eigenvalues:
                          D1        R1        A4        A1        R3
   1                    0.82049   0.42012  -0.38043   0.05596  -0.04763
                          A3        A2        R2        R4
   1                   -0.00980   0.00800   0.00175   0.00045
 RFO step:  Lambda0=4.206494909D-05 Lambda=-1.87292241D-04.
 Linear search not attempted -- option 19 set.
 Maximum step size (   0.300) exceeded in Quadratic search.
    -- Step size scaled by   0.421
 Iteration  1 RMS(Cart)=  0.07666702 RMS(Int)=  0.01013411
 Iteration  2 RMS(Cart)=  0.01109777 RMS(Int)=  0.00000699
 Iteration  3 RMS(Cart)=  0.00000707 RMS(Int)=  0.00000000
 Iteration  4 RMS(Cart)=  0.00000000 RMS(Int)=  0.00000000
 Variable       Old X    -DE/DX   Delta X   Delta X   Delta X     New X
                                 (Linear)    (Quad)   (Total)
    R1        6.16939   0.00057   0.00000   0.22831   0.22831   6.39769
    R2        2.25899   0.00017   0.00000  -0.00026  -0.00026   2.25873
    R3        1.82178  -0.00196   0.00000  -0.00020  -0.00020   1.82158
    R4        1.81779   0.00008   0.00000   0.00011   0.00011   1.81790
    A1        1.35144   0.00044   0.00000  -0.03534  -0.03534   1.31610
    A2        1.85274  -0.00023   0.00000  -0.00611  -0.00611   1.84663
    A3        1.32665   0.00061   0.00000  -0.09507  -0.09507   1.23158
    A4        1.36442   0.00029   0.00000   0.05921   0.05921   1.42363
    D1        1.70413   0.00010   0.00000  -0.15507  -0.15507   1.54906
         Item               Value     Threshold  Converged?
 Maximum Force            0.001957     0.000450     NO 
 RMS     Force            0.000738     0.000300     NO 
 Maximum Displacement     0.100287     0.001800     NO 
 RMS     Displacement     0.080302     0.001200     NO 
 Predicted change in Energy=-5.639507D-05
 GradGradGradGradGradGradGradGradGradGradGradGradGradGradGradGradGradGrad

                          Input orientation:                          
 ---------------------------------------------------------------------
 Center     Atomic      Atomic             Coordinates (Angstroms)
 Number     Number       Type             X           Y           Z
 ---------------------------------------------------------------------
      1          8           0       -0.599183   -0.922359    0.363704
      2          1           0       -1.644258    1.198612   -2.059311
      3          8           0        0.339968   -0.814544   -0.367758
      4          8           0       -1.590498    0.236175   -2.061346
      5          1           0       -1.942058   -0.044074   -2.911815
 ---------------------------------------------------------------------
                    Distance matrix (angstroms):
                    1          2          3          4          5
     1  O    0.000000
     2  H    3.385514   0.000000
     3  O    1.195268   3.294132   0.000000
     4  O    2.864573   0.963939   2.774699   0.000000
     5  H    3.647427   1.536137   3.503354   0.961993   0.000000
 Stoichiometry    H2O3
 Framework group  C1[X(H2O3)]
 Deg. of freedom     9
 Full point group                 C1      NOp   1
 Largest Abelian subgroup         C1      NOp   1
 Largest concise Abelian subgroup C1      NOp   1
                         Standard orientation:                         
 ---------------------------------------------------------------------
 Center     Atomic      Atomic             Coordinates (Angstroms)
 Number     Number       Type             X           Y           Z
 ---------------------------------------------------------------------
      1          8           0        1.160218   -0.580871   -0.014993
      2          1           0       -2.070610   -0.052647    0.847811
      3          8           0        1.046004    0.608650    0.010730
      4          8           0       -1.652292   -0.037241   -0.020493
      5          1           0       -2.360833    0.128341   -0.649763
 ---------------------------------------------------------------------
 Rotational constants (GHZ):     40.3531697      5.4102894      4.8774041
 Standard basis: 6-31+G(d,p) (6D, 7F)
 There are    67 symmetry adapted basis functions of A   symmetry.
 Integral buffers will be    262144 words long.
 Raffenetti 2 integral format.
 Two-electron integral symmetry is turned on.
    67 basis functions,   110 primitive gaussians,    67 cartesian basis functions
    13 alpha electrons       13 beta electrons
       nuclear repulsion energy        66.4046922958 Hartrees.
 NAtoms=    5 NActive=    5 NUniq=    5 SFac= 7.50D-01 NAtFMM=   80 NAOKFM=F Big=F
 One-electron integrals computed using PRISM.
 NBasis=    67 RedAO= T  NBF=    67
 NBsUse=    67 1.00D-06 NBFU=    67
 Initial guess read from the read-write file.
 B after Tr=     0.000000    0.000000    0.000000
         Rot=    1.000000    0.000000    0.000000    0.000000 Ang=   0.00 deg.
 Initial guess orbital symmetries:
       Occupied  (A) (A) (A) (A) (A) (A) (A) (A) (A) (A) (A) (A)
                 (A)
       Virtual   (A) (A) (A) (A) (A) (A) (A) (A) (A) (A) (A) (A)
                 (A) (A) (A) (A) (A) (A) (A) (A) (A) (A) (A) (A)
                 (A) (A) (A) (A) (A) (A) (A) (A) (A) (A) (A) (A)
                 (A) (A) (A) (A) (A) (A) (A) (A) (A) (A) (A) (A)
                 (A) (A) (A) (A) (A) (A)
 Harris functional with IExCor= 1009 diagonalized for initial guess.
 ExpMin= 8.45D-02 ExpMax= 5.48D+03 ExpMxC= 8.25D+02 IAcc=2 IRadAn=         0 AccDes= 0.00D+00
 HarFok:  IExCor= 1009 AccDes= 0.00D+00 IRadAn=         0 IDoV= 1
 ScaDFX=  1.000000  1.000000  1.000000  1.000000
 FoFCou: FMM=F IPFlag=           0 FMFlag=      100000 FMFlg1=           0
         NFxFlg=           0 DoJE=T BraDBF=F KetDBF=T FulRan=T
         Omega=  0.000000  0.000000  1.000000  0.000000  0.000000 ICntrl=     500 IOpCl=  0
         NMat0=    1 NMatS0=    1 NMatT0=    0 NMatD0=    1 NMtDS0=    0 NMtDT0=    0
         I1Cent=           4 NGrid=           0.
 Petite list used in FoFCou.
 Requested convergence on RMS density matrix=1.00D-08 within 128 cycles.
 Requested convergence on MAX density matrix=1.00D-06.
 Requested convergence on             energy=1.00D-06.
 No special actions if energy rises.
 Keep R1 ints in memory in canonical form, NReq=3550937.
 Integral accuracy reduced to 1.0D-05 until final iterations.
 Initial convergence to 1.0D-05 achieved.  Increase integral accuracy.
 SCF Done:  E(RM062X) =  -226.603484723     A.U. after   28 cycles
             Convg  =    0.4285D-08             -V/T =  2.0081
 Calling FoFJK, ICntrl=      2127 FMM=F ISym2X=0 I1Cent= 0 IOpClX= 0 NMat=1 NMatS=1 NMatT=0.
 ***** Axes restored to original set *****
 -------------------------------------------------------------------
 Center     Atomic                   Forces (Hartrees/Bohr)
 Number     Number              X              Y              Z
 -------------------------------------------------------------------
      1        8          -0.000419817   -0.000007979    0.000644460
      2        1           0.000197422   -0.001646475    0.000239236
      3        8           0.000485212   -0.000101618   -0.000464279
      4        8          -0.000230607    0.002194982   -0.000324003
      5        1          -0.000032209   -0.000438910   -0.000095414
 -------------------------------------------------------------------
 Cartesian Forces:  Max     0.002194982 RMS     0.000776270

 GradGradGradGradGradGradGradGradGradGradGradGradGradGradGradGradGradGrad
 Berny optimization.
 Internal  Forces:  Max     0.001779256 RMS     0.000684779
 Search for a saddle point.
 Step number   5 out of a maximum of   20
 All quantities printed in internal units (Hartrees-Bohrs-Radians)
 Swaping is turned off.
 Update second derivatives using D2CorX and points    3    4    5
 The second derivative matrix:
                          R1        R2        R3        R4        A1
           R1           0.00422
           R2          -0.00258   0.90437
           R3           0.01171   0.01079   0.34523
           R4          -0.00031  -0.00120  -0.00547   0.56508
           A1           0.00167   0.00964   0.00533  -0.00058   0.04462
           A2           0.00189  -0.00224   0.02051   0.01646  -0.00535
           A3           0.00909  -0.00617   0.00542   0.00136  -0.01058
           A4           0.00241   0.00025  -0.00996   0.00045   0.00528
           D1          -0.00123  -0.00032   0.00877  -0.00028  -0.00157
                          A2        A3        A4        D1
           A2           0.11616
           A3           0.00882   0.02521
           A4          -0.00078   0.00341   0.00805
           D1          -0.00049  -0.00211   0.00286  -0.00020
     Eigenvalues ---   -0.00264   0.00005   0.00741   0.02599   0.04840
     Eigenvalues ---    0.11513   0.34788   0.56579   0.90475
 Eigenvectors required to have negative eigenvalues:
                          D1        A4        R1        A1        A3
   1                    0.87278  -0.39774   0.25617   0.08552   0.07161
                          R3        A2        R2        R4
   1                   -0.04465   0.00311   0.00127   0.00029
 RFO step:  Lambda0=7.564554476D-09 Lambda=-2.02256392D-04.
 Linear search not attempted -- option 19 set.
 Maximum step size (   0.300) exceeded in Quadratic search.
    -- Step size scaled by   0.348
 Iteration  1 RMS(Cart)=  0.08538807 RMS(Int)=  0.02245675
 Iteration  2 RMS(Cart)=  0.02582437 RMS(Int)=  0.00002736
 Iteration  3 RMS(Cart)=  0.00002558 RMS(Int)=  0.00000000
 Iteration  4 RMS(Cart)=  0.00000000 RMS(Int)=  0.00000000
 Variable       Old X    -DE/DX   Delta X   Delta X   Delta X     New X
                                 (Linear)    (Quad)   (Total)
    R1        6.39769   0.00021   0.00000   0.26614   0.26614   6.66384
    R2        2.25873   0.00068   0.00000   0.00071   0.00071   2.25944
    R3        1.82158  -0.00178   0.00000  -0.00677  -0.00677   1.81481
    R4        1.81790   0.00023   0.00000   0.00025   0.00025   1.81816
    A1        1.31610   0.00005   0.00000  -0.04017  -0.04017   1.27593
    A2        1.84663   0.00067   0.00000   0.00584   0.00584   1.85248
    A3        1.23158   0.00008   0.00000  -0.11838  -0.11838   1.11321
    A4        1.42363   0.00021   0.00000   0.01756   0.01756   1.44120
    D1        1.54906  -0.00008   0.00000  -0.05616  -0.05616   1.49290
         Item               Value     Threshold  Converged?
 Maximum Force            0.001779     0.000450     NO 
 RMS     Force            0.000685     0.000300     NO 
 Maximum Displacement     0.116490     0.001800     NO 
 RMS     Displacement     0.088657     0.001200     NO 
 Predicted change in Energy=-6.728246D-05
 GradGradGradGradGradGradGradGradGradGradGradGradGradGradGradGradGradGrad

                          Input orientation:                          
 ---------------------------------------------------------------------
 Center     Atomic      Atomic             Coordinates (Angstroms)
 Number     Number       Type             X           Y           Z
 ---------------------------------------------------------------------
      1          8           0       -0.574608   -0.955719    0.399013
      2          1           0       -1.697705    1.240541   -2.120955
      3          8           0        0.320378   -0.840111   -0.385335
      4          8           0       -1.581625    0.289819   -2.050666
      5          1           0       -1.902469   -0.080719   -2.878584
 ---------------------------------------------------------------------
                    Distance matrix (angstroms):
                    1          2          3          4          5
     1  O    0.000000
     2  H    3.526350   0.000000
     3  O    1.195645   3.378484   0.000000
     4  O    2.926837   0.960358   2.769058   0.000000
     5  H    3.643005   1.536768   3.425495   0.962127   0.000000
 Stoichiometry    H2O3
 Framework group  C1[X(H2O3)]
 Deg. of freedom     9
 Full point group                 C1      NOp   1
 Largest Abelian subgroup         C1      NOp   1
 Largest concise Abelian subgroup C1      NOp   1
                         Standard orientation:                         
 ---------------------------------------------------------------------
 Center     Atomic      Atomic             Coordinates (Angstroms)
 Number     Number       Type             X           Y           Z
 ---------------------------------------------------------------------
      1          8           0        1.210179   -0.568899   -0.019750
      2          1           0       -2.189167   -0.105875    0.795847
      3          8           0        1.019867    0.610847    0.019599
      4          8           0       -1.669742   -0.047047   -0.009773
      5          1           0       -2.293257    0.146666   -0.716451
 ---------------------------------------------------------------------
 Rotational constants (GHZ):     40.8141091      5.2887468      4.7854121
 Standard basis: 6-31+G(d,p) (6D, 7F)
 There are    67 symmetry adapted basis functions of A   symmetry.
 Integral buffers will be    262144 words long.
 Raffenetti 2 integral format.
 Two-electron integral symmetry is turned on.
    67 basis functions,   110 primitive gaussians,    67 cartesian basis functions
    13 alpha electrons       13 beta electrons
       nuclear repulsion energy        66.1315867974 Hartrees.
 NAtoms=    5 NActive=    5 NUniq=    5 SFac= 7.50D-01 NAtFMM=   80 NAOKFM=F Big=F
 One-electron integrals computed using PRISM.
 NBasis=    67 RedAO= T  NBF=    67
 NBsUse=    67 1.00D-06 NBFU=    67
 Initial guess read from the read-write file.
 B after Tr=     0.000000    0.000000    0.000000
         Rot=    1.000000    0.000000    0.000000    0.000000 Ang=   0.00 deg.
 Initial guess orbital symmetries:
       Occupied  (A) (A) (A) (A) (A) (A) (A) (A) (A) (A) (A) (A)
                 (A)
       Virtual   (A) (A) (A) (A) (A) (A) (A) (A) (A) (A) (A) (A)
                 (A) (A) (A) (A) (A) (A) (A) (A) (A) (A) (A) (A)
                 (A) (A) (A) (A) (A) (A) (A) (A) (A) (A) (A) (A)
                 (A) (A) (A) (A) (A) (A) (A) (A) (A) (A) (A) (A)
                 (A) (A) (A) (A) (A) (A)
 Harris functional with IExCor= 1009 diagonalized for initial guess.
 ExpMin= 8.45D-02 ExpMax= 5.48D+03 ExpMxC= 8.25D+02 IAcc=2 IRadAn=         0 AccDes= 0.00D+00
 HarFok:  IExCor= 1009 AccDes= 0.00D+00 IRadAn=         0 IDoV= 1
 ScaDFX=  1.000000  1.000000  1.000000  1.000000
 FoFCou: FMM=F IPFlag=           0 FMFlag=      100000 FMFlg1=           0
         NFxFlg=           0 DoJE=T BraDBF=F KetDBF=T FulRan=T
         Omega=  0.000000  0.000000  1.000000  0.000000  0.000000 ICntrl=     500 IOpCl=  0
         NMat0=    1 NMatS0=    1 NMatT0=    0 NMatD0=    1 NMtDS0=    0 NMtDT0=    0
         I1Cent=           4 NGrid=           0.
 Petite list used in FoFCou.
 Requested convergence on RMS density matrix=1.00D-08 within 128 cycles.
 Requested convergence on MAX density matrix=1.00D-06.
 Requested convergence on             energy=1.00D-06.
 No special actions if energy rises.
 Keep R1 ints in memory in canonical form, NReq=3550937.
 Integral accuracy reduced to 1.0D-05 until final iterations.
 Initial convergence to 1.0D-05 achieved.  Increase integral accuracy.
 SCF Done:  E(RM062X) =  -226.603513612     A.U. after   25 cycles
             Convg  =    0.5063D-08             -V/T =  2.0081
 Calling FoFJK, ICntrl=      2127 FMM=F ISym2X=0 I1Cent= 0 IOpClX= 0 NMat=1 NMatS=1 NMatT=0.
 ***** Axes restored to original set *****
 -------------------------------------------------------------------
 Center     Atomic                   Forces (Hartrees/Bohr)
 Number     Number              X              Y              Z
 -------------------------------------------------------------------
      1        8          -0.000068409    0.000289063    0.000340428
      2        1          -0.000233582    0.001926536   -0.000133121
      3        8           0.000059374   -0.000312435   -0.000310867
      4        8           0.000227809   -0.001882273   -0.000016205
      5        1           0.000014808   -0.000020892    0.000119765
 -------------------------------------------------------------------
 Cartesian Forces:  Max     0.001926536 RMS     0.000720918

 GradGradGradGradGradGradGradGradGradGradGradGradGradGradGradGradGradGrad
 Berny optimization.
 Internal  Forces:  Max     0.001914998 RMS     0.000659805
 Search for a saddle point.
 Step number   6 out of a maximum of   20
 All quantities printed in internal units (Hartrees-Bohrs-Radians)
 Swaping is turned off.
 Update second derivatives using D2CorX and points    4    5    6
 The second derivative matrix:
                          R1        R2        R3        R4        A1
           R1           0.00495
           R2          -0.00215   0.90437
           R3           0.00276   0.01076   0.34577
           R4           0.00038  -0.00120  -0.00551   0.56509
           A1           0.00173   0.00957   0.00668  -0.00069   0.04459
           A2           0.00305  -0.00223   0.02037   0.01647  -0.00552
           A3           0.00947  -0.00635   0.00932   0.00105  -0.01071
           A4           0.00194   0.00030  -0.01092   0.00052   0.00537
           D1          -0.00086  -0.00046   0.01158  -0.00050  -0.00168
                          A2        A3        A4        D1
           A2           0.11619
           A3           0.00832   0.02474
           A4          -0.00066   0.00369   0.00794
           D1          -0.00085  -0.00249   0.00308  -0.00050
     Eigenvalues ---   -0.00343   0.00050   0.00745   0.02604   0.04840
     Eigenvalues ---    0.11518   0.34845   0.56579   0.90475
 Eigenvectors required to have negative eigenvalues:
                          D1        A4        A3        A1        R1
   1                    0.86958  -0.40583   0.22549   0.13639  -0.08471
                          R3        A2        R2        R4
   1                   -0.04981   0.00513   0.00112   0.00031
 RFO step:  Lambda0=5.370367612D-05 Lambda=-1.74538049D-05.
 Linear search not attempted -- option 19 set.
 Iteration  1 RMS(Cart)=  0.04014319 RMS(Int)=  0.00135746
 Iteration  2 RMS(Cart)=  0.00110812 RMS(Int)=  0.00000045
 Iteration  3 RMS(Cart)=  0.00000052 RMS(Int)=  0.00000000
 Variable       Old X    -DE/DX   Delta X   Delta X   Delta X     New X
                                 (Linear)    (Quad)   (Total)
    R1        6.66384   0.00001   0.00000  -0.01490  -0.01490   6.64894
    R2        2.25944   0.00029   0.00000   0.00038   0.00038   2.25982
    R3        1.81481   0.00191   0.00000  -0.00011  -0.00011   1.81471
    R4        1.81816  -0.00009   0.00000  -0.00006  -0.00006   1.81809
    A1        1.27593  -0.00001   0.00000   0.01331   0.01331   1.28924
    A2        1.85248   0.00004   0.00000   0.00054   0.00054   1.85302
    A3        1.11321  -0.00013   0.00000   0.02215   0.02215   1.13536
    A4        1.44120   0.00031   0.00000  -0.02467  -0.02467   1.41653
    D1        1.49290  -0.00021   0.00000   0.12196   0.12196   1.61487
         Item               Value     Threshold  Converged?
 Maximum Force            0.001915     0.000450     NO 
 RMS     Force            0.000660     0.000300     NO 
 Maximum Displacement     0.069598     0.001800     NO 
 RMS     Displacement     0.039976     0.001200     NO 
 Predicted change in Energy= 1.853041D-05
 GradGradGradGradGradGradGradGradGradGradGradGradGradGradGradGradGradGrad

                          Input orientation:                          
 ---------------------------------------------------------------------
 Center     Atomic      Atomic             Coordinates (Angstroms)
 Number     Number       Type             X           Y           Z
 ---------------------------------------------------------------------
      1          8           0       -0.583747   -0.971422    0.386590
      2          1           0       -1.685084    1.237878   -2.120531
      3          8           0        0.341635   -0.824095   -0.356381
      4          8           0       -1.569534    0.286043   -2.067257
      5          1           0       -1.939298   -0.074593   -2.878947
 ---------------------------------------------------------------------
                    Distance matrix (angstroms):
                    1          2          3          4          5
     1  O    0.000000
     2  H    3.518465   0.000000
     3  O    1.195844   3.386967   0.000000
     4  O    2.928201   0.960301   2.795009   0.000000
     5  H    3.647677   1.537010   3.482492   0.962094   0.000000
 Stoichiometry    H2O3
 Framework group  C1[X(H2O3)]
 Deg. of freedom     9
 Full point group                 C1      NOp   1
 Largest Abelian subgroup         C1      NOp   1
 Largest concise Abelian subgroup C1      NOp   1
                         Standard orientation:                         
 ---------------------------------------------------------------------
 Center     Atomic      Atomic             Coordinates (Angstroms)
 Number     Number       Type             X           Y           Z
 ---------------------------------------------------------------------
      1          8           0        1.199801   -0.575468   -0.010243
      2          1           0       -2.182319   -0.054290    0.807823
      3          8           0        1.041270    0.609675    0.008345
      4          8           0       -1.678190   -0.035537   -0.009293
      5          1           0       -2.320725    0.064935   -0.718292
 ---------------------------------------------------------------------
 Rotational constants (GHZ):     40.5885271      5.2412097      4.7447258
 Standard basis: 6-31+G(d,p) (6D, 7F)
 There are    67 symmetry adapted basis functions of A   symmetry.
 Integral buffers will be    262144 words long.
 Raffenetti 2 integral format.
 Two-electron integral symmetry is turned on.
    67 basis functions,   110 primitive gaussians,    67 cartesian basis functions
    13 alpha electrons       13 beta electrons
       nuclear repulsion energy        65.9861313380 Hartrees.
 NAtoms=    5 NActive=    5 NUniq=    5 SFac= 7.50D-01 NAtFMM=   80 NAOKFM=F Big=F
 One-electron integrals computed using PRISM.
 NBasis=    67 RedAO= T  NBF=    67
 NBsUse=    67 1.00D-06 NBFU=    67
 Initial guess read from the read-write file.
 B after Tr=     0.000000    0.000000    0.000000
         Rot=    1.000000    0.000000    0.000000    0.000000 Ang=   0.00 deg.
 Initial guess orbital symmetries:
       Occupied  (A) (A) (A) (A) (A) (A) (A) (A) (A) (A) (A) (A)
                 (A)
       Virtual   (A) (A) (A) (A) (A) (A) (A) (A) (A) (A) (A) (A)
                 (A) (A) (A) (A) (A) (A) (A) (A) (A) (A) (A) (A)
                 (A) (A) (A) (A) (A) (A) (A) (A) (A) (A) (A) (A)
                 (A) (A) (A) (A) (A) (A) (A) (A) (A) (A) (A) (A)
                 (A) (A) (A) (A) (A) (A)
 Harris functional with IExCor= 1009 diagonalized for initial guess.
 ExpMin= 8.45D-02 ExpMax= 5.48D+03 ExpMxC= 8.25D+02 IAcc=2 IRadAn=         0 AccDes= 0.00D+00
 HarFok:  IExCor= 1009 AccDes= 0.00D+00 IRadAn=         0 IDoV= 1
 ScaDFX=  1.000000  1.000000  1.000000  1.000000
 FoFCou: FMM=F IPFlag=           0 FMFlag=      100000 FMFlg1=           0
         NFxFlg=           0 DoJE=T BraDBF=F KetDBF=T FulRan=T
         Omega=  0.000000  0.000000  1.000000  0.000000  0.000000 ICntrl=     500 IOpCl=  0
         NMat0=    1 NMatS0=    1 NMatT0=    0 NMatD0=    1 NMtDS0=    0 NMtDT0=    0
         I1Cent=           4 NGrid=           0.
 Petite list used in FoFCou.
 Requested convergence on RMS density matrix=1.00D-08 within 128 cycles.
 Requested convergence on MAX density matrix=1.00D-06.
 Requested convergence on             energy=1.00D-06.
 No special actions if energy rises.
 Keep R1 ints in memory in canonical form, NReq=3550937.
 Integral accuracy reduced to 1.0D-05 until final iterations.
 Initial convergence to 1.0D-05 achieved.  Increase integral accuracy.
 SCF Done:  E(RM062X) =  -226.603515789     A.U. after   18 cycles
             Convg  =    0.6284D-08             -V/T =  2.0081
 Calling FoFJK, ICntrl=      2127 FMM=F ISym2X=0 I1Cent= 0 IOpClX= 0 NMat=1 NMatS=1 NMatT=0.
 ***** Axes restored to original set *****
 -------------------------------------------------------------------
 Center     Atomic                   Forces (Hartrees/Bohr)
 Number     Number              X              Y              Z
 -------------------------------------------------------------------
      1        8           0.000212620    0.000186058   -0.000093508
      2        1          -0.000237705    0.001983309   -0.000116912
      3        8          -0.000309669   -0.000131797   -0.000037328
      4        8           0.000320028   -0.001968818    0.000169569
      5        1           0.000014727   -0.000068751    0.000078179
 -------------------------------------------------------------------
 Cartesian Forces:  Max     0.001983309 RMS     0.000740513

 GradGradGradGradGradGradGradGradGradGradGradGradGradGradGradGradGradGrad
 Berny optimization.
 Internal  Forces:  Max     0.002069414 RMS     0.000721597
 Search for a saddle point.
 Step number   7 out of a maximum of   20
 All quantities printed in internal units (Hartrees-Bohrs-Radians)
 Swaping is turned off.
 Update second derivatives using D2CorX and points    4    5    6    7
 The second derivative matrix:
                          R1        R2        R3        R4        A1
           R1           0.00583
           R2          -0.00179   0.90439
           R3          -0.00216   0.01056   0.34783
           R4           0.00047  -0.00119  -0.00556   0.56509
           A1           0.00256   0.00966   0.00552  -0.00067   0.04492
           A2           0.00274  -0.00222   0.02018   0.01649  -0.00559
           A3           0.01056  -0.00630   0.00881   0.00105  -0.01040
           A4           0.00157   0.00007  -0.00758   0.00044   0.00487
           D1           0.00041   0.00073  -0.00509  -0.00015   0.00085
                          A2        A3        A4        D1
           A2           0.11622
           A3           0.00830   0.02494
           A4          -0.00052   0.00299   0.00814
           D1          -0.00183   0.00118   0.00261  -0.00058
     Eigenvalues ---   -0.00138  -0.00009   0.00698   0.02710   0.04845
     Eigenvalues ---    0.11525   0.34991   0.56580   0.90476
 Eigenvectors required to have negative eigenvalues:
                          D1        A4        R1        A3        A2
   1                    0.96124  -0.24272   0.10685  -0.07208   0.01393
                          A1        R3        R2        R4
   1                   -0.01368   0.01065  -0.00099   0.00016
 RFO step:  Lambda0=4.505411553D-06 Lambda=-2.35662766D-04.
 Linear search not attempted -- option 19 set.
 Maximum step size (   0.300) exceeded in Quadratic search.
    -- Step size scaled by   0.252
 Iteration  1 RMS(Cart)=  0.09995151 RMS(Int)=  0.01938477
 Iteration  2 RMS(Cart)=  0.02144375 RMS(Int)=  0.00003347
 Iteration  3 RMS(Cart)=  0.00003962 RMS(Int)=  0.00000000
 Iteration  4 RMS(Cart)=  0.00000000 RMS(Int)=  0.00000000
 Variable       Old X    -DE/DX   Delta X   Delta X   Delta X     New X
                                 (Linear)    (Quad)   (Total)
    R1        6.64894  -0.00019   0.00000   0.25351   0.25351   6.90244
    R2        2.25982  -0.00015   0.00000  -0.00003  -0.00003   2.25979
    R3        1.81471   0.00207   0.00000   0.00839   0.00839   1.82310
    R4        1.81809  -0.00004   0.00000   0.00000   0.00000   1.81809
    A1        1.28924  -0.00032   0.00000  -0.05485  -0.05485   1.23440
    A2        1.85302   0.00012   0.00000   0.00036   0.00036   1.85338
    A3        1.13536  -0.00046   0.00000  -0.14186  -0.14186   0.99350
    A4        1.41653   0.00008   0.00000   0.04875   0.04875   1.46528
    D1        1.61487  -0.00010   0.00000  -0.01244  -0.01244   1.60243
         Item               Value     Threshold  Converged?
 Maximum Force            0.002069     0.000450     NO 
 RMS     Force            0.000722     0.000300     NO 
 Maximum Displacement     0.119169     0.001800     NO 
 RMS     Displacement     0.100601     0.001200     NO 
 Predicted change in Energy=-6.150044D-05
 GradGradGradGradGradGradGradGradGradGradGradGradGradGradGradGradGradGrad

                          Input orientation:                          
 ---------------------------------------------------------------------
 Center     Atomic      Atomic             Coordinates (Angstroms)
 Number     Number       Type             X           Y           Z
 ---------------------------------------------------------------------
      1          8           0       -0.565970   -1.006958    0.413252
      2          1           0       -1.742825    1.276246   -2.183592
      3          8           0        0.304557   -0.839641   -0.389362
      4          8           0       -1.535146    0.342682   -2.056890
      5          1           0       -1.896645   -0.118518   -2.819933
 ---------------------------------------------------------------------
                    Distance matrix (angstroms):
                    1          2          3          4          5
     1  O    0.000000
     2  H    3.652616   0.000000
     3  O    1.195827   3.447900   0.000000
     4  O    2.976984   0.964741   2.750099   0.000000
     5  H    3.607424   1.540766   3.357526   0.962093   0.000000
 Stoichiometry    H2O3
 Framework group  C1[X(H2O3)]
 Deg. of freedom     9
 Full point group                 C1      NOp   1
 Largest Abelian subgroup         C1      NOp   1
 Largest concise Abelian subgroup C1      NOp   1
                         Standard orientation:                         
 ---------------------------------------------------------------------
 Center     Atomic      Atomic             Coordinates (Angstroms)
 Number     Number       Type             X           Y           Z
 ---------------------------------------------------------------------
      1          8           0       -1.251999   -0.557637    0.013051
      2          1           0        2.296596   -0.130661   -0.739788
      3          8           0       -0.992222    0.609276   -0.015783
      4          8           0        1.679807   -0.041230   -0.003379
      5          1           0        2.218715    0.047388    0.788673
 ---------------------------------------------------------------------
 Rotational constants (GHZ):     41.6201417      5.2094115      4.7325256
 Standard basis: 6-31+G(d,p) (6D, 7F)
 There are    67 symmetry adapted basis functions of A   symmetry.
 Integral buffers will be    262144 words long.
 Raffenetti 2 integral format.
 Two-electron integral symmetry is turned on.
    67 basis functions,   110 primitive gaussians,    67 cartesian basis functions
    13 alpha electrons       13 beta electrons
       nuclear repulsion energy        65.9656646042 Hartrees.
 NAtoms=    5 NActive=    5 NUniq=    5 SFac= 7.50D-01 NAtFMM=   80 NAOKFM=F Big=F
 One-electron integrals computed using PRISM.
 NBasis=    67 RedAO= T  NBF=    67
 NBsUse=    67 1.00D-06 NBFU=    67
 Initial guess read from the read-write file.
 B after Tr=     0.000000    0.000000    0.000000
         Rot=    1.000000    0.000000    0.000000    0.000000 Ang=   0.00 deg.
 Initial guess orbital symmetries:
       Occupied  (A) (A) (A) (A) (A) (A) (A) (A) (A) (A) (A) (A)
                 (A)
       Virtual   (A) (A) (A) (A) (A) (A) (A) (A) (A) (A) (A) (A)
                 (A) (A) (A) (A) (A) (A) (A) (A) (A) (A) (A) (A)
                 (A) (A) (A) (A) (A) (A) (A) (A) (A) (A) (A) (A)
                 (A) (A) (A) (A) (A) (A) (A) (A) (A) (A) (A) (A)
                 (A) (A) (A) (A) (A) (A)
 Harris functional with IExCor= 1009 diagonalized for initial guess.
 ExpMin= 8.45D-02 ExpMax= 5.48D+03 ExpMxC= 8.25D+02 IAcc=2 IRadAn=         0 AccDes= 0.00D+00
 HarFok:  IExCor= 1009 AccDes= 0.00D+00 IRadAn=         0 IDoV= 1
 ScaDFX=  1.000000  1.000000  1.000000  1.000000
 FoFCou: FMM=F IPFlag=           0 FMFlag=      100000 FMFlg1=           0
         NFxFlg=           0 DoJE=T BraDBF=F KetDBF=T FulRan=T
         Omega=  0.000000  0.000000  1.000000  0.000000  0.000000 ICntrl=     500 IOpCl=  0
         NMat0=    1 NMatS0=    1 NMatT0=    0 NMatD0=    1 NMtDS0=    0 NMtDT0=    0
         I1Cent=           4 NGrid=           0.
 Petite list used in FoFCou.
 Requested convergence on RMS density matrix=1.00D-08 within 128 cycles.
 Requested convergence on MAX density matrix=1.00D-06.
 Requested convergence on             energy=1.00D-06.
 No special actions if energy rises.
 Keep R1 ints in memory in canonical form, NReq=3550937.
 Integral accuracy reduced to 1.0D-05 until final iterations.
 Initial convergence to 1.0D-05 achieved.  Increase integral accuracy.
 SCF Done:  E(RM062X) =  -226.603511067     A.U. after   16 cycles
             Convg  =    0.6085D-08             -V/T =  2.0081
 Calling FoFJK, ICntrl=      2127 FMM=F ISym2X=0 I1Cent= 0 IOpClX= 0 NMat=1 NMatS=1 NMatT=0.
 ***** Axes restored to original set *****
 -------------------------------------------------------------------
 Center     Atomic                   Forces (Hartrees/Bohr)
 Number     Number              X              Y              Z
 -------------------------------------------------------------------
      1        8          -0.000072778    0.000384675    0.000111488
      2        1           0.000679599   -0.002724938    0.000272746
      3        8           0.000079564   -0.000318975   -0.000232118
      4        8          -0.000746767    0.002519892   -0.000009707
      5        1           0.000060381    0.000139346   -0.000142410
 -------------------------------------------------------------------
 Cartesian Forces:  Max     0.002724938 RMS     0.001007973

 GradGradGradGradGradGradGradGradGradGradGradGradGradGradGradGradGradGrad
 Berny optimization.
 Internal  Forces:  Max     0.002700535 RMS     0.000928308
 Search for a saddle point.
 Step number   8 out of a maximum of   20
 All quantities printed in internal units (Hartrees-Bohrs-Radians)
 Swaping is turned off.
 Update second derivatives using D2CorX and points    5    6    7    8
 The second derivative matrix:
                          R1        R2        R3        R4        A1
           R1           0.00487
           R2          -0.00259   0.90439
           R3           0.01049   0.01049   0.34944
           R4           0.00030  -0.00119  -0.00557   0.56509
           A1           0.00168   0.00980   0.00329  -0.00064   0.04525
           A2           0.00419  -0.00224   0.02046   0.01648  -0.00585
           A3           0.00947  -0.00591   0.00251   0.00114  -0.00970
           A4           0.00151  -0.00001  -0.00643   0.00042   0.00479
           D1           0.00125   0.00051  -0.00164  -0.00019   0.00044
                          A2        A3        A4        D1
           A2           0.11626
           A3           0.00757   0.02623
           A4          -0.00039   0.00288   0.00813
           D1          -0.00142   0.00037   0.00270  -0.00015
     Eigenvalues ---   -0.00150   0.00097   0.00721   0.02710   0.04845
     Eigenvalues ---    0.11525   0.35148   0.56580   0.90476
 Eigenvectors required to have negative eigenvalues:
                          D1        R1        A4        A3        A1
   1                    0.85270  -0.41335  -0.25607   0.17637   0.07122
                          A2        R3        R2        R4
   1                    0.01474   0.00891  -0.00135   0.00008
 RFO step:  Lambda0=7.838571843D-05 Lambda=-1.20367088D-04.
 Linear search not attempted -- option 19 set.
 Maximum step size (   0.300) exceeded in Quadratic search.
    -- Step size scaled by   0.814
 Iteration  1 RMS(Cart)=  0.08491463 RMS(Int)=  0.02322991
 Iteration  2 RMS(Cart)=  0.02498247 RMS(Int)=  0.00001081
 Iteration  3 RMS(Cart)=  0.00001020 RMS(Int)=  0.00000000
 Iteration  4 RMS(Cart)=  0.00000000 RMS(Int)=  0.00000000
 Variable       Old X    -DE/DX   Delta X   Delta X   Delta X     New X
                                 (Linear)    (Quad)   (Total)
    R1        6.90244  -0.00013   0.00000  -0.26762  -0.26762   6.63483
    R2        2.25979   0.00016   0.00000  -0.00031  -0.00031   2.25948
    R3        1.82310  -0.00270   0.00000   0.00020   0.00020   1.82329
    R4        1.81809   0.00003   0.00000  -0.00002  -0.00002   1.81807
[...]
 Swaping is turned off.
 Update second derivatives using D2CorX and points   12   13   14   15   16
                                                     17   18   19
 The second derivative matrix:
                          R1        R2        R3        R4        A1
           R1           0.00852
           R2          -0.00073   0.90466
           R3          -0.00781   0.00850   0.40997
           R4           0.00061  -0.00136  -0.00471   0.56497
           A1           0.01009   0.00935  -0.00583  -0.00158   0.04114
           A2          -0.00088  -0.00253   0.03135   0.01672  -0.00749
           A3           0.00995  -0.00563  -0.01545   0.00065  -0.00769
           A4           0.00143  -0.00090  -0.00392   0.00124  -0.00230
           D1           0.00026  -0.00109  -0.00382   0.00019  -0.00234
                          A2        A3        A4        D1
           A2           0.11865
           A3           0.00441   0.02753
           A4           0.00025   0.00471   0.00249
           D1          -0.00015  -0.00041   0.00161   0.00066
     Eigenvalues ---   -0.00108   0.00083   0.00286   0.03075   0.04477
     Eigenvalues ---    0.11577   0.41404   0.56568   0.90496
 Eigenvectors required to have negative eigenvalues:
                          D1        A4        R1        A3        A1
   1                    0.74884  -0.41533  -0.40737   0.27035   0.16619
                          R3        A2        R4        R2
   1                    0.00803  -0.00308   0.00141   0.00004
 RFO step:  Lambda0=1.839056341D-05 Lambda=-4.86888412D-05.
 Linear search not attempted -- option 19 set.
 Iteration  1 RMS(Cart)=  0.08575309 RMS(Int)=  0.00921690
 Iteration  2 RMS(Cart)=  0.01064025 RMS(Int)=  0.00000574
 Iteration  3 RMS(Cart)=  0.00000991 RMS(Int)=  0.00000000
 Iteration  4 RMS(Cart)=  0.00000000 RMS(Int)=  0.00000000
 Variable       Old X    -DE/DX   Delta X   Delta X   Delta X     New X
                                 (Linear)    (Quad)   (Total)
    R1        6.97837   0.00007   0.00000   0.22098   0.22098   7.19935
    R2        2.25985  -0.00011   0.00000   0.00026   0.00026   2.26011
    R3        1.81722   0.00036   0.00000  -0.00023  -0.00023   1.81699
    R4        1.81861  -0.00028   0.00000  -0.00068  -0.00068   1.81793
    A1        1.17085  -0.00029   0.00000  -0.08343  -0.08343   1.08742
    A2        1.85411  -0.00018   0.00000  -0.00157  -0.00157   1.85254
    A3        0.94774   0.00012   0.00000  -0.08892  -0.08892   0.85882
    A4        1.55887  -0.00012   0.00000  -0.05859  -0.05859   1.50028
    D1        1.06522   0.00018   0.00000  -0.03444  -0.03444   1.03078
         Item               Value     Threshold  Converged?
 Maximum Force            0.000359     0.000450     YES
 RMS     Force            0.000212     0.000300     YES
 Maximum Displacement     0.116238     0.001800     NO 
 RMS     Displacement     0.085650     0.001200     NO 
 Predicted change in Energy=-1.624727D-05
 GradGradGradGradGradGradGradGradGradGradGradGradGradGradGradGradGradGrad

                          Input orientation:                          
 ---------------------------------------------------------------------
 Center     Atomic      Atomic             Coordinates (Angstroms)
 Number     Number       Type             X           Y           Z
 ---------------------------------------------------------------------
      1          8           0       -0.465341   -0.982255    0.499936
      2          1           0       -1.813619    1.293294   -2.241976
      3          8           0        0.160706   -0.905066   -0.516195
      4          8           0       -1.619599    0.386448   -1.988025
      5          1           0       -1.698175   -0.138609   -2.790267
 ---------------------------------------------------------------------
                    Distance matrix (angstroms):
                    1          2          3          4          5
     1  O    0.000000
     2  H    3.809732   0.000000
     3  O    1.196000   3.421851   0.000000
     4  O    3.065226   0.961511   2.646466   0.000000
     5  H    3.613455   1.537627   3.035507   0.962005   0.000000
 Stoichiometry    H2O3
 Framework group  C1[X(H2O3)]
 Deg. of freedom     9
 Full point group                 C1      NOp   1
 Largest Abelian subgroup         C1      NOp   1
 Largest concise Abelian subgroup C1      NOp   1
                         Standard orientation:                         
 ---------------------------------------------------------------------
 Center     Atomic      Atomic             Coordinates (Angstroms)
 Number     Number       Type             X           Y           Z
 ---------------------------------------------------------------------
      1          8           0       -1.362330   -0.496035    0.046907
      2          1           0        2.384487   -0.303920   -0.615293
      3          8           0       -0.872416    0.589349   -0.064190
      4          8           0        1.678466   -0.111721    0.008483
      5          1           0        2.065762    0.451172    0.685687
 ---------------------------------------------------------------------
 Rotational constants (GHZ):     46.1721569      5.1836858      4.7418635
 Standard basis: 6-31+G(d,p) (6D, 7F)
 There are    67 symmetry adapted basis functions of A   symmetry.
 Integral buffers will be    262144 words long.
 Raffenetti 2 integral format.
 Two-electron integral symmetry is turned on.
    67 basis functions,   110 primitive gaussians,    67 cartesian basis functions
    13 alpha electrons       13 beta electrons
       nuclear repulsion energy        66.2254949103 Hartrees.
 NAtoms=    5 NActive=    5 NUniq=    5 SFac= 7.50D-01 NAtFMM=   80 NAOKFM=F Big=F
 One-electron integrals computed using PRISM.
 NBasis=    67 RedAO= T  NBF=    67
 NBsUse=    67 1.00D-06 NBFU=    67
 Initial guess read from the read-write file.
 B after Tr=     0.000000    0.000000    0.000000
         Rot=    1.000000    0.000000    0.000000    0.000000 Ang=   0.00 deg.
 Initial guess orbital symmetries:
       Occupied  (A) (A) (A) (A) (A) (A) (A) (A) (A) (A) (A) (A)
                 (A)
       Virtual   (A) (A) (A) (A) (A) (A) (A) (A) (A) (A) (A) (A)
                 (A) (A) (A) (A) (A) (A) (A) (A) (A) (A) (A) (A)
                 (A) (A) (A) (A) (A) (A) (A) (A) (A) (A) (A) (A)
                 (A) (A) (A) (A) (A) (A) (A) (A) (A) (A) (A) (A)
                 (A) (A) (A) (A) (A) (A)
 Harris functional with IExCor= 1009 diagonalized for initial guess.
 ExpMin= 8.45D-02 ExpMax= 5.48D+03 ExpMxC= 8.25D+02 IAcc=2 IRadAn=         0 AccDes= 0.00D+00
 HarFok:  IExCor= 1009 AccDes= 0.00D+00 IRadAn=         0 IDoV= 1
 ScaDFX=  1.000000  1.000000  1.000000  1.000000
 FoFCou: FMM=F IPFlag=           0 FMFlag=      100000 FMFlg1=           0
         NFxFlg=           0 DoJE=T BraDBF=F KetDBF=T FulRan=T
         Omega=  0.000000  0.000000  1.000000  0.000000  0.000000 ICntrl=     500 IOpCl=  0
         NMat0=    1 NMatS0=    1 NMatT0=    0 NMatD0=    1 NMtDS0=    0 NMtDT0=    0
         I1Cent=           4 NGrid=           0.
 Petite list used in FoFCou.
 Requested convergence on RMS density matrix=1.00D-08 within 128 cycles.
 Requested convergence on MAX density matrix=1.00D-06.
 Requested convergence on             energy=1.00D-06.
 No special actions if energy rises.
 Keep R1 ints in memory in canonical form, NReq=3551234.
 Integral accuracy reduced to 1.0D-05 until final iterations.
 Initial convergence to 1.0D-05 achieved.  Increase integral accuracy.
 SCF Done:  E(RM062X) =  -226.603384404     A.U. after   21 cycles
             Convg  =    0.2151D-08             -V/T =  2.0081
 Calling FoFJK, ICntrl=      2127 FMM=F ISym2X=0 I1Cent= 0 IOpClX= 0 NMat=1 NMatS=1 NMatT=0.
 ***** Axes restored to original set *****
 -------------------------------------------------------------------
 Center     Atomic                   Forces (Hartrees/Bohr)
 Number     Number              X              Y              Z
 -------------------------------------------------------------------
      1        8          -0.000260085   -0.000178604   -0.000176650
      2        1           0.000043052    0.000636849   -0.000014932
      3        8           0.000428965    0.000161473    0.000195696
      4        8           0.000016921   -0.000368465    0.000131106
      5        1          -0.000228854   -0.000251254   -0.000135221
 -------------------------------------------------------------------
 Cartesian Forces:  Max     0.000636849 RMS     0.000267559

 GradGradGradGradGradGradGradGradGradGradGradGradGradGradGradGradGradGrad
 Berny optimization.
 Internal  Forces:  Max     0.000636234 RMS     0.000398730
 Search for a saddle point.
 Step number  20 out of a maximum of   20
 All quantities printed in internal units (Hartrees-Bohrs-Radians)
 Swaping is turned off.
 Update second derivatives using D2CorX and points   13   14   15   16   17
                                                     18   19   20
 The second derivative matrix:
                          R1        R2        R3        R4        A1
           R1           0.00698
           R2          -0.00054   0.90468
           R3          -0.00943   0.00849   0.40949
           R4          -0.00021  -0.00142  -0.00442   0.56494
           A1           0.00872   0.00913  -0.00494  -0.00117   0.04264
           A2          -0.00130  -0.00253   0.03147   0.01667  -0.00735
           A3           0.00888  -0.00584  -0.01445   0.00125  -0.00570
           A4           0.00172  -0.00090  -0.00411   0.00094  -0.00282
           D1          -0.00041  -0.00118  -0.00288   0.00084  -0.00054
                          A2        A3        A4        D1
           A2           0.11861
           A3           0.00461   0.02963
           A4           0.00006   0.00427   0.00260
           D1           0.00016   0.00112   0.00117   0.00193
     Eigenvalues ---    0.00007   0.00217   0.00280   0.03174   0.04483
     Eigenvalues ---    0.11571   0.41356   0.56564   0.90498
 Eigenvectors required to have negative eigenvalues:
                          A4        R1        D1        A1        A3
   1                    0.58486  -0.56863  -0.53692   0.16648   0.13626
                          R3        R2        R4        A2
   1                   -0.00418  -0.00122  -0.00039   0.00034
 RFO step:  Lambda0=2.667798017D-04 Lambda=-1.32555379D-04.
 Linear search not attempted -- option 19 set.
 Maximum step size (   0.300) exceeded in Quadratic search.
    -- Step size scaled by   0.251
 Iteration  1 RMS(Cart)=  0.08290255 RMS(Int)=  0.00543370
 Iteration  2 RMS(Cart)=  0.00420027 RMS(Int)=  0.00001420
 Iteration  3 RMS(Cart)=  0.00002443 RMS(Int)=  0.00000000
 Iteration  4 RMS(Cart)=  0.00000000 RMS(Int)=  0.00000000
 Variable       Old X    -DE/DX   Delta X   Delta X   Delta X     New X
                                 (Linear)    (Quad)   (Total)
    R1        7.19935   0.00013   0.00000  -0.20235  -0.20235   6.99700
    R2        2.26011  -0.00008   0.00000  -0.00039  -0.00039   2.25973
    R3        1.81699   0.00054   0.00000  -0.00072  -0.00072   1.81627
    R4        1.81793   0.00027   0.00000  -0.00004  -0.00004   1.81788
    A1        1.08742   0.00064   0.00000   0.06239   0.06239   1.14981
    A2        1.85254   0.00012   0.00000  -0.00012  -0.00012   1.85242
    A3        0.85882   0.00062   0.00000   0.05903   0.05903   0.91785
    A4        1.50028  -0.00016   0.00000   0.16197   0.16197   1.66225
    D1        1.03078   0.00046   0.00000  -0.12426  -0.12426   0.90652
         Item               Value     Threshold  Converged?
 Maximum Force            0.000636     0.000450     NO 
 RMS     Force            0.000399     0.000300     NO 
 Maximum Displacement     0.131907     0.001800     NO 
 RMS     Displacement     0.083118     0.001200     NO 
 Predicted change in Energy= 4.085360D-05
 Optimization stopped.
    -- Number of steps exceeded,  NStep=  20
    -- Flag reset to prevent archiving.
                           ----------------------------
                           ! Non-Optimized Parameters !
                           ! (Angstroms and Degrees)  !
 --------------------------                            --------------------------
 ! Name  Definition              Value          Derivative Info.                !
 --------------------------------------------------------------------------------
 ! R1    R(1,2)                  3.7027         -DE/DX =    0.0001              !
 ! R2    R(1,3)                  1.1958         -DE/DX =   -0.0001              !
 ! R3    R(2,4)                  0.9611         -DE/DX =    0.0005              !
 ! R4    R(4,5)                  0.962          -DE/DX =    0.0003              !
 ! A1    A(2,1,3)               65.8793         -DE/DX =    0.0006              !
 ! A2    A(2,4,5)              106.1359         -DE/DX =    0.0001              !
 ! A3    L(1,2,4,3,-1)          52.5891         -DE/DX =    0.0006              !
 ! A4    L(1,2,4,3,-2)          95.2399         -DE/DX =   -0.0002              !
 ! D1    D(3,1,4,5)             51.9397         -DE/DX =    0.0005              !
 --------------------------------------------------------------------------------
 GradGradGradGradGradGradGradGradGradGradGradGradGradGradGradGradGradGrad

                          Input orientation:                          
 ---------------------------------------------------------------------
 Center     Atomic      Atomic             Coordinates (Angstroms)
 Number     Number       Type             X           Y           Z
 ---------------------------------------------------------------------
      1          8           0       -0.465341   -0.982255    0.499936
      2          1           0       -1.813619    1.293294   -2.241976
      3          8           0        0.160706   -0.905066   -0.516195
      4          8           0       -1.619599    0.386448   -1.988025
      5          1           0       -1.698175   -0.138609   -2.790267
 ---------------------------------------------------------------------
                    Distance matrix (angstroms):
                    1          2          3          4          5
     1  O    0.000000
     2  H    3.809732   0.000000
     3  O    1.196000   3.421851   0.000000
     4  O    3.065226   0.961511   2.646466   0.000000
     5  H    3.613455   1.537627   3.035507   0.962005   0.000000
 Stoichiometry    H2O3
 Framework group  C1[X(H2O3)]
 Deg. of freedom     9
 Full point group                 C1      NOp   1
 Largest Abelian subgroup         C1      NOp   1
 Largest concise Abelian subgroup C1      NOp   1
                         Standard orientation:                         
 ---------------------------------------------------------------------
 Center     Atomic      Atomic             Coordinates (Angstroms)
 Number     Number       Type             X           Y           Z
 ---------------------------------------------------------------------
      1          8           0       -1.362330   -0.496035    0.046907
      2          1           0        2.384487   -0.303920   -0.615293
      3          8           0       -0.872416    0.589349   -0.064190
      4          8           0        1.678466   -0.111721    0.008483
      5          1           0        2.065762    0.451172    0.685687
 ---------------------------------------------------------------------
 Rotational constants (GHZ):     46.1721569      5.1836858      4.7418635

 **********************************************************************

            Population analysis using the SCF density.

 **********************************************************************

 Orbital symmetries:
       Occupied  (A) (A) (A) (A) (A) (A) (A) (A) (A) (A) (A) (A)
                 (A)
       Virtual   (A) (A) (A) (A) (A) (A) (A) (A) (A) (A) (A) (A)
                 (A) (A) (A) (A) (A) (A) (A) (A) (A) (A) (A) (A)
                 (A) (A) (A) (A) (A) (A) (A) (A) (A) (A) (A) (A)
                 (A) (A) (A) (A) (A) (A) (A) (A) (A) (A) (A) (A)
                 (A) (A) (A) (A) (A) (A)
 The electronic state is 1-A.
 Alpha  occ. eigenvalues --  -19.79147 -19.78779 -19.65838  -1.41167  -1.14302
 Alpha  occ. eigenvalues --   -0.89267  -0.62081  -0.60303  -0.60100  -0.58097
 Alpha  occ. eigenvalues --   -0.47533  -0.40493  -0.31800
 Alpha virt. eigenvalues --   -0.09323   0.06151   0.11539   0.12146   0.13995
 Alpha virt. eigenvalues --    0.18069   0.18985   0.20147   0.22533   0.23897
 Alpha virt. eigenvalues --    0.26741   0.27271   0.28524   0.33137   0.37370
 Alpha virt. eigenvalues --    0.38818   0.98907   1.05608   1.07766   1.08771
 Alpha virt. eigenvalues --    1.14048   1.15022   1.16393   1.17791   1.20164
 Alpha virt. eigenvalues --    1.22603   1.23598   1.26598   1.44339   1.55738
 Alpha virt. eigenvalues --    1.57826   1.58268   1.59695   1.61742   1.64757
 Alpha virt. eigenvalues --    1.70706   1.75298   2.01176   2.02295   2.27889
 Alpha virt. eigenvalues --    2.29141   2.57160   2.59422   2.65424   2.67276
 Alpha virt. eigenvalues --    2.67645   2.68326   2.99776   3.05913   3.37174
 Alpha virt. eigenvalues --    3.54033   3.72990   4.04139   4.15069
          Condensed to atoms (all electrons):
              1          2          3          4          5
     1  O    7.723909   0.001031   0.300485  -0.003754   0.001338
     2  H    0.001031   0.348757   0.000721   0.290491  -0.022795
     3  O    0.300485   0.000721   7.685597  -0.035216   0.001589
     4  O   -0.003754   0.290491  -0.035216   8.238243   0.288489
     5  H    0.001338  -0.022795   0.001589   0.288489   0.358737
 Mulliken atomic charges:
              1
     1  O   -0.023008
     2  H    0.381796
     3  O    0.046824
     4  O   -0.778253
     5  H    0.372642
 Sum of Mulliken atomic charges =   0.00000
 Mulliken charges with hydrogens summed into heavy atoms:
              1
     1  O   -0.023008
     3  O    0.046824
     4  O   -0.023815
 Sum of Mulliken charges with hydrogens summed into heavy atoms =   0.00000
 Electronic spatial extent (au):  <R**2>=            244.0679
 Charge=              0.0000 electrons
 Dipole moment (field-independent basis, Debye):
    X=              2.2519    Y=              0.7179    Z=              0.0864  Tot=              2.3652
 Quadrupole moment (field-independent basis, Debye-Ang):
   XX=             -8.8549   YY=            -17.4312   ZZ=            -16.3456
   XY=              0.5961   XZ=             -0.4526   YZ=              1.4994
 Traceless Quadrupole moment (field-independent basis, Debye-Ang):
   XX=              5.3557   YY=             -3.2206   ZZ=             -2.1350
   XY=              0.5961   XZ=             -0.4526   YZ=              1.4994
 Octapole moment (field-independent basis, Debye-Ang**2):
  XXX=             19.4716  YYY=              0.7102  ZZZ=              0.2229  XYY=              0.0060
  XXY=              3.2192  XXZ=             -1.6000  XZZ=              4.1516  YZZ=              0.3242
  YYZ=              0.0785  XYZ=              3.0228
 Hexadecapole moment (field-independent basis, Debye-Ang**3):
 XXXX=           -155.4309 YYYY=            -33.1249 ZZZZ=            -15.6950 XXXY=              0.7650
 XXXZ=             -7.4323 YYYX=              1.0294 YYYZ=              0.9244 ZZZX=             -0.0235
 ZZZY=              1.6261 XXYY=            -41.5930 XXZZ=            -32.4272 YYZZ=             -8.7946
 XXYZ=              6.5764 YYXZ=             -0.0557 ZZXY=              0.2576
 N-N= 6.622549491028D+01 E-N=-6.674060132424D+02  KE= 2.247824319485D+02


 WE DON'T KNOW ONE MILLIONTH OF ONE PERCENT ABOUT
 ANYTHING.
                                     T. A. EDISON.
 Error termination request processed by link 9999.
 Error termination via Lnk1e in C:\G09W\l9999.exe at Mon Feb 08 05:54:15 2021.
 Job cpu time:  0 days  0 hours  1 minutes 40.0 seconds.
 File lengths (MBytes):  RWF=      5 Int=      0 D2E=      0 Chk=      1 Scr=      1
