 Entering Link 1 = C:\G09W\l1.exe PID=      5872.
  
 Copyright (c) 1988,1990,1992,1993,1995,1998,2003,2009, Gaussian, Inc.
                  All Rights Reserved.
  
 This is part of the Gaussian(R) 09 program.  It is based on
 the Gaussian(R) 03 system (copyright 2003, Gaussian, Inc.),
 the Gaussian(R) 98 system (copyright 1998, Gaussian, Inc.),
 the Gaussian(R) 94 system (copyright 1995, Gaussian, Inc.),
 the Gaussian 92(TM) system (copyright 1992, Gaussian, Inc.),
 the Gaussian 90(TM) system (copyright 1990, Gaussian, Inc.),
 the Gaussian 88(TM) system (copyright 1988, Gaussian, Inc.),
 the Gaussian 86(TM) system (copyright 1986, Carnegie Mellon
 University), and the Gaussian 82(TM) system (copyright 1983,
 Carnegie Mellon University). Gaussian is a federally registered
 trademark of Gaussian, Inc.
  
 This software contains proprietary and confidential information,
 including trade secrets, belonging to Gaussian, Inc.
  
 This software is provided under written license and may be
 used, copied, transmitted, or stored only in accord with that
 written license.
  
 The following legend is applicable only to US Government
 contracts under FAR:
  
                    RESTRICTED RIGHTS LEGEND
  
 Use, reproduction and disclosure by the US Government is
 subject to restrictions as set forth in subparagraphs (a)
 and (c) of the Commercial Computer Software - Restricted
 Rights clause in FAR 52.227-19.
  
 Gaussian, Inc.
 340 Quinnipiac St., Bldg. 40, Wallingford CT 06492
  
  
 ---------------------------------------------------------------
 Warning -- This program may not be used in any manner that
 competes with the business of Gaussian, Inc. or will provide
 assistance to any competitor of Gaussian, Inc.  The licensee
 of this program is prohibited from giving any competitor of
 Gaussian, Inc. access to this program.  By using this program,
 the user acknowledges that Gaussian, Inc. is engaged in the
 business of creating and licensing software in the field of
 computational chemistry and represents and warrants to the
 licensee that it is not a competitor of Gaussian, Inc. and that
 it will not use this program in any manner prohibited above.
 ---------------------------------------------------------------
  

 Cite this work as:
 Gaussian 09, Revision A.02,
 M. J. Frisch, G. W. Trucks, H. B. Schlegel, G. E. Scuseria, 
 M. A. Robb, J. R. Cheeseman, G. Scalmani, V. Barone, B. Mennucci, 
 G. A. Petersson, H. Nakatsuji, M. Caricato, X. Li, H. P. Hratchian, 
 A. F. Izmaylov, J. Bloino, G. Zheng, J. L. Sonnenberg, M. Hada, 
 M. Ehara, K. Toyota, R. Fukuda, J. Hasegawa, M. Ishida, T. Nakajima, 
 Y. Honda, O. Kitao, H. Nakai, T. Vreven, J. A. Montgomery, Jr., 
 J. E. Peralta, F. Ogliaro, M. Bearpark, J. J. Heyd, E. Brothers, 
 K. N. Kudin, V. N. Staroverov, R. Kobayashi, J. Normand, 
 K. Raghavachari, A. Rendell, J. C. Burant, S. S. Iyengar, J. Tomasi, 
 M. Cossi, N. Rega, J. M. Millam, M. Klene, J. E. Knox, J. B. Cross, 
 V. Bakken, C. Adamo, J. Jaramillo, R. Gomperts, R. E. Stratmann, 
 O. Yazyev, A. J. Austin, R. Cammi, C. Pomelli, J. W. Ochterski, 
 R. L. Martin, K. Morokuma, V. G. Zakrzewski, G. A. Voth, 
 P. Salvador, J. J. Dannenberg, S. Dapprich, A. D. Daniels, 
 O. Farkas, J. B. Foresman, J. V. Ortiz, J. Cioslowski, 
 and D. J. Fox, Gaussian, Inc., Wallingford CT, 2009.
 
 ******************************************
 Gaussian 09:  IA32W-G09RevA.02 11-Jun-2009
                20-Jan-2021 
 ******************************************
 %chk=D:\Documents\rayGit\FQ\quimicaComputacional\p5Fenol\transitionState\tsFenol
 andRadical.chk
 %mem=1500mb
 %nproc=4
 Will use up to    4 processors via shared memory.
 ----------------------------------------------------------------------
 # opt(calcfc,ts,noeigen) freq=noraman scrf=smd 6-31+G(d,p) iop(1/8=3) 
 m062x
 ----------------------------------------------------------------------
 1/5=1,8=3,10=4,11=1,14=-1,18=20,26=3,38=1/1,3;
 2/9=110,12=2,17=6,18=5,40=1/2;
 3/5=1,6=6,7=111,11=2,16=1,25=1,30=1,70=32201,71=2,72=1,74=-55/1,2,3;
 4//1;
 5/5=2,38=5/2;
 8/6=4,10=90,11=11/1;
 11/6=1,8=1,9=11,15=111,16=1/1,2,10;
 10/6=1,7=6,13=1/2;
 6/7=2,8=2,9=2,10=2,28=1/1;
 7/10=1,18=20,25=1/1,2,3,16;
 1/5=1,8=3,10=4,11=1,14=-1,18=20/3(2);
 2/9=110/2;
 99//99;
 2/9=110/2;
 3/5=1,6=6,7=111,11=2,16=1,25=1,30=1,70=32205,71=1,74=-55/1,2,3;
 4/5=5,16=3/1;
 5/5=2,38=5/2;
 7//1,2,3,16;
 1/5=1,8=3,11=1,14=-1,18=20/3(-5);
 2/9=110/2;
 6/7=2,8=2,9=2,10=2,19=2,28=1/1;
 99/9=1/99;
 -----------------------
 tsFenolandRadical m062x
 -----------------------
 Symbolic Z-matrix:
 Charge =  0 Multiplicity = 2
 C                     0.72131  -2.765    -0.28169 
 C                     0.72061  -1.79713  -1.28654 
 C                     1.91859  -1.42124  -1.8938 
 C                     3.11818  -2.01245  -1.49544 
 C                     3.11886  -2.97973  -0.4905 
 C                     1.9203   -3.35634   0.11616 
 H                    -0.22336  -3.06153   0.19664 
 H                    -0.22491  -1.33168  -1.60051 
 H                     4.06262  -1.71587  -1.97434 
 H                     4.0641   -3.44585  -0.17631 
 H                     1.92105  -4.11905   0.90825 
 O                     1.91788  -0.42981  -2.92431 
 H                     2.14505   0.64047  -2.50983 
 O                     2.41363   1.57672  -1.67934 
 O                     2.50414   1.01263  -0.48938 
 H                     1.64757   1.03903  -0.05674 
 

 GradGradGradGradGradGradGradGradGradGradGradGradGradGradGradGradGradGrad
 Berny optimization.
 Initialization pass.
                           ----------------------------
                           !    Initial Parameters    !
                           ! (Angstroms and Degrees)  !
 --------------------------                            --------------------------
 ! Name  Definition              Value          Derivative Info.                !
 --------------------------------------------------------------------------------
 ! R1    R(1,2)                  1.3952         calculate D2E/DX2 analytically  !
 ! R2    R(1,6)                  1.3948         calculate D2E/DX2 analytically  !
 ! R3    R(1,7)                  1.0996         calculate D2E/DX2 analytically  !
 ! R4    R(2,3)                  1.3947         calculate D2E/DX2 analytically  !
 ! R5    R(2,8)                  1.0997         calculate D2E/DX2 analytically  !
 ! R6    R(3,4)                  1.3954         calculate D2E/DX2 analytically  !
 ! R7    R(3,12)                 1.43           calculate D2E/DX2 analytically  !
 ! R8    R(4,5)                  1.3948         calculate D2E/DX2 analytically  !
 ! R9    R(4,9)                  1.0997         calculate D2E/DX2 analytically  !
 ! R10   R(5,6)                  1.3951         calculate D2E/DX2 analytically  !
 ! R11   R(5,10)                 1.0998         calculate D2E/DX2 analytically  !
 ! R12   R(6,11)                 1.0996         calculate D2E/DX2 analytically  !
 ! R13   R(12,13)                1.17           calculate D2E/DX2 analytically  !
 ! R14   R(13,14)                1.28           calculate D2E/DX2 analytically  !
 ! R15   R(14,15)                1.32           calculate D2E/DX2 analytically  !
 ! R16   R(15,16)                0.96           calculate D2E/DX2 analytically  !
 ! A1    A(2,1,6)              119.9985         calculate D2E/DX2 analytically  !
 ! A2    A(2,1,7)              119.9972         calculate D2E/DX2 analytically  !
 ! A3    A(6,1,7)              120.0043         calculate D2E/DX2 analytically  !
 ! A4    A(1,2,3)              120.0086         calculate D2E/DX2 analytically  !
 ! A5    A(1,2,8)              119.9808         calculate D2E/DX2 analytically  !
 ! A6    A(3,2,8)              120.0106         calculate D2E/DX2 analytically  !
 ! A7    A(2,3,4)              119.9942         calculate D2E/DX2 analytically  !
 ! A8    A(2,3,12)             120.0128         calculate D2E/DX2 analytically  !
 ! A9    A(4,3,12)             119.993          calculate D2E/DX2 analytically  !
 ! A10   A(3,4,5)              119.994          calculate D2E/DX2 analytically  !
 ! A11   A(3,4,9)              119.9811         calculate D2E/DX2 analytically  !
 ! A12   A(5,4,9)              120.0249         calculate D2E/DX2 analytically  !
 ! A13   A(4,5,6)              120.0047         calculate D2E/DX2 analytically  !
 ! A14   A(4,5,10)             120.0113         calculate D2E/DX2 analytically  !
 ! A15   A(6,5,10)             119.984          calculate D2E/DX2 analytically  !
 ! A16   A(1,6,5)              120.0            calculate D2E/DX2 analytically  !
 ! A17   A(1,6,11)             120.008          calculate D2E/DX2 analytically  !
 ! A18   A(5,6,11)             119.992          calculate D2E/DX2 analytically  !
 ! A19   A(3,12,13)            112.261          calculate D2E/DX2 analytically  !
 ! A20   A(12,13,14)           160.0            calculate D2E/DX2 analytically  !
 ! A21   A(13,14,15)           106.6612         calculate D2E/DX2 analytically  !
 ! A22   A(14,15,16)           109.4712         calculate D2E/DX2 analytically  !
 ! D1    D(6,1,2,3)              0.0323         calculate D2E/DX2 analytically  !
 ! D2    D(6,1,2,8)            179.9532         calculate D2E/DX2 analytically  !
 ! D3    D(7,1,2,3)           -179.9729         calculate D2E/DX2 analytically  !
 ! D4    D(7,1,2,8)             -0.052          calculate D2E/DX2 analytically  !
 ! D5    D(2,1,6,5)              0.0149         calculate D2E/DX2 analytically  !
 ! D6    D(2,1,6,11)           179.9892         calculate D2E/DX2 analytically  !
 ! D7    D(7,1,6,5)           -179.9798         calculate D2E/DX2 analytically  !
 ! D8    D(7,1,6,11)            -0.0056         calculate D2E/DX2 analytically  !
 ! D9    D(1,2,3,4)             -0.0568         calculate D2E/DX2 analytically  !
 ! D10   D(1,2,3,12)           179.9619         calculate D2E/DX2 analytically  !
 ! D11   D(8,2,3,4)           -179.9777         calculate D2E/DX2 analytically  !
 ! D12   D(8,2,3,12)             0.041          calculate D2E/DX2 analytically  !
 ! D13   D(2,3,4,5)              0.0341         calculate D2E/DX2 analytically  !
 ! D14   D(2,3,4,9)           -179.9964         calculate D2E/DX2 analytically  !
 ! D15   D(12,3,4,5)          -179.9846         calculate D2E/DX2 analytically  !
 ! D16   D(12,3,4,9)            -0.0151         calculate D2E/DX2 analytically  !
 ! D17   D(2,3,12,13)           94.9813         calculate D2E/DX2 analytically  !
 ! D18   D(4,3,12,13)          -85.0            calculate D2E/DX2 analytically  !
 ! D19   D(3,4,5,6)              0.0131         calculate D2E/DX2 analytically  !
 ! D20   D(3,4,5,10)          -179.9995         calculate D2E/DX2 analytically  !
 ! D21   D(9,4,5,6)           -179.9563         calculate D2E/DX2 analytically  !
 ! D22   D(9,4,5,10)             0.031          calculate D2E/DX2 analytically  !
 ! D23   D(4,5,6,1)             -0.0376         calculate D2E/DX2 analytically  !
 ! D24   D(4,5,6,11)           179.9881         calculate D2E/DX2 analytically  !
 ! D25   D(10,5,6,1)           179.975          calculate D2E/DX2 analytically  !
 ! D26   D(10,5,6,11)            0.0007         calculate D2E/DX2 analytically  !
 ! D27   D(3,12,13,14)           0.0            calculate D2E/DX2 analytically  !
 ! D28   D(12,13,14,15)          0.0            calculate D2E/DX2 analytically  !
 ! D29   D(13,14,15,16)        -91.8862         calculate D2E/DX2 analytically  !
 --------------------------------------------------------------------------------
 Trust Radius=3.00D-02 FncErr=1.00D-07 GrdErr=1.00D-06
 Number of steps in this run=  77 maximum allowed number of steps= 100.
 Search for a saddle point of order  1.
 GradGradGradGradGradGradGradGradGradGradGradGradGradGradGradGradGradGrad

                          Input orientation:                          
 ---------------------------------------------------------------------
 Center     Atomic      Atomic             Coordinates (Angstroms)
 Number     Number       Type             X           Y           Z
 ---------------------------------------------------------------------
      1          6           0        0.721310   -2.764996   -0.281695
      2          6           0        0.720611   -1.797132   -1.286539
      3          6           0        1.918594   -1.421242   -1.893800
      4          6           0        3.118176   -2.012448   -1.495436
      5          6           0        3.118856   -2.979730   -0.490497
      6          6           0        1.920298   -3.356335    0.116164
      7          1           0       -0.223361   -3.061533    0.196642
      8          1           0       -0.224912   -1.331676   -1.600511
      9          1           0        4.062625   -1.715869   -1.974344
     10          1           0        4.064104   -3.445850   -0.176311
     11          1           0        1.921053   -4.119051    0.908246
     12          8           0        1.917878   -0.429808   -2.924313
     13          1           0        2.145051    0.640470   -2.509827
     14          8           0        2.413625    1.576719   -1.679342
     15          8           0        2.504144    1.012629   -0.489381
     16          1           0        1.647568    1.039031   -0.056737
 ---------------------------------------------------------------------
                    Distance matrix (angstroms):
                    1          2          3          4          5
     1  C    0.000000
     2  C    1.395160   0.000000
     3  C    2.416205   1.394712   0.000000
     4  C    2.790065   2.416260   1.395427   0.000000
     5  C    2.416183   2.789946   2.416356   1.394825   0.000000
     6  C    1.394829   2.416183   2.790080   2.416236   1.395138
     7  H    1.099610   2.165553   3.412986   3.889675   3.413102
     8  H    2.165414   1.099655   2.165330   3.413316   3.889601
     9  H    3.889745   3.413024   2.165678   1.099680   2.165606
    10  H    3.413055   3.889707   3.413506   2.165528   1.099761
    11  H    2.165365   3.413128   3.889684   3.412999   2.165471
    12  O    3.724019   2.446494   1.430000   2.446867   3.723965
    13  H    4.311474   3.076909   2.163661   3.002322   4.258150
    14  O    4.864960   3.795190   3.046115   3.662286   4.761506
    15  O    4.182354   3.422164   2.870365   3.246579   4.039407
    16  H    3.921630   3.227303   3.082402   3.680227   4.301544
                    6          7          8          9         10
     6  C    0.000000
     7  H    2.165331   0.000000
     8  H    3.412938   2.494427   0.000000
     9  H    3.413344   4.989355   4.320917   0.000000
    10  H    2.165516   4.320781   4.989362   2.495147   0.000000
    11  H    1.099604   2.494641   4.320704   4.320988   2.494420
    12  O    4.220080   4.609908   2.675326   2.675132   4.610240
    13  H    4.787567   5.161316   3.214489   3.084828   5.081936
    14  O    5.272783   5.655652   3.927703   3.694234   5.496307
    15  O    4.449204   4.950627   3.765385   3.475440   4.733870
    16  H    4.407213   4.514333   3.392591   4.135117   5.095891
                   11         12         13         14         15
    11  H    0.000000
    12  O    5.319684   0.000000
    13  H    5.863995   1.170000   0.000000
    14  O    6.275352   2.412855   1.280000   0.000000
    15  O    5.350467   2.890195   2.085583   1.320000   0.000000
    16  H    5.254693   3.233195   2.534560   1.873179   0.960000
                   16
    16  H    0.000000
 Stoichiometry    C6H7O3(2)
 Framework group  C1[X(C6H7O3)]
 Deg. of freedom    42
 Full point group                 C1      NOp   1
 Largest Abelian subgroup         C1      NOp   1
 Largest concise Abelian subgroup C1      NOp   1
                         Standard orientation:                         
 ---------------------------------------------------------------------
 Center     Atomic      Atomic             Coordinates (Angstroms)
 Number     Number       Type             X           Y           Z
 ---------------------------------------------------------------------
      1          6           0        1.885057    1.073470   -0.515037
      2          6           0        0.661073    1.294701    0.116937
      3          6           0       -0.005856    0.237323    0.735306
      4          6           0        0.550621   -1.042263    0.720850
      5          6           0        1.774086   -1.263461    0.088599
      6          6           0        2.441566   -0.205455   -0.529060
      7          1           0        2.410926    1.907347   -1.002124
      8          1           0        0.222969    2.303251    0.128482
      9          1           0        0.024560   -1.875824    1.208428
     10          1           0        2.212912   -2.271813    0.077027
     11          1           0        3.406163   -0.380033   -1.027262
     12          8           0       -1.260016    0.464143    1.383792
     13          1           0       -2.168928    0.229247    0.685507
     14          8           0       -2.827663   -0.123243   -0.353829
     15          8           0       -1.938180   -0.441952   -1.275590
     16          1           0       -1.741019    0.330361   -1.810623
 ---------------------------------------------------------------------
 Rotational constants (GHZ):      2.8450479      1.0355890      1.0137381
 Standard basis: 6-31+G(d,p) (6D, 7F)
 There are   206 symmetry adapted basis functions of A   symmetry.
 Integral buffers will be    262144 words long.
 Raffenetti 2 integral format.
 Two-electron integral symmetry is turned on.
   206 basis functions,   337 primitive gaussians,   206 cartesian basis functions
    34 alpha electrons       33 beta electrons
       nuclear repulsion energy       427.1894915776 Hartrees.
 NAtoms=   16 NActive=   16 NUniq=   16 SFac= 7.50D-01 NAtFMM=   80 NAOKFM=F Big=F
 ------------------------------------------------------------------------------
 Polarizable Continuum Model (PCM)
 =================================
 Model                : PCM.
 Atomic radii         : SMD-Coulomb.
 Polarization charges : Total charges.
 Charge compensation  : None.
 Solution method      : Matrix inversion.
 Cavity type          : VdW (van der Waals Surface) (Alpha=1.000).
 Cavity algorithm     : GePol (No added spheres)
                        Default sphere list used, NSphG=   16.
                        Lebedev-Laikov grids with approx.  5.0 points / Ang**2.
                        Smoothing algorithm: Karplus/York (Gamma=1.0000).
                        Polarization charges: spherical gaussians, with
                                              point-specific exponents (IZeta= 3).
                        Self-potential: point-specific (ISelfS= 7).
                        Self-field    : sphere-specific E.n sum rule (ISelfD= 2).
 1st derivatives      : Analytical E(r).r(x)/FMM algorithm (CHGder, D1EAlg=3).
                        Cavity 1st derivative terms included.
 2nd derivatives      : Analytical E(r).r(xy)/FMM algorithm (CHGder, D2EAlg=3).
                        Cavity 2nd derivative terms included.
 Solvent              : Water, Eps=  78.355300 Eps(inf)=   1.777849
 ------------------------------------------------------------------------------
 Spheres list:
 ISph  on   Nord    Re0     Alpha      Xe            Ye            Ze
    1   C      1    1.850   1.000      1.885057      1.073470     -0.515037
    2   C      2    1.850   1.000      0.661073      1.294701      0.116937
    3   C      3    1.850   1.000     -0.005856      0.237323      0.735306
    4   C      4    1.850   1.000      0.550621     -1.042263      0.720850
    5   C      5    1.850   1.000      1.774086     -1.263461      0.088599
    6   C      6    1.850   1.000      2.441566     -0.205455     -0.529060
    7   H      7    1.200   1.000      2.410926      1.907347     -1.002124
    8   H      8    1.200   1.000      0.222969      2.303251      0.128482
    9   H      9    1.200   1.000      0.024560     -1.875824      1.208428
   10   H     10    1.200   1.000      2.212912     -2.271813      0.077027
   11   H     11    1.200   1.000      3.406163     -0.380033     -1.027262
   12   O     12    1.520   1.000     -1.260016      0.464143      1.383792
   13   H     13    1.200   1.000     -2.168928      0.229247      0.685507
   14   O     14    1.520   1.000     -2.827663     -0.123243     -0.353829
   15   O     15    1.520   1.000     -1.938180     -0.441952     -1.275590
   16   H     16    1.200   1.000     -1.741019      0.330361     -1.810623
 ------------------------------------------------------------------------------
 ------------------------------------------------------------------------------
 Atomic radii for non-electrostatic terms: SMD-CDS.
 ------------------------------------------------------------------------------
 Nuclear repulsion after PCM non-electrostatic terms =      427.1944079375 Hartrees.
 One-electron integrals computed using PRISM.
 NBasis=   206 RedAO= T  NBF=   206
 NBsUse=   206 1.00D-06 NBFU=   206
 Harris functional with IExCor= 1009 diagonalized for initial guess.
 ExpMin= 4.38D-02 ExpMax= 5.48D+03 ExpMxC= 8.25D+02 IAcc=2 IRadAn=         0 AccDes= 0.00D+00
 HarFok:  IExCor= 1009 AccDes= 0.00D+00 IRadAn=         0 IDoV= 1
 ScaDFX=  1.000000  1.000000  1.000000  1.000000
 FoFCou: FMM=F IPFlag=           0 FMFlag=      100000 FMFlg1=           0
         NFxFlg=           0 DoJE=T BraDBF=F KetDBF=T FulRan=T
         Omega=  0.000000  0.000000  1.000000  0.000000  0.000000 ICntrl=     500 IOpCl=  0
         NMat0=    1 NMatS0=    1 NMatT0=    0 NMatD0=    1 NMtDS0=    0 NMtDT0=    0
         I1Cent=           4 NGrid=           0.
 Petite list used in FoFCou.
 Initial guess orbital symmetries:
 Alpha Orbitals:
       Occupied  (A) (A) (A) (A) (A) (A) (A) (A) (A) (A) (A) (A)
                 (A) (A) (A) (A) (A) (A) (A) (A) (A) (A) (A) (A)
                 (A) (A) (A) (A) (A) (A) (A) (A) (A) (A)
       Virtual   (A) (A) (A) (A) (A) (A) (A) (A) (A) (A) (A) (A)
                 (A) (A) (A) (A) (A) (A) (A) (A) (A) (A) (A) (A)
                 (A) (A) (A) (A) (A) (A) (A) (A) (A) (A) (A) (A)
                 (A) (A) (A) (A) (A) (A) (A) (A) (A) (A) (A) (A)
                 (A) (A) (A) (A) (A) (A) (A) (A) (A) (A) (A) (A)
                 (A) (A) (A) (A) (A) (A) (A) (A) (A) (A) (A) (A)
                 (A) (A) (A) (A) (A) (A) (A) (A) (A) (A) (A) (A)
                 (A) (A) (A) (A) (A) (A) (A) (A) (A) (A) (A) (A)
                 (A) (A) (A) (A) (A) (A) (A) (A) (A) (A) (A) (A)
                 (A) (A) (A) (A) (A) (A) (A) (A) (A) (A) (A) (A)
                 (A) (A) (A) (A) (A) (A) (A) (A) (A) (A) (A) (A)
                 (A) (A) (A) (A) (A) (A) (A) (A) (A) (A) (A) (A)
                 (A) (A) (A) (A) (A) (A) (A) (A) (A) (A) (A) (A)
                 (A) (A) (A) (A) (A) (A) (A) (A) (A) (A) (A) (A)
                 (A) (A) (A) (A)
 Beta  Orbitals:
       Occupied  (A) (A) (A) (A) (A) (A) (A) (A) (A) (A) (A) (A)
                 (A) (A) (A) (A) (A) (A) (A) (A) (A) (A) (A) (A)
                 (A) (A) (A) (A) (A) (A) (A) (A) (A)
       Virtual   (A) (A) (A) (A) (A) (A) (A) (A) (A) (A) (A) (A)
                 (A) (A) (A) (A) (A) (A) (A) (A) (A) (A) (A) (A)
                 (A) (A) (A) (A) (A) (A) (A) (A) (A) (A) (A) (A)
                 (A) (A) (A) (A) (A) (A) (A) (A) (A) (A) (A) (A)
                 (A) (A) (A) (A) (A) (A) (A) (A) (A) (A) (A) (A)
                 (A) (A) (A) (A) (A) (A) (A) (A) (A) (A) (A) (A)
                 (A) (A) (A) (A) (A) (A) (A) (A) (A) (A) (A) (A)
                 (A) (A) (A) (A) (A) (A) (A) (A) (A) (A) (A) (A)
                 (A) (A) (A) (A) (A) (A) (A) (A) (A) (A) (A) (A)
                 (A) (A) (A) (A) (A) (A) (A) (A) (A) (A) (A) (A)
                 (A) (A) (A) (A) (A) (A) (A) (A) (A) (A) (A) (A)
                 (A) (A) (A) (A) (A) (A) (A) (A) (A) (A) (A) (A)
                 (A) (A) (A) (A) (A) (A) (A) (A) (A) (A) (A) (A)
                 (A) (A) (A) (A) (A) (A) (A) (A) (A) (A) (A) (A)
                 (A) (A) (A) (A) (A)
 The electronic state of the initial guess is 2-A.
 Initial guess <Sx>= 0.0000 <Sy>= 0.0000 <Sz>= 0.5000 <S**2>= 0.7500 S= 0.5000
 Requested convergence on RMS density matrix=1.00D-08 within 128 cycles.
 Requested convergence on MAX density matrix=1.00D-06.
 Requested convergence on             energy=1.00D-06.
 No special actions if energy rises.
 Restarting incremental Fock formation.
 Error on total polarization charges =  0.05056
 SCF Done:  E(UM062X) =  -458.192958428     A.U. after   21 cycles
             Convg  =    0.7149D-08             -V/T =  2.0091
 <Sx>= 0.0000 <Sy>= 0.0000 <Sz>= 0.5000 <S**2>= 0.7610 S= 0.5055
 <L.S>= 0.000000000000E+00
 SMD-CDS (non-electrostatic) energy             (kcal/mol) =       3.09
 (included in total energy above)
 Annihilation of the first spin contaminant:
 S**2 before annihilation     0.7610,   after     0.7501
 Range of M.O.s used for correlation:     1   206
 NBasis=   206 NAE=    34 NBE=    33 NFC=     0 NFV=     0
 NROrb=    206 NOA=    34 NOB=    33 NVA=   172 NVB=   173

 **** Warning!!: The largest alpha MO coefficient is  0.88684835D+02


 **** Warning!!: The largest beta MO coefficient is  0.88792672D+02

 Symmetrizing basis deriv contribution to polar:
 IMax=3 JMax=2 DiffMx= 0.00D+00
 G2DrvN: will do    17 centers at a time, making    1 passes doing MaxLOS=2.
 Calling FoFCou, ICntrl=  3107 FMM=F I1Cent=   0 AccDes= 0.00D+00.
 FoFDir/FoFCou used for L=0 through L=2.
 G2PCM: DoFxE=T DoFxN=T DoGrad=T DoPD/DQ/DG=FFF NFrqRd=   0 IEInf=0 DoCFld=F IF1Alg=4.
 End of G2Drv Frequency-dependent properties file   721 does not exist.
 End of G2Drv Frequency-dependent properties file   722 does not exist.
          IDoAtm=1111111111111111
 NEqPCM:  Using equilibrium solvation (IEInf=0, Eps=  78.3553, EpsInf=   1.7778)
          Differentiating once with respect to nuclear coordinates.
          There are    51 degrees of freedom in the 1st order CPHF.  IDoFFX=5.
     45 vectors produced by pass  0 Test12= 2.27D-10 1.96D-07 XBig12= 3.47D-01 1.98D-01.
 AX will form    45 AO Fock derivatives at one time.
     45 vectors produced by pass  1 Test12= 2.27D-10 1.96D-07 XBig12= 3.64D-02 4.39D-02.
     45 vectors produced by pass  2 Test12= 2.27D-10 1.96D-07 XBig12= 1.50D-03 9.18D-03.
     45 vectors produced by pass  3 Test12= 2.27D-10 1.96D-07 XBig12= 2.69D-05 1.73D-03.
     45 vectors produced by pass  4 Test12= 2.27D-10 1.96D-07 XBig12= 3.17D-07 9.78D-05.
     31 vectors produced by pass  5 Test12= 2.27D-10 1.96D-07 XBig12= 2.88D-09 8.14D-06.
      4 vectors produced by pass  6 Test12= 2.27D-10 1.96D-07 XBig12= 2.73D-11 5.40D-07.
      1 vectors produced by pass  7 Test12= 2.27D-10 1.96D-07 XBig12= 2.08D-12 2.57D-07.
 Inverted reduced A of dimension   261 with in-core refinement.
 End of Minotr Frequency-dependent properties file   721 does not exist.
 End of Minotr Frequency-dependent properties file   722 does not exist.

 **********************************************************************

            Population analysis using the SCF density.

 **********************************************************************

 Orbital symmetries:
 Alpha Orbitals:
       Occupied  (A) (A) (A) (A) (A) (A) (A) (A) (A) (A) (A) (A)
                 (A) (A) (A) (A) (A) (A) (A) (A) (A) (A) (A) (A)
                 (A) (A) (A) (A) (A) (A) (A) (A) (A) (A)
       Virtual   (A) (A) (A) (A) (A) (A) (A) (A) (A) (A) (A) (A)
                 (A) (A) (A) (A) (A) (A) (A) (A) (A) (A) (A) (A)
                 (A) (A) (A) (A) (A) (A) (A) (A) (A) (A) (A) (A)
                 (A) (A) (A) (A) (A) (A) (A) (A) (A) (A) (A) (A)
                 (A) (A) (A) (A) (A) (A) (A) (A) (A) (A) (A) (A)
                 (A) (A) (A) (A) (A) (A) (A) (A) (A) (A) (A) (A)
                 (A) (A) (A) (A) (A) (A) (A) (A) (A) (A) (A) (A)
                 (A) (A) (A) (A) (A) (A) (A) (A) (A) (A) (A) (A)
                 (A) (A) (A) (A) (A) (A) (A) (A) (A) (A) (A) (A)
                 (A) (A) (A) (A) (A) (A) (A) (A) (A) (A) (A) (A)
                 (A) (A) (A) (A) (A) (A) (A) (A) (A) (A) (A) (A)
                 (A) (A) (A) (A) (A) (A) (A) (A) (A) (A) (A) (A)
                 (A) (A) (A) (A) (A) (A) (A) (A) (A) (A) (A) (A)
                 (A) (A) (A) (A) (A) (A) (A) (A) (A) (A) (A) (A)
                 (A) (A) (A) (A)
 Beta  Orbitals:
       Occupied  (A) (A) (A) (A) (A) (A) (A) (A) (A) (A) (A) (A)
                 (A) (A) (A) (A) (A) (A) (A) (A) (A) (A) (A) (A)
                 (A) (A) (A) (A) (A) (A) (A) (A) (A)
       Virtual   (A) (A) (A) (A) (A) (A) (A) (A) (A) (A) (A) (A)
                 (A) (A) (A) (A) (A) (A) (A) (A) (A) (A) (A) (A)
                 (A) (A) (A) (A) (A) (A) (A) (A) (A) (A) (A) (A)
                 (A) (A) (A) (A) (A) (A) (A) (A) (A) (A) (A) (A)
                 (A) (A) (A) (A) (A) (A) (A) (A) (A) (A) (A) (A)
                 (A) (A) (A) (A) (A) (A) (A) (A) (A) (A) (A) (A)
                 (A) (A) (A) (A) (A) (A) (A) (A) (A) (A) (A) (A)
                 (A) (A) (A) (A) (A) (A) (A) (A) (A) (A) (A) (A)
                 (A) (A) (A) (A) (A) (A) (A) (A) (A) (A) (A) (A)
                 (A) (A) (A) (A) (A) (A) (A) (A) (A) (A) (A) (A)
                 (A) (A) (A) (A) (A) (A) (A) (A) (A) (A) (A) (A)
                 (A) (A) (A) (A) (A) (A) (A) (A) (A) (A) (A) (A)
                 (A) (A) (A) (A) (A) (A) (A) (A) (A) (A) (A) (A)
                 (A) (A) (A) (A) (A) (A) (A) (A) (A) (A) (A) (A)
                 (A) (A) (A) (A) (A)
 The electronic state is 2-A.
 Alpha  occ. eigenvalues --  -19.77474 -19.74529 -19.66283 -10.62014 -10.56345
 Alpha  occ. eigenvalues --  -10.56342 -10.56261 -10.56207 -10.56155  -1.35012
 Alpha  occ. eigenvalues --   -1.12933  -1.01368  -0.96266  -0.85068  -0.83734
 Alpha  occ. eigenvalues --   -0.69654  -0.69384  -0.67063  -0.63788  -0.59340
 Alpha  occ. eigenvalues --   -0.58186  -0.54014  -0.53567  -0.50653  -0.48960
 Alpha  occ. eigenvalues --   -0.48482  -0.44411  -0.41999  -0.41834  -0.40289
 Alpha  occ. eigenvalues --   -0.39217  -0.36999  -0.31745  -0.29685
 Alpha virt. eigenvalues --    0.01162   0.01995   0.03110   0.03936   0.04364
 Alpha virt. eigenvalues --    0.05435   0.06038   0.06306   0.07567   0.08829
 Alpha virt. eigenvalues --    0.09442   0.10009   0.11473   0.12619   0.14084
 Alpha virt. eigenvalues --    0.14519   0.14731   0.14848   0.15570   0.15611
 Alpha virt. eigenvalues --    0.15971   0.17872   0.19566   0.19737   0.20405
 Alpha virt. eigenvalues --    0.21634   0.22178   0.22571   0.23631   0.23728
 Alpha virt. eigenvalues --    0.24178   0.25005   0.25588   0.25961   0.26461
 Alpha virt. eigenvalues --    0.27597   0.28018   0.29025   0.31450   0.32310
 Alpha virt. eigenvalues --    0.33345   0.34217   0.35268   0.36159   0.36798
 Alpha virt. eigenvalues --    0.37611   0.38248   0.39094   0.42033   0.42761
 Alpha virt. eigenvalues --    0.44989   0.46562   0.61962   0.65161   0.66581
 Alpha virt. eigenvalues --    0.70809   0.74185   0.75756   0.77622   0.78731
 Alpha virt. eigenvalues --    0.78849   0.78932   0.83308   0.84840   0.85279
 Alpha virt. eigenvalues --    0.88131   0.92457   0.97594   0.98045   0.99582
 Alpha virt. eigenvalues --    1.00732   1.02336   1.05034   1.05137   1.07603
 Alpha virt. eigenvalues --    1.11775   1.13023   1.13795   1.15495   1.15806
 Alpha virt. eigenvalues --    1.18849   1.19121   1.21942   1.24657   1.26235
 Alpha virt. eigenvalues --    1.27837   1.28945   1.29417   1.31435   1.33022
 Alpha virt. eigenvalues --    1.38761   1.39916   1.42253   1.43206   1.44967
 Alpha virt. eigenvalues --    1.45973   1.46721   1.47133   1.48760   1.53769
 Alpha virt. eigenvalues --    1.56837   1.61297   1.64112   1.66578   1.70348
 Alpha virt. eigenvalues --    1.74613   1.82503   1.85103   1.85838   1.86596
 Alpha virt. eigenvalues --    1.88360   1.95741   1.98115   2.00004   2.00631
 Alpha virt. eigenvalues --    2.01995   2.02646   2.05572   2.06720   2.08841
 Alpha virt. eigenvalues --    2.11540   2.15196   2.19207   2.26508   2.29404
 Alpha virt. eigenvalues --    2.31398   2.32654   2.39757   2.40779   2.41525
 Alpha virt. eigenvalues --    2.42306   2.44808   2.48659   2.50997   2.52266
 Alpha virt. eigenvalues --    2.53303   2.55254   2.56664   2.59753   2.60791
 Alpha virt. eigenvalues --    2.61912   2.66884   2.67404   2.70138   2.72878
 Alpha virt. eigenvalues --    2.76774   2.81882   2.82441   2.94933   2.97664
 Alpha virt. eigenvalues --    3.01821   3.04289   3.07863   3.12808   3.19628
 Alpha virt. eigenvalues --    3.23798   3.24901   3.34836   3.41578   3.47657
 Alpha virt. eigenvalues --    3.50049   3.62515   3.86944   4.12929   4.30736
 Alpha virt. eigenvalues --    4.32085   4.34543   4.40141   4.50363   4.52165
 Alpha virt. eigenvalues --    4.62459   4.89621
  Beta  occ. eigenvalues --  -19.76688 -19.73491 -19.65872 -10.62031 -10.56314
  Beta  occ. eigenvalues --  -10.56303 -10.56245 -10.56216 -10.56131  -1.32326
  Beta  occ. eigenvalues --   -1.11656  -0.98006  -0.95908  -0.84990  -0.83403
  Beta  occ. eigenvalues --   -0.69562  -0.68418  -0.65890  -0.60501  -0.58160
  Beta  occ. eigenvalues --   -0.55035  -0.53423  -0.52907  -0.49580  -0.48902
  Beta  occ. eigenvalues --   -0.45877  -0.42158  -0.41760  -0.40885  -0.38701
  Beta  occ. eigenvalues --   -0.36322  -0.31482  -0.30353
  Beta virt. eigenvalues --   -0.13396   0.01462   0.02555   0.03176   0.04100
  Beta virt. eigenvalues --    0.04419   0.05569   0.06179   0.06457   0.07699
  Beta virt. eigenvalues --    0.08889   0.09575   0.10124   0.11584   0.12819
  Beta virt. eigenvalues --    0.14363   0.14582   0.14876   0.14942   0.15649
  Beta virt. eigenvalues --    0.15846   0.16088   0.18149   0.19598   0.19825
  Beta virt. eigenvalues --    0.20478   0.21840   0.22638   0.23019   0.23703
  Beta virt. eigenvalues --    0.23881   0.24588   0.25168   0.25704   0.26076
  Beta virt. eigenvalues --    0.26939   0.27699   0.28097   0.29347   0.31667
  Beta virt. eigenvalues --    0.32404   0.33544   0.34398   0.35554   0.36342
  Beta virt. eigenvalues --    0.37231   0.38233   0.38611   0.39217   0.42114
  Beta virt. eigenvalues --    0.43118   0.45318   0.46786   0.62020   0.65301
  Beta virt. eigenvalues --    0.66744   0.70947   0.74362   0.75970   0.77689
  Beta virt. eigenvalues --    0.78999   0.79032   0.79230   0.83490   0.85086
  Beta virt. eigenvalues --    0.85314   0.88334   0.92612   0.97721   0.98102
  Beta virt. eigenvalues --    0.99948   1.00822   1.02703   1.05197   1.05300
  Beta virt. eigenvalues --    1.08092   1.11906   1.13535   1.14269   1.15831
  Beta virt. eigenvalues --    1.16483   1.19037   1.19299   1.23124   1.25246
  Beta virt. eigenvalues --    1.26881   1.28211   1.29730   1.29952   1.33327
  Beta virt. eigenvalues --    1.33826   1.39246   1.40277   1.42550   1.43586
  Beta virt. eigenvalues --    1.45267   1.46088   1.46960   1.47741   1.49825
  Beta virt. eigenvalues --    1.54336   1.57621   1.62027   1.64845   1.67226
  Beta virt. eigenvalues --    1.71144   1.74940   1.82736   1.85854   1.86913
  Beta virt. eigenvalues --    1.87274   1.88705   1.95944   1.98252   2.00330
  Beta virt. eigenvalues --    2.00915   2.02269   2.02858   2.05683   2.06808
  Beta virt. eigenvalues --    2.09001   2.11710   2.15264   2.19570   2.27527
  Beta virt. eigenvalues --    2.29660   2.31744   2.32956   2.39870   2.40996
  Beta virt. eigenvalues --    2.41642   2.42414   2.45223   2.48829   2.51457
  Beta virt. eigenvalues --    2.52464   2.53678   2.55434   2.57150   2.59806
  Beta virt. eigenvalues --    2.60759   2.62092   2.67146   2.67679   2.70376
  Beta virt. eigenvalues --    2.73037   2.76890   2.82003   2.82558   2.94812
  Beta virt. eigenvalues --    2.97612   3.02189   3.04497   3.08063   3.12940
  Beta virt. eigenvalues --    3.19790   3.23908   3.25001   3.35167   3.41857
  Beta virt. eigenvalues --    3.47721   3.50209   3.62237   3.87194   4.13665
  Beta virt. eigenvalues --    4.30991   4.32262   4.34917   4.40472   4.50599
  Beta virt. eigenvalues --    4.52389   4.62597   4.89844
          Condensed to atoms (all electrons):
              1          2          3          4          5          6
     1  C    5.344196   0.017383   0.384109  -0.333507   0.149051   0.287843
     2  C    0.017383   7.081584  -1.830346   0.612075  -0.306060   0.367015
     3  C    0.384109  -1.830346   9.236493  -1.838972   0.358447  -0.730453
     4  C   -0.333507   0.612075  -1.838972   7.124435  -0.026553   0.384554
     5  C    0.149051  -0.306060   0.358447  -0.026553   5.413470   0.270539
     6  C    0.287843   0.367015  -0.730453   0.384554   0.270539   5.338037
     7  H    0.310693  -0.005606   0.014976  -0.009221   0.005672   0.012168
     8  H   -0.000545   0.343337  -0.026220   0.008820  -0.007103   0.007467
     9  H   -0.005396   0.006485  -0.025862   0.340067   0.004110   0.005439
    10  H    0.007140  -0.009978   0.015327  -0.003002   0.308879   0.010200
    11  H    0.013144  -0.001745   0.004318  -0.000987   0.012519   0.299709
    12  O    0.028688  -0.176323   0.359747  -0.178047   0.032269  -0.011855
    13  H   -0.003286   0.027952  -0.087976   0.038506  -0.009276   0.003837
    14  O   -0.012859  -0.007704   0.031614   0.027378  -0.018236   0.010578
    15  O   -0.028281   0.037881   0.031005  -0.024865   0.001805  -0.006269
    16  H   -0.006060   0.007383  -0.023974   0.020789  -0.001735   0.003784
              7          8          9         10         11         12
     1  C    0.310693  -0.000545  -0.005396   0.007140   0.013144   0.028688
     2  C   -0.005606   0.343337   0.006485  -0.009978  -0.001745  -0.176323
     3  C    0.014976  -0.026220  -0.025862   0.015327   0.004318   0.359747
     4  C   -0.009221   0.008820   0.340067  -0.003002  -0.000987  -0.178047
     5  C    0.005672  -0.007103   0.004110   0.308879   0.012519   0.032269
     6  C    0.012168   0.007467   0.005439   0.010200   0.299709  -0.011855
     7  H    0.475782  -0.003788   0.000009  -0.000113  -0.003760  -0.000526
     8  H   -0.003788   0.473785  -0.000093   0.000009  -0.000100  -0.002498
     9  H    0.000009  -0.000093   0.474412  -0.003793  -0.000100  -0.001836
    10  H   -0.000113   0.000009  -0.003793   0.475989  -0.003756  -0.000511
    11  H   -0.003760  -0.000100  -0.000100  -0.003756   0.480546   0.000034
    12  O   -0.000526  -0.002498  -0.001836  -0.000511   0.000034   8.509348
    13  H    0.000001   0.000141   0.000067   0.000001   0.000000   0.190351
    14  O   -0.000012  -0.000097  -0.000307  -0.000012   0.000003  -0.054641
    15  O   -0.000052  -0.000447   0.000142  -0.000056  -0.000004   0.025294
    16  H    0.000001   0.000036   0.000014   0.000001   0.000000  -0.002646
             13         14         15         16
     1  C   -0.003286  -0.012859  -0.028281  -0.006060
     2  C    0.027952  -0.007704   0.037881   0.007383
     3  C   -0.087976   0.031614   0.031005  -0.023974
     4  C    0.038506   0.027378  -0.024865   0.020789
     5  C   -0.009276  -0.018236   0.001805  -0.001735
     6  C    0.003837   0.010578  -0.006269   0.003784
     7  H    0.000001  -0.000012  -0.000052   0.000001
     8  H    0.000141  -0.000097  -0.000447   0.000036
     9  H    0.000067  -0.000307   0.000142   0.000014
    10  H    0.000001  -0.000012  -0.000056   0.000001
    11  H    0.000000   0.000003  -0.000004   0.000000
    12  O    0.190351  -0.054641   0.025294  -0.002646
    13  H    0.271506   0.080041  -0.019503  -0.000982
    14  O    0.080041   8.167745   0.151621  -0.029653
    15  O   -0.019503   0.151621   7.691746   0.287933
    16  H   -0.000982  -0.029653   0.287933   0.295309
 Mulliken atomic charges:
              1
     1  C   -0.152311
     2  C   -0.163333
     3  C    0.127768
     4  C   -0.141470
     5  C   -0.187797
     6  C   -0.252592
     7  H    0.203775
     8  H    0.207297
     9  H    0.206639
    10  H    0.203676
    11  H    0.200179
    12  O   -0.716846
    13  H    0.508621
    14  O   -0.345459
    15  O   -0.147949
    16  H    0.449802
 Sum of Mulliken atomic charges =   0.00000
 Mulliken charges with hydrogens summed into heavy atoms:
              1
     1  C    0.051464
     2  C    0.043964
     3  C    0.127768
     4  C    0.065170
     5  C    0.015879
     6  C   -0.052413
    12  O   -0.208226
    14  O   -0.345459
    15  O    0.301853
 Sum of Mulliken charges with hydrogens summed into heavy atoms =   0.00000
          Atomic-Atomic Spin Densities.
              1          2          3          4          5          6
     1  C   -0.093324   0.069995  -0.083344   0.047738  -0.025572   0.032320
     2  C    0.069995  -0.042462   0.218431  -0.131089   0.039931  -0.049392
     3  C   -0.083344   0.218431  -0.410933   0.267993  -0.095082   0.077768
     4  C    0.047738  -0.131089   0.267993  -0.032488   0.026213  -0.065062
     5  C   -0.025572   0.039931  -0.095082   0.026213  -0.043177   0.041034
     6  C    0.032320  -0.049392   0.077768  -0.065062   0.041034   0.061863
     7  H   -0.000021  -0.000080   0.000105   0.000024   0.000024   0.000026
     8  H   -0.000109   0.000334  -0.000048  -0.000538  -0.000182   0.000536
     9  H   -0.000079  -0.000709   0.000439  -0.001030   0.000829   0.000505
    10  H   -0.000045   0.000108  -0.000059   0.000288  -0.000296   0.000078
    11  H    0.000634  -0.000520   0.000261  -0.000342   0.000489  -0.000716
    12  O    0.001701  -0.007810  -0.024802  -0.008797   0.003144  -0.000176
    13  H    0.001626  -0.016950   0.047247  -0.020476   0.002762  -0.002043
    14  O    0.000968   0.002731   0.019986   0.004210  -0.005772  -0.000802
    15  O    0.003954  -0.009261  -0.033676  -0.011064   0.012029   0.003265
    16  H    0.000212   0.001223  -0.000229  -0.000485  -0.000123  -0.000120
              7          8          9         10         11         12
     1  C   -0.000021  -0.000109  -0.000079  -0.000045   0.000634   0.001701
     2  C   -0.000080   0.000334  -0.000709   0.000108  -0.000520  -0.007810
     3  C    0.000105  -0.000048   0.000439  -0.000059   0.000261  -0.024802
     4  C    0.000024  -0.000538  -0.001030   0.000288  -0.000342  -0.008797
     5  C    0.000024  -0.000182   0.000829  -0.000296   0.000489   0.003144
     6  C    0.000026   0.000536   0.000505   0.000078  -0.000716  -0.000176
     7  H    0.001022  -0.000002   0.000000  -0.000001   0.000000   0.000002
     8  H   -0.000002  -0.003738   0.000000   0.000000   0.000001  -0.000039
     9  H    0.000000   0.000000  -0.003806  -0.000003   0.000001  -0.000043
    10  H   -0.000001   0.000000  -0.000003   0.001094   0.000002   0.000002
    11  H    0.000000   0.000001   0.000001   0.000002  -0.004016   0.000000
    12  O    0.000002  -0.000039  -0.000043   0.000002   0.000000   0.242700
    13  H    0.000000  -0.000028  -0.000034   0.000000   0.000000  -0.009787
    14  O    0.000000   0.000029  -0.000018   0.000002   0.000000  -0.036461
    15  O    0.000002  -0.000028   0.000027  -0.000002  -0.000001   0.022327
    16  H    0.000000   0.000003   0.000001   0.000000   0.000000  -0.000062
             13         14         15         16
     1  C    0.001626   0.000968   0.003954   0.000212
     2  C   -0.016950   0.002731  -0.009261   0.001223
     3  C    0.047247   0.019986  -0.033676  -0.000229
     4  C   -0.020476   0.004210  -0.011064  -0.000485
     5  C    0.002762  -0.005772   0.012029  -0.000123
     6  C   -0.002043  -0.000802   0.003265  -0.000120
     7  H    0.000000   0.000000   0.000002   0.000000
     8  H   -0.000028   0.000029  -0.000028   0.000003
     9  H   -0.000034  -0.000018   0.000027   0.000001
    10  H    0.000000   0.000002  -0.000002   0.000000
    11  H    0.000000   0.000000  -0.000001   0.000000
    12  O   -0.009787  -0.036461   0.022327  -0.000062
    13  H   -0.062770   0.013888   0.002917   0.000144
    14  O    0.013888   0.559214  -0.104606   0.001303
    15  O    0.002917  -0.104606   0.395284  -0.001318
    16  H    0.000144   0.001303  -0.001318  -0.009428
 Mulliken atomic spin densities:
              1
     1  C   -0.043345
     2  C    0.074481
     3  C   -0.015943
     4  C    0.075095
     5  C   -0.043748
     6  C    0.099086
     7  H    0.001102
     8  H   -0.003806
     9  H   -0.003921
    10  H    0.001169
    11  H   -0.004208
    12  O    0.181899
    13  H   -0.043503
    14  O    0.454673
    15  O    0.279848
    16  H   -0.008878
 Sum of Mulliken atomic spin densities =   1.00000
 APT atomic charges:
              1
     1  C   -0.513139
     2  C   -0.424676
     3  C   -0.476317
     4  C   -0.459512
     5  C   -0.530401
     6  C   -0.589726
     7  H    0.691646
     8  H    0.524755
     9  H    0.511863
    10  H    0.678738
    11  H    0.762191
    12  O   -0.740129
    13  H    0.550623
    14  O   -0.300532
    15  O   -0.268197
    16  H    0.582814
 Sum of APT charges=   0.00000
 APT Atomic charges with hydrogens summed into heavy atoms:
              1
     1  C    0.178506
     2  C    0.100079
     3  C   -0.476317
     4  C    0.052352
     5  C    0.148336
     6  C    0.172465
     7  H    0.000000
     8  H    0.000000
     9  H    0.000000
    10  H    0.000000
    11  H    0.000000
    12  O   -0.189506
    13  H    0.000000
    14  O   -0.300532
    15  O    0.314616
    16  H    0.000000
 Sum of APT charges=   0.00000
 Electronic spatial extent (au):  <R**2>=           1252.5957
 Charge=              0.0000 electrons
 Dipole moment (field-independent basis, Debye):
    X=              2.7208    Y=              0.7071    Z=             -4.6383  Tot=              5.4237
 Quadrupole moment (field-independent basis, Debye-Ang):
   XX=            -52.5655   YY=            -47.7576   ZZ=            -54.0877
   XY=             -2.6898   XZ=              2.2550   YZ=             -6.0204
 Traceless Quadrupole moment (field-independent basis, Debye-Ang):
   XX=             -1.0952   YY=              3.7127   ZZ=             -2.6175
   XY=             -2.6898   XZ=              2.2550   YZ=             -6.0204
 Octapole moment (field-independent basis, Debye-Ang**2):
  XXX=              4.3146  YYY=             -0.5408  ZZZ=            -26.3186  XYY=              1.6562
  XXY=              2.0112  XXZ=            -18.4016  XZZ=            -12.5255  YZZ=              0.9548
  YYZ=             -2.5763  XYZ=              4.0066
 Hexadecapole moment (field-independent basis, Debye-Ang**3):
 XXXX=          -1031.0673 YYYY=           -279.3338 ZZZZ=           -257.3928 XXXY=            -19.0625
 XXXZ=            -29.2604 YYYX=             -3.3765 YYYZ=            -12.1848 ZZZX=             40.1373
 ZZZY=            -10.9555 XXYY=           -212.7515 XXZZ=           -205.6971 YYZZ=            -97.9813
 XXYZ=            -12.2187 YYXZ=             -1.4409 ZZXY=              0.0152
 N-N= 4.271944079375D+02 E-N=-2.876656199411D+03  KE= 6.794678651828D+02
  Exact polarizability:   0.000   0.000   0.000   0.000   0.000   0.000
 Approx polarizability: 162.523  -0.423 111.611  -8.498  -1.981  97.778
                          Isotropic Fermi Contact Couplings
        Atom                 a.u.       MegaHertz       Gauss      10(-4) cm-1
     1  C(13)             -0.00833      -9.36880      -3.34302      -3.12509
     2  C(13)              0.01118      12.57390       4.48668       4.19420
     3  C(13)             -0.00988     -11.10879      -3.96389      -3.70549
     4  C(13)              0.01175      13.21280       4.71466       4.40732
     5  C(13)             -0.00873      -9.81487      -3.50219      -3.27389
     6  C(13)              0.01413      15.88127       5.66683       5.29742
     7  H(1)               0.00033       1.49132       0.53214       0.49745
     8  H(1)              -0.00125      -5.58548      -1.99304      -1.86312
     9  H(1)              -0.00129      -5.77661      -2.06124      -1.92687
    10  H(1)               0.00035       1.57797       0.56306       0.52635
    11  H(1)              -0.00132      -5.90818      -2.10819      -1.97076
    12  O(17)              0.01833     -11.11455      -3.96595      -3.70742
    13  H(1)              -0.02424    -108.33575     -38.65689     -36.13692
    14  O(17)              0.07755     -47.01218     -16.77511     -15.68157
    15  O(17)              0.07318     -44.35849     -15.82821     -14.79640
    16  H(1)              -0.00588     -26.28109      -9.37774      -8.76643
 --------------------------------------------------------
       Center         ----  Spin Dipole Couplings  ----
                      3XX-RR        3YY-RR        3ZZ-RR
 --------------------------------------------------------
     1   Atom        0.005201      0.009244     -0.014444
     2   Atom       -0.011149     -0.029364      0.040513
     3   Atom        0.018349     -0.005171     -0.013177
     4   Atom       -0.009015     -0.032343      0.041358
     5   Atom        0.006231      0.009350     -0.015582
     6   Atom       -0.007751     -0.035733      0.043484
     7   Atom        0.001290      0.000169     -0.001459
     8   Atom       -0.001997      0.005725     -0.003728
     9   Atom       -0.001503      0.002839     -0.001336
    10   Atom        0.001635     -0.000548     -0.001087
    11   Atom        0.005783     -0.005702     -0.000081
    12   Atom       -0.011405     -0.322518      0.333923
    13   Atom        0.009980     -0.066706      0.056726
    14   Atom        0.733784     -0.819351      0.085568
    15   Atom        0.493889     -0.574335      0.080446
    16   Atom       -0.025177      0.019652      0.005525
 --------------------------------------------------------
                        XY            XZ            YZ
 --------------------------------------------------------
     1   Atom       -0.003243     -0.015323     -0.005419
     2   Atom        0.011909      0.040369      0.017346
     3   Atom        0.001029      0.002373     -0.000294
     4   Atom        0.006887      0.045724      0.014960
     5   Atom       -0.004167     -0.015740     -0.006426
     6   Atom        0.010348      0.045275      0.019729
     7   Atom       -0.000069     -0.000779      0.000111
     8   Atom        0.000432      0.001582     -0.000128
     9   Atom        0.000874      0.001794     -0.004408
    10   Atom       -0.000420     -0.000755     -0.000611
    11   Atom       -0.001337     -0.002997      0.001757
    12   Atom        0.161980      0.538427      0.218534
    13   Atom        0.033174      0.098020      0.046893
    14   Atom        0.512481      1.378348      0.400991
    15   Atom        0.371169      0.966235      0.265049
    16   Atom        0.025151     -0.007036     -0.048211
 --------------------------------------------------------


 ---------------------------------------------------------------------------------
              Anisotropic Spin Dipole Couplings in Principal Axis System
 ---------------------------------------------------------------------------------

       Atom             a.u.   MegaHertz   Gauss  10(-4) cm-1        Axes

              Baa    -0.0240    -3.223    -1.150    -1.075  0.4724  0.1864  0.8614
     1 C(13)  Bbb     0.0104     1.399     0.499     0.467 -0.0224  0.9796 -0.1997
              Bcc     0.0136     1.825     0.651     0.609  0.8811 -0.0750 -0.4670
 
              Baa    -0.0357    -4.787    -1.708    -1.597 -0.6456  0.7439  0.1727
     2 C(13)  Bbb    -0.0315    -4.224    -1.507    -1.409  0.5995  0.6337 -0.4889
              Bcc     0.0671     9.011     3.215     3.006  0.4731  0.2121  0.8551
 
              Baa    -0.0134    -1.794    -0.640    -0.599 -0.0760  0.0453  0.9961
     3 C(13)  Bbb    -0.0052    -0.697    -0.249    -0.233 -0.0387  0.9981 -0.0483
              Bcc     0.0186     2.492     0.889     0.831  0.9964  0.0423  0.0741
 
              Baa    -0.0372    -4.996    -1.783    -1.667  0.6515  0.5797 -0.4894
     4 C(13)  Bbb    -0.0337    -4.527    -1.616    -1.510 -0.5703  0.7997  0.1879
              Bcc     0.0710     9.524     3.398     3.177  0.5003  0.1567  0.8516
 
              Baa    -0.0255    -3.421    -1.221    -1.141  0.4566  0.2139  0.8636
     5 C(13)  Bbb     0.0109     1.461     0.521     0.487  0.0704  0.9589 -0.2747
              Bcc     0.0146     1.960     0.700     0.654  0.8869 -0.1862 -0.4228
 
              Baa    -0.0404    -5.419    -1.934    -1.808  0.0357  0.9683 -0.2471
     6 C(13)  Bbb    -0.0340    -4.562    -1.628    -1.522  0.8698 -0.1519 -0.4695
              Bcc     0.0744     9.982     3.562     3.330  0.4922  0.1981  0.8476
 
              Baa    -0.0017    -0.890    -0.318    -0.297  0.2532 -0.0488  0.9662
     7 H(1)   Bbb     0.0002     0.089     0.032     0.030  0.0810  0.9963  0.0291
              Bcc     0.0015     0.802     0.286     0.267  0.9640 -0.0709 -0.2562
 
              Baa    -0.0047    -2.495    -0.890    -0.832 -0.5120  0.0318  0.8584
     8 H(1)   Bbb    -0.0011    -0.572    -0.204    -0.191  0.8572 -0.0448  0.5130
              Bcc     0.0057     3.067     1.095     1.023  0.0548  0.9985 -0.0044
 
              Baa    -0.0052    -2.771    -0.989    -0.924 -0.4738  0.4628  0.7492
     9 H(1)   Bbb    -0.0004    -0.236    -0.084    -0.079  0.8800  0.2804  0.3833
              Bcc     0.0056     3.007     1.073     1.003 -0.0327  0.8409 -0.5401
 
              Baa    -0.0017    -0.911    -0.325    -0.304  0.2499  0.5206  0.8164
    10 H(1)   Bbb    -0.0002    -0.080    -0.029    -0.027 -0.0256  0.8464 -0.5319
              Bcc     0.0019     0.992     0.354     0.331  0.9679 -0.1120 -0.2248
 
              Baa    -0.0062    -3.322    -1.185    -1.108  0.0440  0.9660 -0.2548
    11 H(1)   Bbb    -0.0011    -0.588    -0.210    -0.196  0.4244  0.2128  0.8801
              Bcc     0.0073     3.910     1.395     1.304  0.9044 -0.1468 -0.4007
 
              Baa    -0.4044    29.265    10.442     9.762  0.8189 -0.1245 -0.5603
    12 O(17)  Bbb    -0.3886    28.118    10.033     9.379 -0.0351  0.9635 -0.2653
              Bcc     0.7930   -57.382   -20.475   -19.141  0.5729  0.2369  0.7846
 
              Baa    -0.0825   -44.018   -15.707   -14.683 -0.0065  0.9490 -0.3151
    13 H(1)   Bbb    -0.0669   -35.669   -12.728   -11.898  0.8029 -0.1829 -0.5674
              Bcc     0.1494    79.688    28.435    26.581  0.5961  0.2566  0.7608
 
              Baa    -1.0067    72.842    25.992    24.297 -0.6359  0.1023  0.7650
    14 O(17)  Bbb    -0.9704    70.215    25.054    23.421 -0.1115  0.9686 -0.2222
              Bcc     1.9770  -143.057   -51.046   -47.719  0.7637  0.2266  0.6045
 
              Baa    -0.7192    52.038    18.568    17.358  0.6166 -0.5508 -0.5625
    15 O(17)  Bbb    -0.6621    47.910    17.096    15.981  0.2085  0.8032 -0.5580
              Bcc     1.3813   -99.948   -35.664   -33.339  0.7592  0.2268  0.6101
 
              Baa    -0.0448   -23.887    -8.523    -7.968 -0.6075  0.6142  0.5037
    16 H(1)   Bbb    -0.0227   -12.087    -4.313    -4.032  0.7539  0.2460  0.6092
              Bcc     0.0674    35.974    12.836    12.000  0.2502  0.7498 -0.6125
 

 ---------------------------------------------------------------------------------

 D2PCM: PCM CHGder 2nd derivatives, FixD1E=F FixD2E=F DoIter=F DoCFld=F I1PDM=0
 Calling FoFJK, ICntrl=    100147 FMM=F ISym2X=0 I1Cent= 0 IOpClX= 1 NMat=1 NMatS=1 NMatT=0.
 ***** Axes restored to original set *****
 -------------------------------------------------------------------
 Center     Atomic                   Forces (Hartrees/Bohr)
 Number     Number              X              Y              Z
 -------------------------------------------------------------------
      1        6          -0.007448155   -0.000950084    0.000886128
      2        6          -0.016863322    0.003450012    0.000910289
      3        6           0.002274257    0.042214618   -0.032007153
      4        6           0.016300045   -0.000133578   -0.002556973
      5        6           0.007409058   -0.002224046   -0.000215861
      6        6           0.000194093   -0.007835099    0.008279612
      7        1           0.007947680    0.003111302   -0.004674234
      8        1           0.008742260   -0.002617733    0.001651571
      9        1          -0.008770438   -0.001053479    0.003297072
     10        1          -0.007931010    0.004584019   -0.003245840
     11        1          -0.000017394    0.006567146   -0.006712116
     12        8           0.004353968   -0.005524642    0.038613676
     13        1          -0.007543030   -0.045229685   -0.007799842
     14        8          -0.004467278    0.008694397    0.000507281
     15        8           0.027043606   -0.006223297    0.000012343
     16        1          -0.021224340    0.003170148    0.003054047
 -------------------------------------------------------------------
 Cartesian Forces:  Max     0.045229685 RMS     0.013784057

 GradGradGradGradGradGradGradGradGradGradGradGradGradGradGradGradGradGrad
 Berny optimization.
 Internal  Forces:  Max     0.055983367 RMS     0.009733067
 Search for a saddle point.
 Step number   1 out of a maximum of   77
 All quantities printed in internal units (Hartrees-Bohrs-Radians)
 Swaping is turned off.
 Second derivative matrix not updated -- analytic derivatives used.
     Eigenvalues ---   -0.10480  -0.00091   0.00284   0.00654   0.01696
     Eigenvalues ---    0.01764   0.01855   0.02297   0.02448   0.02580
     Eigenvalues ---    0.02601   0.02868   0.02897   0.04304   0.05972
     Eigenvalues ---    0.10485   0.10737   0.11078   0.12083   0.12198
     Eigenvalues ---    0.13387   0.16121   0.17687   0.18091   0.19077
     Eigenvalues ---    0.21253   0.21740   0.27760   0.28947   0.29846
     Eigenvalues ---    0.34059   0.34107   0.34277   0.34319   0.34451
     Eigenvalues ---    0.42727   0.43483   0.46746   0.48148   0.50122
     Eigenvalues ---    0.52676   0.556801000.000001000.000001000.00000
     Eigenvalues --- 1000.000001000.000001000.000001000.000001000.00000
     Eigenvalues --- 1000.000001000.000001000.000001000.000001000.00000
     Eigenvalues --- 1000.000001000.000001000.000001000.000001000.00000
     Eigenvalues --- 1000.000001000.000001000.000001000.000001000.00000
     Eigenvalues --- 1000.000001000.00000
 Eigenvectors required to have negative eigenvalues:
                          R14       R13       R7        R15       A21
   1                    0.72368  -0.59475   0.20884  -0.19684   0.12760
                          A20       R6        R4        A22       R1
   1                    0.09663  -0.05870  -0.05853   0.03264   0.03093
 RFO step:  Lambda0=1.935127412D-03 Lambda=-2.19325714D-02.
 Linear search not attempted -- option 19 set.
 Maximum step size (   0.030) exceeded in Quadratic search.
    -- Step size scaled by   0.074
 Iteration  1 RMS(Cart)=  0.01038479 RMS(Int)=  0.00002843
 Iteration  2 RMS(Cart)=  0.00003185 RMS(Int)=  0.00000015
 Iteration  3 RMS(Cart)=  0.00000000 RMS(Int)=  0.00000015
 Variable       Old X    -DE/DX   Delta X   Delta X   Delta X     New X
                                 (Linear)    (Quad)   (Total)
    R1        2.63647  -0.00320   0.00000  -0.00121  -0.00121   2.63526
    R2        2.63584   0.00294   0.00000   0.00078   0.00078   2.63663
    R3        2.07796  -0.00970   0.00000  -0.00198  -0.00198   2.07598
    R4        2.63562   0.00329   0.00000   0.00269   0.00269   2.63831
    R5        2.07805  -0.00910   0.00000  -0.00184  -0.00184   2.07621
    R6        2.63697   0.00297   0.00000   0.00261   0.00261   2.63958
    R7        2.70231  -0.05598   0.00000  -0.01811  -0.01811   2.68420
    R8        2.63584  -0.00311   0.00000  -0.00118  -0.00118   2.63466
    R9        2.07809  -0.00926   0.00000  -0.00189  -0.00189   2.07620
   R10        2.63643   0.00280   0.00000   0.00067   0.00067   2.63710
   R11        2.07825  -0.00968   0.00000  -0.00197  -0.00197   2.07628
   R12        2.07795  -0.00938   0.00000  -0.00193  -0.00193   2.07602
   R13        2.21098  -0.03897   0.00000  -0.00333  -0.00333   2.20765
   R14        2.41885   0.00667   0.00000  -0.00783  -0.00783   2.41102
   R15        2.49444   0.00440   0.00000   0.00510   0.00510   2.49953
   R16        1.81414   0.02041   0.00000   0.00223   0.00223   1.81636
    A1        2.09437   0.00066   0.00000   0.00014   0.00014   2.09450
    A2        2.09435  -0.00116   0.00000  -0.00005  -0.00005   2.09429
    A3        2.09447   0.00050   0.00000  -0.00008  -0.00008   2.09439
    A4        2.09455  -0.00351   0.00000  -0.00010  -0.00010   2.09445
    A5        2.09406   0.00362   0.00000   0.00175   0.00175   2.09581
    A6        2.09458  -0.00011   0.00000  -0.00166  -0.00166   2.09292
    A7        2.09429   0.00472   0.00000  -0.00062  -0.00062   2.09367
    A8        2.09462  -0.00288   0.00000   0.00041   0.00041   2.09503
    A9        2.09427  -0.00184   0.00000   0.00021   0.00021   2.09448
   A10        2.09429  -0.00328   0.00000   0.00003   0.00003   2.09432
   A11        2.09407  -0.00015   0.00000  -0.00168  -0.00168   2.09238
   A12        2.09483   0.00344   0.00000   0.00166   0.00166   2.09649
   A13        2.09448   0.00050   0.00000   0.00004   0.00004   2.09452
   A14        2.09459  -0.00103   0.00000  -0.00003  -0.00003   2.09456
   A15        2.09411   0.00052   0.00000  -0.00001  -0.00001   2.09410
   A16        2.09440   0.00091   0.00000   0.00051   0.00051   2.09491
   A17        2.09453  -0.00051   0.00000  -0.00027  -0.00027   2.09426
   A18        2.09426  -0.00040   0.00000  -0.00024  -0.00024   2.09402
   A19        1.95932  -0.02097   0.00000  -0.00506  -0.00506   1.95427
   A20        2.79253   0.00186   0.00000   0.00266   0.00266   2.79519
   A21        1.86159  -0.00092   0.00000  -0.00494  -0.00494   1.85665
   A22        1.91063  -0.01328   0.00000  -0.00462  -0.00462   1.90601
    D1        0.00056   0.00033   0.00000   0.00058   0.00058   0.00115
    D2        3.14078   0.00002   0.00000  -0.00013  -0.00013   3.14064
    D3       -3.14112   0.00018   0.00000   0.00054   0.00054  -3.14058
    D4       -0.00091  -0.00012   0.00000  -0.00018  -0.00018  -0.00109
    D5        0.00026  -0.00011   0.00000   0.00004   0.00004   0.00030
    D6        3.14140  -0.00017   0.00000  -0.00003  -0.00003   3.14138
    D7       -3.14124   0.00004   0.00000   0.00008   0.00008  -3.14116
    D8       -0.00010  -0.00002   0.00000   0.00002   0.00002  -0.00008
    D9       -0.00099  -0.00045   0.00000  -0.00105  -0.00105  -0.00204
   D10        3.14093  -0.00080   0.00000  -0.00103  -0.00103   3.13990
   D11       -3.14120  -0.00015   0.00000  -0.00034  -0.00034  -3.14154
   D12        0.00072  -0.00050   0.00000  -0.00032  -0.00032   0.00040
   D13        0.00060   0.00034   0.00000   0.00090   0.00090   0.00149
   D14       -3.14153   0.00025   0.00000   0.00075   0.00075  -3.14078
   D15       -3.14132   0.00070   0.00000   0.00088   0.00088  -3.14045
   D16       -0.00026   0.00061   0.00000   0.00073   0.00073   0.00047
   D17        1.65774   0.00007   0.00000  -0.00578  -0.00578   1.65196
   D18       -1.48353  -0.00029   0.00000  -0.00575  -0.00575  -1.48928
   D19        0.00023  -0.00012   0.00000  -0.00028  -0.00028  -0.00005
   D20       -3.14158  -0.00001   0.00000  -0.00010  -0.00010   3.14150
   D21       -3.14083  -0.00003   0.00000  -0.00013  -0.00013  -3.14096
   D22        0.00054   0.00008   0.00000   0.00005   0.00005   0.00059
   D23       -0.00066   0.00000   0.00000  -0.00019  -0.00019  -0.00084
   D24        3.14138   0.00006   0.00000  -0.00012  -0.00012   3.14126
   D25        3.14116  -0.00010   0.00000  -0.00037  -0.00037   3.14079
   D26        0.00001  -0.00004   0.00000  -0.00030  -0.00030  -0.00029
   D27        0.00000   0.00070   0.00000   0.00839   0.00839   0.00839
   D28        0.00000   0.00124   0.00000  -0.00659  -0.00659  -0.00659
   D29       -1.60372   0.00148   0.00000   0.01245   0.01245  -1.59127
         Item               Value     Threshold  Converged?
 Maximum Force            0.055983     0.000450     NO 
 RMS     Force            0.009733     0.000300     NO 
 Maximum Displacement     0.052679     0.001800     NO 
 RMS     Displacement     0.010391     0.001200     NO 
 Predicted change in Energy=-1.436322D-03
 GradGradGradGradGradGradGradGradGradGradGradGradGradGradGradGradGradGrad

                          Input orientation:                          
 ---------------------------------------------------------------------
 Center     Atomic      Atomic             Coordinates (Angstroms)
 Number     Number       Type             X           Y           Z
 ---------------------------------------------------------------------
      1          6           0        0.722251   -2.756423   -0.280983
      2          6           0        0.721695   -1.790008   -1.286335
      3          6           0        1.920650   -1.416703   -1.896529
      4          6           0        3.120627   -2.010014   -1.497649
      5          6           0        3.120232   -2.975639   -0.491981
      6          6           0        1.921137   -3.349411    0.116185
      7          1           0       -0.221366   -3.050738    0.198394
      8          1           0       -0.221765   -1.322908   -1.600665
      9          1           0        4.063534   -1.714777   -1.978128
     10          1           0        4.063982   -3.442547   -0.178105
     11          1           0        1.921335   -4.110567    0.908352
     12          8           0        1.920641   -0.433912   -2.922055
     13          1           0        2.144172    0.633876   -2.504158
     14          8           0        2.410790    1.566770   -1.675645
     15          8           0        2.500051    0.995027   -0.486247
     16          1           0        1.637653    1.011154   -0.062132
 ---------------------------------------------------------------------
                    Distance matrix (angstroms):
                    1          2          3          4          5
     1  C    0.000000
     2  C    1.394522   0.000000
     3  C    2.416816   1.396133   0.000000
     4  C    2.790987   2.418250   1.396806   0.000000
     5  C    2.417206   2.791003   2.417029   1.394202   0.000000
     6  C    1.395244   2.416084   2.790408   2.416034   1.395492
     7  H    1.098561   2.164076   3.412771   3.889549   3.412995
     8  H    2.165108   1.098682   2.164781   3.413842   3.889684
     9  H    3.889666   3.413521   2.165054   1.098680   2.165231
    10  H    3.412992   3.889723   3.413341   2.164086   1.098720
    11  H    2.164723   3.411859   3.888992   3.411666   2.164798
    12  O    3.715570   2.439682   1.420416   2.439877   3.715462
    13  H    4.296335   3.062964   2.150361   2.992772   4.246192
    14  O    4.846261   3.777905   3.031524   3.650882   4.747404
    15  O    4.156451   3.399870   2.853252   3.230840   4.018811
    16  H    3.883362   3.191264   3.056075   3.658878   4.275199
                    6          7          8          9         10
     6  C    0.000000
     7  H    2.164782   0.000000
     8  H    3.412670   2.494396   0.000000
     9  H    3.412922   4.988227   4.319703   0.000000
    10  H    2.164963   4.319661   4.988404   2.495050   0.000000
    11  H    1.098584   2.493681   4.319616   4.319791   2.493507
    12  O    4.210824   4.601432   2.669512   2.669009   4.601637
    13  H    4.773104   5.145478   3.200463   3.078447   5.070841
    14  O    5.255402   5.635748   3.909758   3.686681   5.483515
    15  O    4.424049   4.923724   3.744735   3.466011   4.715177
    16  H    4.373407   4.474684   3.357435   4.121486   5.073064
                   11         12         13         14         15
    11  H    0.000000
    12  O    5.309408   0.000000
    13  H    5.848472   1.168236   0.000000
    14  O    6.256897   2.407595   1.275856   0.000000
    15  O    5.324182   2.882836   2.080636   1.322697   0.000000
    16  H    5.220569   3.216747   2.522378   1.873466   0.961179
                   16
    16  H    0.000000
 Stoichiometry    C6H7O3(2)
 Framework group  C1[X(C6H7O3)]
 Deg. of freedom    42
 Full point group                 C1      NOp   1
 Largest Abelian subgroup         C1      NOp   1
 Largest concise Abelian subgroup C1      NOp   1
                         Standard orientation:                         
 ---------------------------------------------------------------------
 Center     Atomic      Atomic             Coordinates (Angstroms)
 Number     Number       Type             X           Y           Z
 ---------------------------------------------------------------------
      1          6           0        1.875697    1.085583   -0.493509
      2          6           0        0.651465    1.292679    0.141361
      3          6           0       -0.013756    0.221866    0.741384
      4          6           0        0.546547   -1.057066    0.703164
      5          6           0        1.770228   -1.263222    0.067628
      6          6           0        2.435278   -0.191999   -0.530358
      7          1           0        2.399464    1.928446   -0.964770
      8          1           0        0.210130    2.298360    0.171886
      9          1           0        0.021642   -1.899010    1.175078
     10          1           0        2.211212   -2.269111    0.037502
     11          1           0        3.399624   -0.354923   -1.030739
     12          8           0       -1.259759    0.432388    1.390027
     13          1           0       -2.163298    0.212975    0.682743
     14          8           0       -2.816899   -0.117932   -0.361822
     15          8           0       -1.918118   -0.416525   -1.285166
     16          1           0       -1.713321    0.372768   -1.794025
 ---------------------------------------------------------------------
 Rotational constants (GHZ):      2.8460711      1.0428466      1.0217083
 Standard basis: 6-31+G(d,p) (6D, 7F)
 There are   206 symmetry adapted basis functions of A   symmetry.
 Integral buffers will be    262144 words long.
 Raffenetti 2 integral format.
 Two-electron integral symmetry is turned on.
   206 basis functions,   337 primitive gaussians,   206 cartesian basis functions
    34 alpha electrons       33 beta electrons
       nuclear repulsion energy       427.9291181502 Hartrees.
 NAtoms=   16 NActive=   16 NUniq=   16 SFac= 7.50D-01 NAtFMM=   80 NAOKFM=F Big=F
 ------------------------------------------------------------------------------
 Polarizable Continuum Model (PCM)
 =================================
 Model                : PCM.
 Atomic radii         : SMD-Coulomb.
 Polarization charges : Total charges.
 Charge compensation  : None.
 Solution method      : Matrix inversion.
 Cavity type          : VdW (van der Waals Surface) (Alpha=1.000).
 Cavity algorithm     : GePol (No added spheres)
                        Default sphere list used, NSphG=   16.
                        Lebedev-Laikov grids with approx.  5.0 points / Ang**2.
                        Smoothing algorithm: Karplus/York (Gamma=1.0000).
                        Polarization charges: spherical gaussians, with
                                              point-specific exponents (IZeta= 3).
                        Self-potential: point-specific (ISelfS= 7).
                        Self-field    : sphere-specific E.n sum rule (ISelfD= 2).
 1st derivatives      : Analytical E(r).r(x)/FMM algorithm (CHGder, D1EAlg=3).
                        Cavity 1st derivative terms included.
 Solvent              : Water, Eps=  78.355300 Eps(inf)=   1.777849
 ------------------------------------------------------------------------------
 Spheres list:
 ISph  on   Nord    Re0     Alpha      Xe            Ye            Ze
    1   C      1    1.850   1.000      1.875697      1.085583     -0.493509
    2   C      2    1.850   1.000      0.651465      1.292679      0.141361
    3   C      3    1.850   1.000     -0.013756      0.221866      0.741384
    4   C      4    1.850   1.000      0.546547     -1.057066      0.703164
    5   C      5    1.850   1.000      1.770228     -1.263222      0.067628
    6   C      6    1.850   1.000      2.435278     -0.191999     -0.530358
    7   H      7    1.200   1.000      2.399464      1.928446     -0.964770
    8   H      8    1.200   1.000      0.210130      2.298360      0.171886
    9   H      9    1.200   1.000      0.021642     -1.899010      1.175078
   10   H     10    1.200   1.000      2.211212     -2.269111      0.037502
   11   H     11    1.200   1.000      3.399624     -0.354923     -1.030739
   12   O     12    1.520   1.000     -1.259759      0.432388      1.390027
   13   H     13    1.200   1.000     -2.163298      0.212975      0.682743
   14   O     14    1.520   1.000     -2.816899     -0.117932     -0.361822
   15   O     15    1.520   1.000     -1.918118     -0.416525     -1.285166
   16   H     16    1.200   1.000     -1.713321      0.372768     -1.794025
 ------------------------------------------------------------------------------
 ------------------------------------------------------------------------------
 Atomic radii for non-electrostatic terms: SMD-CDS.
 ------------------------------------------------------------------------------
 Nuclear repulsion after PCM non-electrostatic terms =      427.9339955535 Hartrees.
 One-electron integrals computed using PRISM.
 NBasis=   206 RedAO= T  NBF=   206
 NBsUse=   206 1.00D-06 NBFU=   206
 Initial guess read from the read-write file.
 B after Tr=     0.000000    0.000000    0.000000
         Rot=    1.000000    0.000000    0.000000    0.000000 Ang=   0.00 deg.
 Initial guess orbital symmetries:
 Alpha Orbitals:
       Occupied  (A) (A) (A) (A) (A) (A) (A) (A) (A) (A) (A) (A)
                 (A) (A) (A) (A) (A) (A) (A) (A) (A) (A) (A) (A)
                 (A) (A) (A) (A) (A) (A) (A) (A) (A) (A)
       Virtual   (A) (A) (A) (A) (A) (A) (A) (A) (A) (A) (A) (A)
                 (A) (A) (A) (A) (A) (A) (A) (A) (A) (A) (A) (A)
                 (A) (A) (A) (A) (A) (A) (A) (A) (A) (A) (A) (A)
                 (A) (A) (A) (A) (A) (A) (A) (A) (A) (A) (A) (A)
                 (A) (A) (A) (A) (A) (A) (A) (A) (A) (A) (A) (A)
                 (A) (A) (A) (A) (A) (A) (A) (A) (A) (A) (A) (A)
                 (A) (A) (A) (A) (A) (A) (A) (A) (A) (A) (A) (A)
                 (A) (A) (A) (A) (A) (A) (A) (A) (A) (A) (A) (A)
                 (A) (A) (A) (A) (A) (A) (A) (A) (A) (A) (A) (A)
                 (A) (A) (A) (A) (A) (A) (A) (A) (A) (A) (A) (A)
                 (A) (A) (A) (A) (A) (A) (A) (A) (A) (A) (A) (A)
                 (A) (A) (A) (A) (A) (A) (A) (A) (A) (A) (A) (A)
                 (A) (A) (A) (A) (A) (A) (A) (A) (A) (A) (A) (A)
                 (A) (A) (A) (A) (A) (A) (A) (A) (A) (A) (A) (A)
                 (A) (A) (A) (A)
 Beta  Orbitals:
       Occupied  (A) (A) (A) (A) (A) (A) (A) (A) (A) (A) (A) (A)
                 (A) (A) (A) (A) (A) (A) (A) (A) (A) (A) (A) (A)
                 (A) (A) (A) (A) (A) (A) (A) (A) (A)
       Virtual   (A) (A) (A) (A) (A) (A) (A) (A) (A) (A) (A) (A)
                 (A) (A) (A) (A) (A) (A) (A) (A) (A) (A) (A) (A)
                 (A) (A) (A) (A) (A) (A) (A) (A) (A) (A) (A) (A)
                 (A) (A) (A) (A) (A) (A) (A) (A) (A) (A) (A) (A)
                 (A) (A) (A) (A) (A) (A) (A) (A) (A) (A) (A) (A)
                 (A) (A) (A) (A) (A) (A) (A) (A) (A) (A) (A) (A)
                 (A) (A) (A) (A) (A) (A) (A) (A) (A) (A) (A) (A)
                 (A) (A) (A) (A) (A) (A) (A) (A) (A) (A) (A) (A)
                 (A) (A) (A) (A) (A) (A) (A) (A) (A) (A) (A) (A)
                 (A) (A) (A) (A) (A) (A) (A) (A) (A) (A) (A) (A)
                 (A) (A) (A) (A) (A) (A) (A) (A) (A) (A) (A) (A)
                 (A) (A) (A) (A) (A) (A) (A) (A) (A) (A) (A) (A)
                 (A) (A) (A) (A) (A) (A) (A) (A) (A) (A) (A) (A)
                 (A) (A) (A) (A) (A) (A) (A) (A) (A) (A) (A) (A)
                 (A) (A) (A) (A) (A)
 Initial guess <Sx>= 0.0000 <Sy>= 0.0000 <Sz>= 0.5000 <S**2>= 0.7609 S= 0.5055
 Harris functional with IExCor= 1009 diagonalized for initial guess.
 ExpMin= 4.38D-02 ExpMax= 5.48D+03 ExpMxC= 8.25D+02 IAcc=2 IRadAn=         0 AccDes= 0.00D+00
 HarFok:  IExCor= 1009 AccDes= 0.00D+00 IRadAn=         0 IDoV= 1
 ScaDFX=  1.000000  1.000000  1.000000  1.000000
 FoFCou: FMM=F IPFlag=           0 FMFlag=      100000 FMFlg1=           0
         NFxFlg=           0 DoJE=T BraDBF=F KetDBF=T FulRan=T
         Omega=  0.000000  0.000000  1.000000  0.000000  0.000000 ICntrl=     500 IOpCl=  0
         NMat0=    1 NMatS0=    1 NMatT0=    0 NMatD0=    1 NMtDS0=    0 NMtDT0=    0
         I1Cent=           4 NGrid=           0.
 Petite list used in FoFCou.
 Requested convergence on RMS density matrix=1.00D-08 within 128 cycles.
 Requested convergence on MAX density matrix=1.00D-06.
 Requested convergence on             energy=1.00D-06.
 No special actions if energy rises.
 Error on total polarization charges =  0.05046
 SCF Done:  E(UM062X) =  -458.194366395     A.U. after   18 cycles
             Convg  =    0.7044D-08             -V/T =  2.0090
 <Sx>= 0.0000 <Sy>= 0.0000 <Sz>= 0.5000 <S**2>= 0.7614 S= 0.5057
 <L.S>= 0.000000000000E+00
 SMD-CDS (non-electrostatic) energy             (kcal/mol) =       3.06
 (included in total energy above)
 Annihilation of the first spin contaminant:
 S**2 before annihilation     0.7614,   after     0.7501
 D1PCM: PCM CHGder 1st derivatives, ID1Alg=3 FixD1E=F DoIter=F DoCFld=F I1PDM=0.
 Calling FoFJK, ICntrl=      2127 FMM=F ISym2X=0 I1Cent= 0 IOpClX= 1 NMat=1 NMatS=1 NMatT=0.
 ***** Axes restored to original set *****
 -------------------------------------------------------------------
 Center     Atomic                   Forces (Hartrees/Bohr)
 Number     Number              X              Y              Z
 -------------------------------------------------------------------
      1        6          -0.006929353   -0.000846764    0.000784726
      2        6          -0.015728800    0.003210530    0.000974543
      3        6           0.002006927    0.039311229   -0.029976161
      4        6           0.015211728   -0.000263707   -0.002305622
      5        6           0.006880863   -0.002074928   -0.000212545
      6        6           0.000211496   -0.007267818    0.007716430
      7        1           0.007368809    0.002873152   -0.004332612
      8        1           0.008159405   -0.002442684    0.001502896
      9        1          -0.008148516   -0.000933991    0.003051687
     10        1          -0.007390071    0.004290804   -0.002989261
     11        1          -0.000006808    0.006098365   -0.006265516
     12        8           0.004045793   -0.005190883    0.036008735
     13        1          -0.006989641   -0.042042889   -0.007199724
     14        8          -0.004289651    0.008114138    0.000165481
     15        8           0.025336721   -0.005600820    0.000443244
     16        1          -0.019738901    0.002766265    0.002633698
 -------------------------------------------------------------------
 Cartesian Forces:  Max     0.042042889 RMS     0.012843782

 GradGradGradGradGradGradGradGradGradGradGradGradGradGradGradGradGradGrad
 Berny optimization.
 Internal  Forces:  Max     0.052121299 RMS     0.009048472
 Search for a saddle point.
 Step number   2 out of a maximum of   77
 All quantities printed in internal units (Hartrees-Bohrs-Radians)
 Swaping is turned off.
 Update second derivatives using D2CorX and points    1    2
     Eigenvalues ---   -0.10638  -0.00249   0.00315   0.01015   0.01698
     Eigenvalues ---    0.01765   0.01865   0.02297   0.02452   0.02591
     Eigenvalues ---    0.02605   0.02871   0.02897   0.04476   0.05804
     Eigenvalues ---    0.10481   0.10708   0.11086   0.12082   0.12204
     Eigenvalues ---    0.13683   0.16064   0.17704   0.18047   0.19078
     Eigenvalues ---    0.21298   0.21642   0.27997   0.29079   0.30118
     Eigenvalues ---    0.34062   0.34098   0.34293   0.34317   0.34453
     Eigenvalues ---    0.42733   0.43485   0.46868   0.48155   0.50228
[...]
  Beta virt. eigenvalues --    1.44491   1.45907   1.46616   1.47377   1.51530
  Beta virt. eigenvalues --    1.55310   1.59403   1.62058   1.65191   1.67728
  Beta virt. eigenvalues --    1.71330   1.74854   1.81274   1.87151   1.88045
  Beta virt. eigenvalues --    1.91442   1.93286   1.97580   1.99618   2.00887
  Beta virt. eigenvalues --    2.02549   2.03031   2.04923   2.06405   2.08278
  Beta virt. eigenvalues --    2.09281   2.12315   2.16397   2.19689   2.23434
  Beta virt. eigenvalues --    2.30233   2.31723   2.33296   2.40888   2.42017
  Beta virt. eigenvalues --    2.42837   2.43349   2.48653   2.49069   2.49448
  Beta virt. eigenvalues --    2.52794   2.54775   2.56995   2.58322   2.61193
  Beta virt. eigenvalues --    2.63143   2.65621   2.67127   2.69473   2.73965
  Beta virt. eigenvalues --    2.77055   2.82736   2.83568   2.84927   2.91989
  Beta virt. eigenvalues --    3.02034   3.05590   3.07400   3.13874   3.18490
  Beta virt. eigenvalues --    3.20497   3.26860   3.27675   3.38371   3.42947
  Beta virt. eigenvalues --    3.47533   3.53676   3.68093   3.88915   4.18244
  Beta virt. eigenvalues --    4.29905   4.32343   4.37431   4.41205   4.50389
  Beta virt. eigenvalues --    4.55086   4.69772   4.90618
          Condensed to atoms (all electrons):
              1          2          3          4          5          6
     1  C    5.536962  -0.160495   0.521466  -0.423775   0.172020   0.210992
     2  C   -0.160495   7.445218  -2.182564   0.628390  -0.301336   0.458052
     3  C    0.521466  -2.182564   9.829358  -2.116745   0.423511  -0.893062
     4  C   -0.423775   0.628390  -2.116745   7.354322   0.004033   0.477759
     5  C    0.172020  -0.301336   0.423511   0.004033   5.273255   0.241824
     6  C    0.210992   0.458052  -0.893062   0.477759   0.241824   5.381260
     7  H    0.320194  -0.005891   0.010451  -0.010893   0.007282   0.009339
     8  H    0.009004   0.348254  -0.028011  -0.001106  -0.005286   0.004277
     9  H   -0.007480   0.016185  -0.027735   0.337654   0.002697   0.006473
    10  H    0.005407  -0.010588   0.015223  -0.005745   0.316877   0.009418
    11  H    0.012592  -0.002138   0.003927  -0.004103   0.011174   0.307757
    12  O    0.004692  -0.144873   0.342208  -0.170011   0.026351  -0.006274
    13  H    0.001638  -0.005235  -0.051844   0.033221  -0.006966   0.002494
    14  O   -0.002516   0.023217   0.042131  -0.021566  -0.017038   0.009087
    15  O   -0.083418   0.190676  -0.148859   0.052574  -0.020564   0.022226
    16  H   -0.009606   0.012460  -0.020472   0.018136  -0.001162   0.000145
              7          8          9         10         11         12
     1  C    0.320194   0.009004  -0.007480   0.005407   0.012592   0.004692
     2  C   -0.005891   0.348254   0.016185  -0.010588  -0.002138  -0.144873
     3  C    0.010451  -0.028011  -0.027735   0.015223   0.003927   0.342208
     4  C   -0.010893  -0.001106   0.337654  -0.005745  -0.004103  -0.170011
     5  C    0.007282  -0.005286   0.002697   0.316877   0.011174   0.026351
     6  C    0.009339   0.004277   0.006473   0.009418   0.307757  -0.006274
     7  H    0.469298  -0.003411   0.000009  -0.000108  -0.003819  -0.000541
     8  H   -0.003411   0.465103  -0.000081   0.000009  -0.000098  -0.001140
     9  H    0.000009  -0.000081   0.466739  -0.003497  -0.000098  -0.001867
    10  H   -0.000108   0.000009  -0.003497   0.469595  -0.003828  -0.000620
    11  H   -0.003819  -0.000098  -0.000098  -0.003828   0.471054   0.000016
    12  O   -0.000541  -0.001140  -0.001867  -0.000620   0.000016   8.505171
    13  H   -0.000001   0.000245  -0.000054   0.000001   0.000000   0.153120
    14  O   -0.000019   0.000494  -0.000135  -0.000015   0.000001  -0.067280
    15  O    0.000034  -0.002001   0.000201  -0.000052   0.000002   0.031358
    16  H   -0.000010   0.000094   0.000001   0.000000  -0.000001  -0.001561
             13         14         15         16
     1  C    0.001638  -0.002516  -0.083418  -0.009606
     2  C   -0.005235   0.023217   0.190676   0.012460
     3  C   -0.051844   0.042131  -0.148859  -0.020472
     4  C    0.033221  -0.021566   0.052574   0.018136
     5  C   -0.006966  -0.017038  -0.020564  -0.001162
     6  C    0.002494   0.009087   0.022226   0.000145
     7  H   -0.000001  -0.000019   0.000034  -0.000010
     8  H    0.000245   0.000494  -0.002001   0.000094
     9  H   -0.000054  -0.000135   0.000201   0.000001
    10  H    0.000001  -0.000015  -0.000052   0.000000
    11  H    0.000000   0.000001   0.000002  -0.000001
    12  O    0.153120  -0.067280   0.031358  -0.001561
    13  H    0.269221   0.124069  -0.033930  -0.000757
    14  O    0.124069   8.298438   0.107897  -0.035770
    15  O   -0.033930   0.107897   7.816961   0.287501
    16  H   -0.000757  -0.035770   0.287501   0.307057
 Mulliken atomic charges:
              1
     1  C   -0.107680
     2  C   -0.309332
     3  C    0.281018
     4  C   -0.152146
     5  C   -0.126672
     6  C   -0.241768
     7  H    0.208085
     8  H    0.213653
     9  H    0.210987
    10  H    0.207923
    11  H    0.207560
    12  O   -0.668749
    13  H    0.514777
    14  O   -0.460995
    15  O   -0.220607
    16  H    0.443943
 Sum of Mulliken atomic charges =   0.00000
 Mulliken charges with hydrogens summed into heavy atoms:
              1
     1  C    0.100405
     2  C   -0.095678
     3  C    0.281018
     4  C    0.058841
     5  C    0.081252
     6  C   -0.034208
    12  O   -0.153971
    14  O   -0.460995
    15  O    0.223337
 Sum of Mulliken charges with hydrogens summed into heavy atoms =   0.00000
          Atomic-Atomic Spin Densities.
              1          2          3          4          5          6
     1  C   -0.145424   0.053199  -0.027891   0.015467  -0.020497   0.019012
     2  C    0.053199   0.055533   0.154388  -0.078842   0.041313  -0.031393
     3  C   -0.027891   0.154388  -0.148854   0.130742  -0.077504   0.015747
     4  C    0.015467  -0.078842   0.130742   0.108996   0.032425  -0.035841
     5  C   -0.020497   0.041313  -0.077504   0.032425  -0.110089   0.036625
     6  C    0.019012  -0.031393   0.015747  -0.035841   0.036625   0.222388
     7  H    0.000068  -0.000517   0.000393  -0.000017   0.000115   0.000018
     8  H   -0.001891   0.000871   0.001431  -0.001035  -0.000101   0.000597
     9  H   -0.000201  -0.000928   0.000431  -0.000319   0.000330   0.000552
    10  H   -0.000002   0.000065   0.000209  -0.000360  -0.000196   0.000324
    11  H    0.001384  -0.001400   0.000850  -0.001269   0.001448  -0.001677
    12  O    0.001897  -0.005423  -0.060703  -0.006383   0.000327   0.002323
    13  H   -0.001585  -0.012539   0.036065  -0.011940   0.003304  -0.001969
    14  O   -0.001624  -0.010831   0.049299  -0.003604  -0.000782  -0.003184
    15  O    0.010033  -0.007801  -0.064596  -0.002132   0.004399   0.007912
    16  H    0.000692  -0.000379   0.002857  -0.000959  -0.000129  -0.000436
              7          8          9         10         11         12
     1  C    0.000068  -0.001891  -0.000201  -0.000002   0.001384   0.001897
     2  C   -0.000517   0.000871  -0.000928   0.000065  -0.001400  -0.005423
     3  C    0.000393   0.001431   0.000431   0.000209   0.000850  -0.060703
     4  C   -0.000017  -0.001035  -0.000319  -0.000360  -0.001269  -0.006383
     5  C    0.000115  -0.000101   0.000330  -0.000196   0.001448   0.000327
     6  C    0.000018   0.000597   0.000552   0.000324  -0.001677   0.002323
     7  H    0.002355  -0.000002   0.000000  -0.000001  -0.000011  -0.000001
     8  H   -0.000002  -0.007649   0.000001   0.000000   0.000002  -0.000122
     9  H    0.000000   0.000001  -0.006742  -0.000003   0.000002  -0.000167
    10  H   -0.000001   0.000000  -0.000003   0.002025  -0.000015   0.000001
    11  H   -0.000011   0.000002   0.000002  -0.000015  -0.009075  -0.000002
    12  O   -0.000001  -0.000122  -0.000167   0.000001  -0.000002   0.261216
    13  H    0.000000  -0.000158  -0.000015   0.000000   0.000000   0.009555
    14  O    0.000001  -0.000114  -0.000034   0.000000   0.000000  -0.031128
    15  O   -0.000001   0.000254   0.000010   0.000004  -0.000004   0.020938
    16  H    0.000000   0.000002   0.000000   0.000000   0.000000  -0.000314
             13         14         15         16
     1  C   -0.001585  -0.001624   0.010033   0.000692
     2  C   -0.012539  -0.010831  -0.007801  -0.000379
     3  C    0.036065   0.049299  -0.064596   0.002857
     4  C   -0.011940  -0.003604  -0.002132  -0.000959
     5  C    0.003304  -0.000782   0.004399  -0.000129
     6  C   -0.001969  -0.003184   0.007912  -0.000436
     7  H    0.000000   0.000001  -0.000001   0.000000
     8  H   -0.000158  -0.000114   0.000254   0.000002
     9  H   -0.000015  -0.000034   0.000010   0.000000
    10  H    0.000000   0.000000   0.000004   0.000000
    11  H    0.000000   0.000000  -0.000004   0.000000
    12  O    0.009555  -0.031128   0.020938  -0.000314
    13  H   -0.064140  -0.008305   0.010225  -0.000120
    14  O   -0.008305   0.411041  -0.067993   0.001128
    15  O    0.010225  -0.067993   0.273568  -0.000820
    16  H   -0.000120   0.001128  -0.000820  -0.007190
 Mulliken atomic spin densities:
              1
     1  C   -0.097365
     2  C    0.155313
     3  C    0.012863
     4  C    0.144929
     5  C   -0.089012
     6  C    0.230997
     7  H    0.002401
     8  H   -0.007916
     9  H   -0.007083
    10  H    0.002050
    11  H   -0.009768
    12  O    0.192014
    13  H   -0.041621
    14  O    0.333868
    15  O    0.183996
    16  H   -0.005667
 Sum of Mulliken atomic spin densities =   1.00000
 Electronic spatial extent (au):  <R**2>=           1197.0238
 Charge=              0.0000 electrons
 Dipole moment (field-independent basis, Debye):
    X=             -5.2646    Y=             -3.3915    Z=             -1.0767  Tot=              6.3543
 Quadrupole moment (field-independent basis, Debye-Ang):
   XX=            -56.1725   YY=            -43.4038   ZZ=            -57.4493
   XY=             -3.1120   XZ=              3.5829   YZ=             -3.1561
 Traceless Quadrupole moment (field-independent basis, Debye-Ang):
   XX=             -3.8306   YY=              8.9380   ZZ=             -5.1074
   XY=             -3.1120   XZ=              3.5829   YZ=             -3.1561
 Octapole moment (field-independent basis, Debye-Ang**2):
  XXX=            -28.4720  YYY=            -11.7591  ZZZ=             -5.1421  XYY=              4.5069
  XXY=             -9.8093  XXZ=             -6.9686  XZZ=              0.4001  YZZ=             -5.7011
  YYZ=             -6.9918  XYZ=              3.8158
 Hexadecapole moment (field-independent basis, Debye-Ang**3):
 XXXX=           -999.9941 YYYY=           -278.4047 ZZZZ=           -262.8998 XXXY=              9.1870
 XXXZ=             50.2917 YYYX=            -12.3752 YYYZ=             -6.0855 ZZZX=             -2.8876
 ZZZY=             -1.5347 XXYY=           -192.0765 XXZZ=           -209.6885 YYZZ=            -89.3066
 XXYZ=             -1.8332 YYXZ=             -6.6074 ZZXY=            -11.7379
 N-N= 4.335826106503D+02 E-N=-2.896216423649D+03  KE= 6.800384291276D+02
                          Isotropic Fermi Contact Couplings
        Atom                 a.u.       MegaHertz       Gauss      10(-4) cm-1
     1  C(13)             -0.01835     -20.63228      -7.36211      -6.88219
     2  C(13)              0.02413      27.12480       9.67880       9.04786
     3  C(13)             -0.01037     -11.65290      -4.15804      -3.88699
     4  C(13)              0.02134      23.98889       8.55983       8.00183
     5  C(13)             -0.01674     -18.81782      -6.71467      -6.27695
     6  C(13)              0.03407      38.30051      13.66658      12.77568
     7  H(1)               0.00072       3.23418       1.15403       1.07881
     8  H(1)              -0.00264     -11.81624      -4.21633      -3.94147
     9  H(1)              -0.00239     -10.68611      -3.81307      -3.56450
    10  H(1)               0.00062       2.75886       0.98443       0.92026
    11  H(1)              -0.00311     -13.90885      -4.96302      -4.63949
    12  O(17)              0.01260      -7.63586      -2.72467      -2.54705
    13  H(1)              -0.02272    -101.54713     -36.23454     -33.87248
    14  O(17)              0.05247     -31.80693     -11.34950     -10.60965
    15  O(17)              0.05581     -33.82878     -12.07095     -11.28407
    16  H(1)              -0.00397     -17.74134      -6.33055      -5.91787
 --------------------------------------------------------
       Center         ----  Spin Dipole Couplings  ----
                      3XX-RR        3YY-RR        3ZZ-RR
 --------------------------------------------------------
     1   Atom        0.011780      0.015643     -0.027423
     2   Atom       -0.024808     -0.052156      0.076964
     3   Atom        0.011075     -0.011532      0.000458
     4   Atom       -0.026242     -0.040037      0.066280
     5   Atom        0.008876      0.015363     -0.024239
     6   Atom       -0.025261     -0.064838      0.090099
     7   Atom        0.001757     -0.000630     -0.001127
     8   Atom       -0.003621      0.002398      0.001222
     9   Atom       -0.005716      0.010399     -0.004684
    10   Atom        0.000626      0.001729     -0.002355
    11   Atom        0.012106     -0.010558     -0.001548
    12   Atom       -0.084720     -0.254757      0.339478
    13   Atom        0.019716     -0.041161      0.021445
    14   Atom        0.415950     -0.465341      0.049391
    15   Atom        0.266650     -0.331059      0.064409
    16   Atom       -0.019935      0.041928     -0.021993
 --------------------------------------------------------
                        XY            XZ            YZ
 --------------------------------------------------------
     1   Atom        0.012119      0.031433     -0.021293
     2   Atom       -0.030065     -0.087687      0.051227
     3   Atom       -0.005554     -0.012521      0.011755
     4   Atom       -0.032138     -0.072466      0.052653
     5   Atom        0.011811      0.027206     -0.017520
     6   Atom       -0.039919     -0.102642      0.073984
     7   Atom       -0.000205      0.002025     -0.001498
     8   Atom       -0.006617      0.000635     -0.008306
     9   Atom        0.002015     -0.003413     -0.003310
    10   Atom        0.001329      0.000860     -0.000735
    11   Atom        0.005329      0.005547      0.006344
    12   Atom       -0.252090     -0.538478      0.360542
    13   Atom       -0.053108     -0.086054      0.059184
    14   Atom       -0.548030     -0.947634      0.437037
    15   Atom       -0.337647     -0.681090      0.286633
    16   Atom        0.012294     -0.009283     -0.011006
 --------------------------------------------------------


 ---------------------------------------------------------------------------------
              Anisotropic Spin Dipole Couplings in Principal Axis System
 ---------------------------------------------------------------------------------

       Atom             a.u.   MegaHertz   Gauss  10(-4) cm-1        Axes

              Baa    -0.0535    -7.185    -2.564    -2.397 -0.4583  0.3338  0.8237
     1 C(13)  Bbb     0.0243     3.262     1.164     1.088  0.1174  0.9414 -0.3162
              Bcc     0.0292     3.923     1.400     1.309  0.8810  0.0482  0.4707
 
              Baa    -0.0753   -10.111    -3.608    -3.373  0.8755  0.0841  0.4758
     2 C(13)  Bbb    -0.0700    -9.391    -3.351    -3.132  0.0673  0.9539 -0.2924
              Bcc     0.1453    19.501     6.959     6.505 -0.4784  0.2880  0.8295
 
              Baa    -0.0189    -2.533    -0.904    -0.845 -0.0781  0.8286 -0.5544
     3 C(13)  Bbb    -0.0042    -0.566    -0.202    -0.189  0.6563  0.4614  0.5970
              Bcc     0.0231     3.099     1.106     1.034  0.7505 -0.3172 -0.5798
 
              Baa    -0.0675    -9.052    -3.230    -3.019  0.8453  0.4559  0.2785
     4 C(13)  Bbb    -0.0611    -8.195    -2.924    -2.733 -0.2787  0.8211 -0.4981
              Bcc     0.1285    17.247     6.154     5.753 -0.4558  0.3434  0.8212
 
              Baa    -0.0467    -6.264    -2.235    -2.090 -0.4707  0.3216  0.8216
     5 C(13)  Bbb     0.0215     2.888     1.030     0.963 -0.3185  0.8065 -0.4982
              Bcc     0.0252     3.377     1.205     1.126  0.8228  0.4962  0.2771
 
              Baa    -0.0946   -12.693    -4.529    -4.234 -0.0884  0.9067 -0.4123
     6 C(13)  Bbb    -0.0845   -11.340    -4.046    -3.783  0.8759  0.2679  0.4014
              Bcc     0.1791    24.033     8.576     8.017 -0.4744  0.3257  0.8179
 
              Baa    -0.0029    -1.542    -0.550    -0.514 -0.3271  0.5010  0.8012
     7 H(1)   Bbb    -0.0001    -0.072    -0.026    -0.024  0.4485  0.8286 -0.3350
              Bcc     0.0030     1.614     0.576     0.538  0.8318 -0.2498  0.4958
 
              Baa    -0.0099    -5.271    -1.881    -1.758  0.6303  0.6385  0.4417
     8 H(1)   Bbb    -0.0021    -1.143    -0.408    -0.381  0.7001 -0.2215 -0.6788
              Bcc     0.0120     6.414     2.289     2.140 -0.3356  0.7371 -0.5866
 
              Baa    -0.0087    -4.629    -1.652    -1.544  0.7441  0.0372  0.6671
     9 H(1)   Bbb    -0.0028    -1.518    -0.542    -0.506 -0.6492  0.2759  0.7088
              Bcc     0.0115     6.147     2.193     2.050  0.1577  0.9605 -0.2294
 
              Baa    -0.0028    -1.519    -0.542    -0.507 -0.3190  0.2399  0.9169
    10 H(1)   Bbb     0.0002     0.121     0.043     0.040  0.7750 -0.4909  0.3981
              Bcc     0.0026     1.398     0.499     0.466  0.5456  0.8375 -0.0294
 
              Baa    -0.0140    -7.494    -2.674    -2.500 -0.0959  0.9041 -0.4164
    11 H(1)   Bbb    -0.0020    -1.075    -0.384    -0.359 -0.4510  0.3334  0.8279
              Bcc     0.0161     8.569     3.058     2.858  0.8873  0.2672  0.3758
 
              Baa    -0.4523    32.731    11.679    10.918  0.8494  0.1754  0.4977
    12 O(17)  Bbb    -0.4248    30.735    10.967    10.252  0.0453  0.9154 -0.4000
              Bcc     0.8771   -63.466   -22.646   -21.170 -0.5258  0.3623  0.7696
 
              Baa    -0.0769   -41.014   -14.635   -13.681  0.0537  0.8756 -0.4801
    13 H(1)   Bbb    -0.0644   -34.343   -12.255   -11.456  0.7668  0.2718  0.5815
              Bcc     0.1412    75.357    26.889    25.136 -0.6396  0.3994  0.6568
 
              Baa    -0.7392    53.491    19.087    17.843  0.6799  0.4905  0.5451
    14 O(17)  Bbb    -0.7146    51.706    18.450    17.247 -0.1056  0.8011 -0.5892
              Bcc     1.4538  -105.197   -37.537   -35.090  0.7257 -0.3430 -0.5964
 
              Baa    -0.5233    37.863    13.511    12.630  0.6683  0.0695  0.7406
    15 O(17)  Bbb    -0.4780    34.591    12.343    11.538  0.1906  0.9464 -0.2608
              Bcc     1.0013   -72.454   -25.853   -24.168  0.7191 -0.3154 -0.6192
 
              Baa    -0.0303   -16.169    -5.769    -5.393  0.6670  0.0000  0.7450
    16 H(1)   Bbb    -0.0163    -8.697    -3.103    -2.901  0.7168 -0.2726 -0.6418
              Bcc     0.0466    24.866     8.873     8.294  0.2031  0.9621 -0.1818
 

 ---------------------------------------------------------------------------------



 ADAM SMITH SAID, "THE REAL PRICE OF ANYTHING IS THE TOIL AND TROUBLE
 OF ACQUIRING IT."  BUT IN ALL UNDERTAKINGS WITH NATURE WE SHOULD FIRST
 READ CAREFULLY THE SMALL PRINT IN THE CONTRACT. THIS MIGHT DISCLOSE
 THAT THE REAL PRICE IS TO BE PAID BY THOSE WHO INHERIT THE DEPLETION
 AND DESPOILATION THAT FOLLOWS.
                               -- E. R. HARRISON IN "COSMOLOGY" (1980)
 Error termination request processed by link 9999.
 Error termination via Lnk1e in C:\G09W\l9999.exe at Wed Jan 20 07:15:30 2021.
 Job cpu time:  0 days  3 hours 21 minutes 31.0 seconds.
 File lengths (MBytes):  RWF=    178 Int=      0 D2E=      0 Chk=      8 Scr=      1
