 Entering Link 1 = C:\G09W\l1.exe PID=     10728.
  
 Copyright (c) 1988,1990,1992,1993,1995,1998,2003,2009, Gaussian, Inc.
                  All Rights Reserved.
  
 This is part of the Gaussian(R) 09 program.  It is based on
 the Gaussian(R) 03 system (copyright 2003, Gaussian, Inc.),
 the Gaussian(R) 98 system (copyright 1998, Gaussian, Inc.),
 the Gaussian(R) 94 system (copyright 1995, Gaussian, Inc.),
 the Gaussian 92(TM) system (copyright 1992, Gaussian, Inc.),
 the Gaussian 90(TM) system (copyright 1990, Gaussian, Inc.),
 the Gaussian 88(TM) system (copyright 1988, Gaussian, Inc.),
 the Gaussian 86(TM) system (copyright 1986, Carnegie Mellon
 University), and the Gaussian 82(TM) system (copyright 1983,
 Carnegie Mellon University). Gaussian is a federally registered
 trademark of Gaussian, Inc.
  
 This software contains proprietary and confidential information,
 including trade secrets, belonging to Gaussian, Inc.
  
 This software is provided under written license and may be
 used, copied, transmitted, or stored only in accord with that
 written license.
  
 The following legend is applicable only to US Government
 contracts under FAR:
  
                    RESTRICTED RIGHTS LEGEND
  
 Use, reproduction and disclosure by the US Government is
 subject to restrictions as set forth in subparagraphs (a)
 and (c) of the Commercial Computer Software - Restricted
 Rights clause in FAR 52.227-19.
  
 Gaussian, Inc.
 340 Quinnipiac St., Bldg. 40, Wallingford CT 06492
  
  
 ---------------------------------------------------------------
 Warning -- This program may not be used in any manner that
 competes with the business of Gaussian, Inc. or will provide
 assistance to any competitor of Gaussian, Inc.  The licensee
 of this program is prohibited from giving any competitor of
 Gaussian, Inc. access to this program.  By using this program,
 the user acknowledges that Gaussian, Inc. is engaged in the
 business of creating and licensing software in the field of
 computational chemistry and represents and warrants to the
 licensee that it is not a competitor of Gaussian, Inc. and that
 it will not use this program in any manner prohibited above.
 ---------------------------------------------------------------
  

 Cite this work as:
 Gaussian 09, Revision A.02,
 M. J. Frisch, G. W. Trucks, H. B. Schlegel, G. E. Scuseria, 
 M. A. Robb, J. R. Cheeseman, G. Scalmani, V. Barone, B. Mennucci, 
 G. A. Petersson, H. Nakatsuji, M. Caricato, X. Li, H. P. Hratchian, 
 A. F. Izmaylov, J. Bloino, G. Zheng, J. L. Sonnenberg, M. Hada, 
 M. Ehara, K. Toyota, R. Fukuda, J. Hasegawa, M. Ishida, T. Nakajima, 
 Y. Honda, O. Kitao, H. Nakai, T. Vreven, J. A. Montgomery, Jr., 
 J. E. Peralta, F. Ogliaro, M. Bearpark, J. J. Heyd, E. Brothers, 
 K. N. Kudin, V. N. Staroverov, R. Kobayashi, J. Normand, 
 K. Raghavachari, A. Rendell, J. C. Burant, S. S. Iyengar, J. Tomasi, 
 M. Cossi, N. Rega, J. M. Millam, M. Klene, J. E. Knox, J. B. Cross, 
 V. Bakken, C. Adamo, J. Jaramillo, R. Gomperts, R. E. Stratmann, 
 O. Yazyev, A. J. Austin, R. Cammi, C. Pomelli, J. W. Ochterski, 
 R. L. Martin, K. Morokuma, V. G. Zakrzewski, G. A. Voth, 
 P. Salvador, J. J. Dannenberg, S. Dapprich, A. D. Daniels, 
 O. Farkas, J. B. Foresman, J. V. Ortiz, J. Cioslowski, 
 and D. J. Fox, Gaussian, Inc., Wallingford CT, 2009.
 
 ******************************************
 Gaussian 09:  IA32W-G09RevA.02 11-Jun-2009
                20-Jan-2021 
 ******************************************
 %chk=D:\Documents\rayGit\FQ\quimicaComputacional\p5Fenol\transitionState\tsFenol
 andRadical.chk
 %mem=1500mb
 %nproc=4
 Will use up to    4 processors via shared memory.
 ----------------------------------------------------------------------
 # opt(readfc,ts,noeigen) geom=check guess=check freq=noraman scrf=smd 
 6-31+G(d,p) iop(1/8=3) m062x
 ----------------------------------------------------------------------
 1/5=1,8=3,10=3,11=1,14=-1,18=20,26=3,29=2,38=1/1,3;
 2/9=110,12=2,40=1/2;
 3/5=1,6=6,7=111,11=2,14=-4,16=1,25=1,30=1,70=32201,71=1,72=1,74=-55,116=-2/1,2,3;
 4/5=1/1;
 5/5=2,38=6/2;
 6/7=2,8=2,9=2,10=2,28=1/1;
 7//1,2,3,16;
 1/5=1,8=3,11=1,14=-1,18=20/3(2);
 2/9=110/2;
 99//99;
 2/9=110/2;
 3/5=1,6=6,7=111,11=2,14=-2,16=1,25=1,30=1,70=32205,71=1,74=-55/1,2,3;
 4/5=5,16=3/1;
 5/5=2,38=5/2;
 7//1,2,3,16;
 1/5=1,8=3,11=1,14=-1,18=20/3(-5);
 2/9=110/2;
 6/7=2,8=2,9=2,10=2,19=2,28=1/1;
 99/9=1/99;
 ---------------------------
 tsFenolandRadical m062x two
 ---------------------------
 Redundant internal coordinates taken from checkpoint file:
 D:\Documents\rayGit\FQ\quimicaComputacional\p5Fenol\transitionState\tsFenolandRadical.chk
 Charge =  0 Multiplicity = 2
 C,0,0.7683647331,-2.6215899498,-0.2506119907
 C,0,0.8011674488,-1.668480469,-1.2563060811
 C,0,2.0224921784,-1.3850454851,-1.9162931076
 C,0,3.2020081584,-2.0725813606,-1.5427192082
 C,0,3.1506358858,-3.0268392149,-0.5413354039
 C,0,1.9381596541,-3.301842752,0.1083435379
 H,0,-0.1637310965,-2.8404157394,0.2601258454
 H,0,-0.0886634923,-1.1226656098,-1.5563658225
 H,0,4.1269471133,-1.8336466411,-2.0585369295
 H,0,4.0506357152,-3.5605387772,-0.2535148716
 H,0,1.9073787229,-4.0463593582,0.8976222976
 O,0,2.0590255181,-0.4840412303,-2.8961142386
 H,0,2.1146220449,0.541257593,-2.4366586554
 O,0,2.2205669525,1.5148894271,-1.643536908
 O,0,2.2798549389,0.8912228525,-0.4331694831
 H,0,1.3561546645,0.8498561748,-0.1186102007
 Recover connectivity data from disk.

 GradGradGradGradGradGradGradGradGradGradGradGradGradGradGradGradGradGrad
 Berny optimization.
 Initialization pass.
 Force constant matrix read from checkpoint file:
 D:\Documents\rayGit\FQ\quimicaComputacional\p5Fenol\transitionState\tsFenolandRa
 dical.chk
                           ----------------------------
                           !    Initial Parameters    !
                           ! (Angstroms and Degrees)  !
 --------------------------                            --------------------------
 ! Name  Definition              Value          Derivative Info.                !
 --------------------------------------------------------------------------------
 ! R1    R(1,2)                  1.386          D2E/DX2 =    0.4075             !
 ! R2    R(1,6)                  1.4            D2E/DX2 =    0.4131             !
 ! R3    R(1,7)                  1.0851         D2E/DX2 =    0.3419             !
 ! R4    R(2,3)                  1.4169         D2E/DX2 =    0.4147             !
 ! R5    R(2,8)                  1.0862         D2E/DX2 =    0.3438             !
 ! R6    R(3,4)                  1.4155         D2E/DX2 =    0.408              !
 ! R7    R(3,12)                 1.3316         D2E/DX2 =    0.3648             !
 ! R8    R(4,5)                  1.3842         D2E/DX2 =    0.4074             !
 ! R9    R(4,9)                  1.0857         D2E/DX2 =    0.3423             !
 ! R10   R(5,6)                  1.4028         D2E/DX2 =    0.4119             !
 ! R11   R(5,10)                 1.0852         D2E/DX2 =    0.3428             !
 ! R12   R(6,11)                 1.0855         D2E/DX2 =    0.3422             !
 ! R13   R(12,13)                1.1249         D2E/DX2 =    0.1301             !
 ! R14   R(13,14)                1.2602         D2E/DX2 =    0.0644             !
 ! R15   R(14,15)                1.3629         D2E/DX2 =    0.4143             !
 ! R16   R(15,16)                0.9767         D2E/DX2 =    0.5603             !
 ! A1    A(2,1,6)              120.0273         D2E/DX2 =    0.08               !
 ! A2    A(2,1,7)              120.035          D2E/DX2 =    0.0815             !
 ! A3    A(6,1,7)              119.9376         D2E/DX2 =    0.0824             !
 ! A4    A(1,2,3)              119.7333         D2E/DX2 =    0.0833             !
 ! A5    A(1,2,8)              121.7788         D2E/DX2 =    0.0815             !
 ! A6    A(3,2,8)              118.4875         D2E/DX2 =    0.0812             !
 ! A7    A(2,3,4)              119.8806         D2E/DX2 =    0.0881             !
 ! A8    A(2,3,12)             120.1156         D2E/DX2 =    0.1472             !
 ! A9    A(4,3,12)             119.9999         D2E/DX2 =    0.1415             !
 ! A10   A(3,4,5)              119.661          D2E/DX2 =    0.0811             !
 ! A11   A(3,4,9)              118.5319         D2E/DX2 =    0.0814             !
 ! A12   A(5,4,9)              121.8069         D2E/DX2 =    0.085              !
 ! A13   A(4,5,6)              120.1507         D2E/DX2 =    0.0813             !
 ! A14   A(4,5,10)             120.0087         D2E/DX2 =    0.0819             !
 ! A15   A(6,5,10)             119.8398         D2E/DX2 =    0.0823             !
 ! A16   A(1,6,5)              120.5445         D2E/DX2 =    0.0816             !
 ! A17   A(1,6,11)             119.7368         D2E/DX2 =    0.0812             !
 ! A18   A(5,6,11)             119.7185         D2E/DX2 =    0.0821             !
 ! A19   A(3,12,13)            108.5137         D2E/DX2 =    0.2379             !
 ! A20   A(12,13,14)           164.8748         D2E/DX2 =    0.1871             !
 ! A21   A(13,14,15)           102.0656         D2E/DX2 =    0.2189             !
 ! A22   A(14,15,16)           105.3236         D2E/DX2 =    0.2359             !
 ! D1    D(6,1,2,3)             -0.1083         D2E/DX2 =    0.0116             !
 ! D2    D(6,1,2,8)           -179.8898         D2E/DX2 =    0.0103             !
 ! D3    D(7,1,2,3)            179.8174         D2E/DX2 =    0.0099             !
 ! D4    D(7,1,2,8)              0.036          D2E/DX2 =    0.0139             !
 ! D5    D(2,1,6,5)              0.073          D2E/DX2 =    0.0112             !
 ! D6    D(2,1,6,11)           179.9121         D2E/DX2 =    0.0112             !
 ! D7    D(7,1,6,5)           -179.8528         D2E/DX2 =    0.0099             !
 ! D8    D(7,1,6,11)            -0.0137         D2E/DX2 =    0.0116             !
 ! D9    D(1,2,3,4)             -0.2061         D2E/DX2 =    0.0129             !
 ! D10   D(1,2,3,12)           179.0749         D2E/DX2 =    0.0127             !
 ! D11   D(8,2,3,4)            179.5825         D2E/DX2 =    0.0087             !
 ! D12   D(8,2,3,12)            -1.1365         D2E/DX2 =    0.012              !
 ! D13   D(2,3,4,5)              0.5607         D2E/DX2 =    0.0114             !
 ! D14   D(2,3,4,9)           -179.6129         D2E/DX2 =    0.0096             !
 ! D15   D(12,3,4,5)          -178.7212         D2E/DX2 =    0.0113             !
 ! D16   D(12,3,4,9)             1.1052         D2E/DX2 =    0.0101             !
 ! D17   D(2,3,12,13)           81.2597         D2E/DX2 =    0.0144             !
 ! D18   D(4,3,12,13)          -99.4601         D2E/DX2 =    0.013              !
 ! D19   D(3,4,5,6)             -0.5981         D2E/DX2 =    0.0103             !
 ! D20   D(3,4,5,10)           179.7245         D2E/DX2 =    0.0104             !
 ! D21   D(9,4,5,6)            179.5813         D2E/DX2 =    0.0095             !
 ! D22   D(9,4,5,10)            -0.0961         D2E/DX2 =    0.0119             !
 ! D23   D(4,5,6,1)              0.2859         D2E/DX2 =    0.0113             !
 ! D24   D(4,5,6,11)          -179.5533         D2E/DX2 =    0.0114             !
 ! D25   D(10,5,6,1)           179.9638         D2E/DX2 =    0.0111             !
 ! D26   D(10,5,6,11)            0.1247         D2E/DX2 =    0.0133             !
 ! D27   D(3,12,13,14)           8.7294         D2E/DX2 =    0.0343             !
 ! D28   D(12,13,14,15)         -5.4852         D2E/DX2 =    0.0288             !
 ! D29   D(13,14,15,16)        -92.1403         D2E/DX2 =    0.0444             !
 --------------------------------------------------------------------------------
 Trust Radius=3.00D-02 FncErr=1.00D-07 GrdErr=1.00D-06
 Number of steps in this run=  77 maximum allowed number of steps= 100.
 Search for a saddle point of order  1.
 GradGradGradGradGradGradGradGradGradGradGradGradGradGradGradGradGradGrad

                          Input orientation:                          
 ---------------------------------------------------------------------
 Center     Atomic      Atomic             Coordinates (Angstroms)
 Number     Number       Type             X           Y           Z
 ---------------------------------------------------------------------
      1          6           0        0.768365   -2.621590   -0.250612
      2          6           0        0.801167   -1.668480   -1.256306
      3          6           0        2.022492   -1.385045   -1.916293
      4          6           0        3.202008   -2.072581   -1.542719
      5          6           0        3.150636   -3.026839   -0.541335
      6          6           0        1.938160   -3.301843    0.108344
      7          1           0       -0.163731   -2.840416    0.260126
      8          1           0       -0.088663   -1.122666   -1.556366
      9          1           0        4.126947   -1.833647   -2.058537
     10          1           0        4.050636   -3.560539   -0.253515
     11          1           0        1.907379   -4.046359    0.897622
     12          8           0        2.059026   -0.484041   -2.896114
     13          1           0        2.114622    0.541258   -2.436659
     14          8           0        2.220567    1.514889   -1.643537
     15          8           0        2.279855    0.891223   -0.433169
     16          1           0        1.356155    0.849856   -0.118610
 ---------------------------------------------------------------------
                    Distance matrix (angstroms):
                    1          2          3          4          5
     1  C    0.000000
     2  C    1.385971   0.000000
     3  C    2.424123   1.416881   0.000000
     4  C    2.809550   2.451401   1.415458   0.000000
     5  C    2.433919   2.806479   2.420476   1.384203   0.000000
     6  C    1.400005   2.413067   2.789333   2.415451   1.402786
     7  H    1.085145   2.145700   3.410935   3.894614   3.414985
     8  H    2.164778   1.086162   2.157630   3.425061   3.892200
     9  H    3.894807   3.425152   2.156434   1.085666   2.163052
    10  H    3.413933   3.891596   3.407487   2.143883   1.085208
    11  H    2.155403   3.393732   3.874785   3.395163   2.157709
    12  O    3.637802   2.382031   1.331613   2.379401   3.633513
    13  H    4.073673   2.828664   1.997476   2.968786   4.170958
    14  O    4.599956   3.506920   2.919461   3.720664   4.765205
    15  O    3.828549   3.068575   2.728972   3.296301   4.015118
    16  H    3.523331   2.818578   2.944564   3.738436   4.292741
                    6          7          8          9         10
     6  C    0.000000
     7  H    2.157289   0.000000
     8  H    3.409997   2.501188   0.000000
     9  H    3.412003   4.979930   4.304537   0.000000
    10  H    2.158801   4.306192   4.977393   2.499217   0.000000
    11  H    1.085455   2.479959   4.307462   4.308301   2.480865
    12  O    4.120847   4.522720   2.610620   2.607541   4.518261
    13  H    4.612764   4.888686   2.897934   3.135697   5.033786
    14  O    5.133201   5.317659   3.506685   3.875462   5.571471
    15  O    4.241673   4.514078   3.305631   3.671305   4.794384
    16  H    4.198433   4.008940   2.836456   4.317614   5.170107
                   11         12         13         14         15
    11  H    0.000000
    12  O    5.206299   0.000000
    13  H    5.675087   1.124912   0.000000
    14  O    6.122341   2.364481   1.260248   0.000000
    15  O    5.127325   2.829525   2.040526   1.362888   0.000000
    16  H    5.030855   3.160354   2.458425   1.874801   0.976668
                   16
    16  H    0.000000
 Stoichiometry    C6H7O3(2)
 Framework group  C1[X(C6H7O3)]
 Deg. of freedom    42
 Full point group                 C1      NOp   1
 Largest Abelian subgroup         C1      NOp   1
 Largest concise Abelian subgroup C1      NOp   1
                         Standard orientation:                         
 ---------------------------------------------------------------------
 Center     Atomic      Atomic             Coordinates (Angstroms)
 Number     Number       Type             X           Y           Z
 ---------------------------------------------------------------------
      1          6           0       -1.660821   -1.252894    0.339220
      2          6           0       -0.441058   -0.887896    0.886822
      3          6           0        0.070582    0.413475    0.658325
      4          6           0       -0.663465    1.331330   -0.130496
      5          6           0       -1.883531    0.953432   -0.664019
      6          6           0       -2.383684   -0.336880   -0.434343
      7          1           0       -2.055881   -2.249272    0.508630
      8          1           0        0.144165   -1.576157    1.489780
      9          1           0       -0.247939    2.320454   -0.296757
     10          1           0       -2.453127    1.654127   -1.265901
     11          1           0       -3.337800   -0.628200   -0.862138
     12          8           0        1.232906    0.778340    1.195976
     13          1           0        2.064946    0.380590    0.551823
     14          8           0        2.745364   -0.139954   -0.372456
     15          8           0        1.777382   -0.601131   -1.213758
     16          1           0        1.612284   -1.522979   -0.936592
 ---------------------------------------------------------------------
 Rotational constants (GHZ):      2.8582249      1.1153177      1.0650051
 Standard basis: 6-31+G(d,p) (6D, 7F)
 There are   206 symmetry adapted basis functions of A   symmetry.
 Integral buffers will be    262144 words long.
 Raffenetti 2 integral format.
 Two-electron integral symmetry is turned on.
   206 basis functions,   337 primitive gaussians,   206 cartesian basis functions
    34 alpha electrons       33 beta electrons
       nuclear repulsion energy       433.5773037012 Hartrees.
 NAtoms=   16 NActive=   16 NUniq=   16 SFac= 7.50D-01 NAtFMM=   80 NAOKFM=F Big=F
 ------------------------------------------------------------------------------
 Polarizable Continuum Model (PCM)
 =================================
 Model                : PCM.
 Atomic radii         : SMD-Coulomb.
 Polarization charges : Total charges.
 Charge compensation  : None.
 Solution method      : Matrix inversion.
 Cavity type          : VdW (van der Waals Surface) (Alpha=1.000).
 Cavity algorithm     : GePol (No added spheres)
                        Default sphere list used, NSphG=   16.
                        Lebedev-Laikov grids with approx.  5.0 points / Ang**2.
                        Smoothing algorithm: Karplus/York (Gamma=1.0000).
                        Polarization charges: spherical gaussians, with
                                              point-specific exponents (IZeta= 3).
                        Self-potential: point-specific (ISelfS= 7).
                        Self-field    : sphere-specific E.n sum rule (ISelfD= 2).
 1st derivatives      : Analytical E(r).r(x)/FMM algorithm (CHGder, D1EAlg=3).
                        Cavity 1st derivative terms included.
 Solvent              : Water, Eps=  78.355300 Eps(inf)=   1.777849
 ------------------------------------------------------------------------------
 Spheres list:
 ISph  on   Nord    Re0     Alpha      Xe            Ye            Ze
    1   C      1    1.850   1.000     -1.660821     -1.252894      0.339220
    2   C      2    1.850   1.000     -0.441058     -0.887896      0.886822
    3   C      3    1.850   1.000      0.070582      0.413475      0.658325
    4   C      4    1.850   1.000     -0.663465      1.331330     -0.130496
    5   C      5    1.850   1.000     -1.883531      0.953432     -0.664019
    6   C      6    1.850   1.000     -2.383684     -0.336880     -0.434343
    7   H      7    1.200   1.000     -2.055881     -2.249272      0.508630
    8   H      8    1.200   1.000      0.144165     -1.576157      1.489780
    9   H      9    1.200   1.000     -0.247939      2.320454     -0.296757
   10   H     10    1.200   1.000     -2.453127      1.654127     -1.265901
   11   H     11    1.200   1.000     -3.337800     -0.628200     -0.862138
   12   O     12    1.520   1.000      1.232906      0.778340      1.195976
   13   H     13    1.200   1.000      2.064946      0.380590      0.551823
   14   O     14    1.520   1.000      2.745364     -0.139954     -0.372456
   15   O     15    1.520   1.000      1.777382     -0.601131     -1.213758
   16   H     16    1.200   1.000      1.612284     -1.522979     -0.936592
 ------------------------------------------------------------------------------
 ------------------------------------------------------------------------------
 Atomic radii for non-electrostatic terms: SMD-CDS.
 ------------------------------------------------------------------------------
 Nuclear repulsion after PCM non-electrostatic terms =      433.5826106503 Hartrees.
 One-electron integrals computed using PRISM.
 NBasis=   206 RedAO= T  NBF=   206
 NBsUse=   206 1.00D-06 NBFU=   206
 Initial guess read from the checkpoint file:  D:\Documents\rayGit\FQ\quimicaComp
 utacional\p5Fenol\transitionState\tsFenolandRadical.chk
 B after Tr=     0.000000    0.000000    0.000000
         Rot=    1.000000    0.000000    0.000000    0.000000 Ang=   0.00 deg.
 Initial guess orbital symmetries:
 Alpha Orbitals:
       Occupied  (A) (A) (A) (A) (A) (A) (A) (A) (A) (A) (A) (A)
                 (A) (A) (A) (A) (A) (A) (A) (A) (A) (A) (A) (A)
                 (A) (A) (A) (A) (A) (A) (A) (A) (A) (A)
       Virtual   (A) (A) (A) (A) (A) (A) (A) (A) (A) (A) (A) (A)
                 (A) (A) (A) (A) (A) (A) (A) (A) (A) (A) (A) (A)
                 (A) (A) (A) (A) (A) (A) (A) (A) (A) (A) (A) (A)
                 (A) (A) (A) (A) (A) (A) (A) (A) (A) (A) (A) (A)
                 (A) (A) (A) (A) (A) (A) (A) (A) (A) (A) (A) (A)
                 (A) (A) (A) (A) (A) (A) (A) (A) (A) (A) (A) (A)
                 (A) (A) (A) (A) (A) (A) (A) (A) (A) (A) (A) (A)
                 (A) (A) (A) (A) (A) (A) (A) (A) (A) (A) (A) (A)
                 (A) (A) (A) (A) (A) (A) (A) (A) (A) (A) (A) (A)
                 (A) (A) (A) (A) (A) (A) (A) (A) (A) (A) (A) (A)
                 (A) (A) (A) (A) (A) (A) (A) (A) (A) (A) (A) (A)
                 (A) (A) (A) (A) (A) (A) (A) (A) (A) (A) (A) (A)
                 (A) (A) (A) (A) (A) (A) (A) (A) (A) (A) (A) (A)
                 (A) (A) (A) (A) (A) (A) (A) (A) (A) (A) (A) (A)
                 (A) (A) (A) (A)
 Beta  Orbitals:
       Occupied  (A) (A) (A) (A) (A) (A) (A) (A) (A) (A) (A) (A)
                 (A) (A) (A) (A) (A) (A) (A) (A) (A) (A) (A) (A)
                 (A) (A) (A) (A) (A) (A) (A) (A) (A)
       Virtual   (A) (A) (A) (A) (A) (A) (A) (A) (A) (A) (A) (A)
                 (A) (A) (A) (A) (A) (A) (A) (A) (A) (A) (A) (A)
                 (A) (A) (A) (A) (A) (A) (A) (A) (A) (A) (A) (A)
                 (A) (A) (A) (A) (A) (A) (A) (A) (A) (A) (A) (A)
                 (A) (A) (A) (A) (A) (A) (A) (A) (A) (A) (A) (A)
                 (A) (A) (A) (A) (A) (A) (A) (A) (A) (A) (A) (A)
                 (A) (A) (A) (A) (A) (A) (A) (A) (A) (A) (A) (A)
                 (A) (A) (A) (A) (A) (A) (A) (A) (A) (A) (A) (A)
                 (A) (A) (A) (A) (A) (A) (A) (A) (A) (A) (A) (A)
                 (A) (A) (A) (A) (A) (A) (A) (A) (A) (A) (A) (A)
                 (A) (A) (A) (A) (A) (A) (A) (A) (A) (A) (A) (A)
                 (A) (A) (A) (A) (A) (A) (A) (A) (A) (A) (A) (A)
                 (A) (A) (A) (A) (A) (A) (A) (A) (A) (A) (A) (A)
                 (A) (A) (A) (A) (A) (A) (A) (A) (A) (A) (A) (A)
                 (A) (A) (A) (A) (A)
 Initial guess <Sx>= 0.0000 <Sy>= 0.0000 <Sz>= 0.5000 <S**2>= 0.7671 S= 0.5085
 Requested convergence on RMS density matrix=1.00D-08 within 128 cycles.
 Requested convergence on MAX density matrix=1.00D-06.
 Requested convergence on             energy=1.00D-06.
 No special actions if energy rises.
 Error on total polarization charges =  0.04969
 SCF Done:  E(UM062X) =  -458.202567824     A.U. after    1 cycles
             Convg  =    0.5838D-09             -V/T =  2.0085
 <Sx>= 0.0000 <Sy>= 0.0000 <Sz>= 0.5000 <S**2>= 0.7671 S= 0.5085
 <L.S>= 0.000000000000E+00
 SMD-CDS (non-electrostatic) energy             (kcal/mol) =       3.33
 (included in total energy above)
 Annihilation of the first spin contaminant:
 S**2 before annihilation     0.7671,   after     0.7502

 **********************************************************************

            Population analysis using the SCF density.

 **********************************************************************

 Orbital symmetries:
 Alpha Orbitals:
       Occupied  (A) (A) (A) (A) (A) (A) (A) (A) (A) (A) (A) (A)
                 (A) (A) (A) (A) (A) (A) (A) (A) (A) (A) (A) (A)
                 (A) (A) (A) (A) (A) (A) (A) (A) (A) (A)
       Virtual   (A) (A) (A) (A) (A) (A) (A) (A) (A) (A) (A) (A)
                 (A) (A) (A) (A) (A) (A) (A) (A) (A) (A) (A) (A)
                 (A) (A) (A) (A) (A) (A) (A) (A) (A) (A) (A) (A)
                 (A) (A) (A) (A) (A) (A) (A) (A) (A) (A) (A) (A)
                 (A) (A) (A) (A) (A) (A) (A) (A) (A) (A) (A) (A)
                 (A) (A) (A) (A) (A) (A) (A) (A) (A) (A) (A) (A)
                 (A) (A) (A) (A) (A) (A) (A) (A) (A) (A) (A) (A)
                 (A) (A) (A) (A) (A) (A) (A) (A) (A) (A) (A) (A)
                 (A) (A) (A) (A) (A) (A) (A) (A) (A) (A) (A) (A)
                 (A) (A) (A) (A) (A) (A) (A) (A) (A) (A) (A) (A)
                 (A) (A) (A) (A) (A) (A) (A) (A) (A) (A) (A) (A)
                 (A) (A) (A) (A) (A) (A) (A) (A) (A) (A) (A) (A)
                 (A) (A) (A) (A) (A) (A) (A) (A) (A) (A) (A) (A)
                 (A) (A) (A) (A) (A) (A) (A) (A) (A) (A) (A) (A)
                 (A) (A) (A) (A)
 Beta  Orbitals:
       Occupied  (A) (A) (A) (A) (A) (A) (A) (A) (A) (A) (A) (A)
                 (A) (A) (A) (A) (A) (A) (A) (A) (A) (A) (A) (A)
                 (A) (A) (A) (A) (A) (A) (A) (A) (A)
       Virtual   (A) (A) (A) (A) (A) (A) (A) (A) (A) (A) (A) (A)
                 (A) (A) (A) (A) (A) (A) (A) (A) (A) (A) (A) (A)
                 (A) (A) (A) (A) (A) (A) (A) (A) (A) (A) (A) (A)
                 (A) (A) (A) (A) (A) (A) (A) (A) (A) (A) (A) (A)
                 (A) (A) (A) (A) (A) (A) (A) (A) (A) (A) (A) (A)
                 (A) (A) (A) (A) (A) (A) (A) (A) (A) (A) (A) (A)
                 (A) (A) (A) (A) (A) (A) (A) (A) (A) (A) (A) (A)
                 (A) (A) (A) (A) (A) (A) (A) (A) (A) (A) (A) (A)
                 (A) (A) (A) (A) (A) (A) (A) (A) (A) (A) (A) (A)
                 (A) (A) (A) (A) (A) (A) (A) (A) (A) (A) (A) (A)
                 (A) (A) (A) (A) (A) (A) (A) (A) (A) (A) (A) (A)
                 (A) (A) (A) (A) (A) (A) (A) (A) (A) (A) (A) (A)
                 (A) (A) (A) (A) (A) (A) (A) (A) (A) (A) (A) (A)
                 (A) (A) (A) (A) (A) (A) (A) (A) (A) (A) (A) (A)
                 (A) (A) (A) (A) (A)
 The electronic state is 2-A.
 Alpha  occ. eigenvalues --  -19.74786 -19.71358 -19.66933 -10.63043 -10.57279
 Alpha  occ. eigenvalues --  -10.57053 -10.56853 -10.56577 -10.56534  -1.30182
 Alpha  occ. eigenvalues --   -1.17775  -0.99311  -0.96642  -0.86040  -0.83982
 Alpha  occ. eigenvalues --   -0.70707  -0.69822  -0.65226  -0.62275  -0.59680
 Alpha  occ. eigenvalues --   -0.55476  -0.55018  -0.54573  -0.50960  -0.49990
 Alpha  occ. eigenvalues --   -0.49919  -0.44663  -0.43309  -0.43120  -0.38838
 Alpha  occ. eigenvalues --   -0.38210  -0.36727  -0.32616  -0.29302
 Alpha virt. eigenvalues --    0.00769   0.01374   0.03044   0.03907   0.04265
 Alpha virt. eigenvalues --    0.05463   0.06172   0.06393   0.07250   0.08864
 Alpha virt. eigenvalues --    0.09427   0.09972   0.11321   0.12715   0.13839
 Alpha virt. eigenvalues --    0.14478   0.14534   0.14977   0.15491   0.15536
 Alpha virt. eigenvalues --    0.16035   0.19037   0.19559   0.20197   0.20570
 Alpha virt. eigenvalues --    0.21601   0.21892   0.22466   0.23449   0.24119
 Alpha virt. eigenvalues --    0.24388   0.25350   0.25989   0.26396   0.27133
 Alpha virt. eigenvalues --    0.27833   0.28197   0.30126   0.31448   0.32301
 Alpha virt. eigenvalues --    0.33069   0.34230   0.35662   0.36112   0.36984
 Alpha virt. eigenvalues --    0.38807   0.39207   0.39291   0.41913   0.45172
 Alpha virt. eigenvalues --    0.46049   0.48401   0.61700   0.64541   0.65239
 Alpha virt. eigenvalues --    0.70728   0.74326   0.74747   0.77007   0.78007
 Alpha virt. eigenvalues --    0.78506   0.78682   0.83114   0.84907   0.85705
 Alpha virt. eigenvalues --    0.87211   0.91506   0.97609   0.98568   0.99491
 Alpha virt. eigenvalues --    1.00921   1.02741   1.04227   1.04933   1.08859
 Alpha virt. eigenvalues --    1.10890   1.12814   1.14347   1.15267   1.17227
 Alpha virt. eigenvalues --    1.18902   1.19904   1.23644   1.25716   1.27018
 Alpha virt. eigenvalues --    1.28327   1.29032   1.31741   1.33112   1.33579
 Alpha virt. eigenvalues --    1.38483   1.39896   1.41724   1.43356   1.43904
 Alpha virt. eigenvalues --    1.45449   1.46212   1.46716   1.50629   1.54947
 Alpha virt. eigenvalues --    1.58738   1.61418   1.64748   1.67386   1.70948
 Alpha virt. eigenvalues --    1.74271   1.80885   1.86106   1.87610   1.90573
 Alpha virt. eigenvalues --    1.92813   1.97309   1.99063   2.00458   2.02041
 Alpha virt. eigenvalues --    2.02459   2.04590   2.06159   2.07962   2.08847
 Alpha virt. eigenvalues --    2.12041   2.16241   2.19296   2.22883   2.29319
 Alpha virt. eigenvalues --    2.31243   2.32665   2.40652   2.41729   2.42518
 Alpha virt. eigenvalues --    2.42894   2.48111   2.48683   2.48947   2.52479
 Alpha virt. eigenvalues --    2.54174   2.56622   2.57687   2.60844   2.62802
 Alpha virt. eigenvalues --    2.65218   2.66598   2.69214   2.73686   2.76967
 Alpha virt. eigenvalues --    2.82656   2.83297   2.84681   2.91934   3.02129
 Alpha virt. eigenvalues --    3.04820   3.07119   3.13681   3.18256   3.20245
 Alpha virt. eigenvalues --    3.26594   3.27480   3.37538   3.42311   3.47572
 Alpha virt. eigenvalues --    3.53328   3.68462   3.88321   4.18000   4.29508
 Alpha virt. eigenvalues --    4.32002   4.36949   4.40426   4.49875   4.54707
 Alpha virt. eigenvalues --    4.69535   4.90054
  Beta  occ. eigenvalues --  -19.74201 -19.70575 -19.66491 -10.63051 -10.57159
  Beta  occ. eigenvalues --  -10.56956 -10.56772 -10.56619 -10.56586  -1.28164
  Beta  occ. eigenvalues --   -1.16484  -0.97170  -0.95763  -0.85878  -0.83326
  Beta  occ. eigenvalues --   -0.70463  -0.69174  -0.63776  -0.60917  -0.58294
  Beta  occ. eigenvalues --   -0.54696  -0.54219  -0.53147  -0.50365  -0.49872
  Beta  occ. eigenvalues --   -0.45757  -0.43111  -0.42990  -0.41669  -0.37898
  Beta  occ. eigenvalues --   -0.36070  -0.32105  -0.30251
  Beta virt. eigenvalues --   -0.14085   0.01477   0.02549   0.03083   0.04056
  Beta virt. eigenvalues --    0.04320   0.05570   0.06242   0.06536   0.07315
  Beta virt. eigenvalues --    0.08911   0.09527   0.10088   0.11405   0.12822
  Beta virt. eigenvalues --    0.14049   0.14575   0.14701   0.15052   0.15586
  Beta virt. eigenvalues --    0.15723   0.16119   0.19262   0.19594   0.20181
  Beta virt. eigenvalues --    0.20737   0.22037   0.22073   0.22995   0.23525
  Beta virt. eigenvalues --    0.24229   0.24604   0.25469   0.26013   0.26530
  Beta virt. eigenvalues --    0.27531   0.28014   0.28288   0.30379   0.31637
  Beta virt. eigenvalues --    0.32424   0.33240   0.34479   0.35923   0.36302
  Beta virt. eigenvalues --    0.37165   0.39052   0.39402   0.40081   0.42141
  Beta virt. eigenvalues --    0.45686   0.46355   0.48931   0.61872   0.64868
  Beta virt. eigenvalues --    0.65629   0.71072   0.74748   0.75329   0.77160
  Beta virt. eigenvalues --    0.78268   0.79010   0.79249   0.83552   0.85250
  Beta virt. eigenvalues --    0.85830   0.87616   0.91774   0.97856   0.98693
  Beta virt. eigenvalues --    0.99864   1.01110   1.03034   1.04410   1.05249
  Beta virt. eigenvalues --    1.09116   1.11205   1.13258   1.14699   1.15820
  Beta virt. eigenvalues --    1.17489   1.19229   1.20161   1.25100   1.26193
  Beta virt. eigenvalues --    1.27539   1.29185   1.29726   1.32554   1.34020
  Beta virt. eigenvalues --    1.34561   1.38979   1.40354   1.42039   1.43880
  Beta virt. eigenvalues --    1.44491   1.45907   1.46616   1.47377   1.51530
  Beta virt. eigenvalues --    1.55310   1.59403   1.62058   1.65191   1.67728
  Beta virt. eigenvalues --    1.71330   1.74854   1.81274   1.87151   1.88045
  Beta virt. eigenvalues --    1.91442   1.93286   1.97580   1.99618   2.00887
  Beta virt. eigenvalues --    2.02549   2.03031   2.04923   2.06405   2.08278
  Beta virt. eigenvalues --    2.09281   2.12315   2.16397   2.19689   2.23434
  Beta virt. eigenvalues --    2.30233   2.31723   2.33296   2.40888   2.42017
  Beta virt. eigenvalues --    2.42837   2.43349   2.48653   2.49069   2.49448
  Beta virt. eigenvalues --    2.52794   2.54775   2.56995   2.58322   2.61193
  Beta virt. eigenvalues --    2.63143   2.65621   2.67127   2.69473   2.73965
  Beta virt. eigenvalues --    2.77055   2.82736   2.83568   2.84927   2.91989
  Beta virt. eigenvalues --    3.02034   3.05590   3.07400   3.13874   3.18490
  Beta virt. eigenvalues --    3.20497   3.26860   3.27675   3.38371   3.42947
  Beta virt. eigenvalues --    3.47533   3.53676   3.68093   3.88915   4.18244
  Beta virt. eigenvalues --    4.29905   4.32343   4.37431   4.41205   4.50389
  Beta virt. eigenvalues --    4.55086   4.69772   4.90618
          Condensed to atoms (all electrons):
              1          2          3          4          5          6
     1  C    5.536962  -0.160495   0.521466  -0.423775   0.172020   0.210992
     2  C   -0.160495   7.445218  -2.182564   0.628390  -0.301336   0.458052
     3  C    0.521466  -2.182564   9.829358  -2.116745   0.423511  -0.893062
     4  C   -0.423775   0.628390  -2.116745   7.354322   0.004033   0.477759
     5  C    0.172020  -0.301336   0.423511   0.004033   5.273255   0.241824
     6  C    0.210992   0.458052  -0.893062   0.477759   0.241824   5.381260
     7  H    0.320194  -0.005891   0.010451  -0.010893   0.007282   0.009339
     8  H    0.009004   0.348254  -0.028011  -0.001106  -0.005286   0.004277
     9  H   -0.007480   0.016185  -0.027735   0.337654   0.002697   0.006473
    10  H    0.005407  -0.010588   0.015223  -0.005745   0.316877   0.009418
    11  H    0.012592  -0.002138   0.003927  -0.004103   0.011174   0.307757
    12  O    0.004692  -0.144873   0.342208  -0.170011   0.026351  -0.006274
    13  H    0.001638  -0.005235  -0.051844   0.033221  -0.006966   0.002494
    14  O   -0.002516   0.023217   0.042131  -0.021566  -0.017038   0.009087
    15  O   -0.083418   0.190676  -0.148859   0.052574  -0.020564   0.022226
    16  H   -0.009606   0.012460  -0.020472   0.018136  -0.001162   0.000145
              7          8          9         10         11         12
     1  C    0.320194   0.009004  -0.007480   0.005407   0.012592   0.004692
     2  C   -0.005891   0.348254   0.016185  -0.010588  -0.002138  -0.144873
     3  C    0.010451  -0.028011  -0.027735   0.015223   0.003927   0.342208
     4  C   -0.010893  -0.001106   0.337654  -0.005745  -0.004103  -0.170011
     5  C    0.007282  -0.005286   0.002697   0.316877   0.011174   0.026351
     6  C    0.009339   0.004277   0.006473   0.009418   0.307757  -0.006274
     7  H    0.469298  -0.003411   0.000009  -0.000108  -0.003819  -0.000541
     8  H   -0.003411   0.465103  -0.000081   0.000009  -0.000098  -0.001140
     9  H    0.000009  -0.000081   0.466739  -0.003497  -0.000098  -0.001867
    10  H   -0.000108   0.000009  -0.003497   0.469595  -0.003828  -0.000620
    11  H   -0.003819  -0.000098  -0.000098  -0.003828   0.471054   0.000016
    12  O   -0.000541  -0.001140  -0.001867  -0.000620   0.000016   8.505171
    13  H   -0.000001   0.000245  -0.000054   0.000001   0.000000   0.153120
    14  O   -0.000019   0.000494  -0.000135  -0.000015   0.000001  -0.067280
    15  O    0.000034  -0.002001   0.000201  -0.000052   0.000002   0.031358
    16  H   -0.000010   0.000094   0.000001   0.000000  -0.000001  -0.001561
             13         14         15         16
     1  C    0.001638  -0.002516  -0.083418  -0.009606
     2  C   -0.005235   0.023217   0.190676   0.012460
     3  C   -0.051844   0.042131  -0.148859  -0.020472
     4  C    0.033221  -0.021566   0.052574   0.018136
     5  C   -0.006966  -0.017038  -0.020564  -0.001162
     6  C    0.002494   0.009087   0.022226   0.000145
     7  H   -0.000001  -0.000019   0.000034  -0.000010
     8  H    0.000245   0.000494  -0.002001   0.000094
     9  H   -0.000054  -0.000135   0.000201   0.000001
    10  H    0.000001  -0.000015  -0.000052   0.000000
    11  H    0.000000   0.000001   0.000002  -0.000001
    12  O    0.153120  -0.067280   0.031358  -0.001561
    13  H    0.269221   0.124069  -0.033930  -0.000757
    14  O    0.124069   8.298438   0.107897  -0.035770
    15  O   -0.033930   0.107897   7.816961   0.287501
    16  H   -0.000757  -0.035770   0.287501   0.307057
 Mulliken atomic charges:
              1
     1  C   -0.107680
     2  C   -0.309332
     3  C    0.281018
     4  C   -0.152146
     5  C   -0.126672
     6  C   -0.241768
     7  H    0.208085
     8  H    0.213653
     9  H    0.210987
    10  H    0.207923
    11  H    0.207560
    12  O   -0.668749
    13  H    0.514777
    14  O   -0.460995
    15  O   -0.220607
    16  H    0.443943
 Sum of Mulliken atomic charges =   0.00000
 Mulliken charges with hydrogens summed into heavy atoms:
              1
     1  C    0.100405
     2  C   -0.095678
     3  C    0.281018
     4  C    0.058841
     5  C    0.081252
     6  C   -0.034208
    12  O   -0.153971
    14  O   -0.460995
    15  O    0.223337
 Sum of Mulliken charges with hydrogens summed into heavy atoms =   0.00000
          Atomic-Atomic Spin Densities.
              1          2          3          4          5          6
     1  C   -0.145424   0.053199  -0.027891   0.015467  -0.020497   0.019012
     2  C    0.053199   0.055533   0.154388  -0.078842   0.041313  -0.031393
     3  C   -0.027891   0.154388  -0.148854   0.130742  -0.077504   0.015747
     4  C    0.015467  -0.078842   0.130742   0.108996   0.032425  -0.035841
     5  C   -0.020497   0.041313  -0.077504   0.032425  -0.110089   0.036625
     6  C    0.019012  -0.031393   0.015747  -0.035841   0.036625   0.222388
     7  H    0.000068  -0.000517   0.000393  -0.000017   0.000115   0.000018
     8  H   -0.001891   0.000871   0.001431  -0.001035  -0.000101   0.000597
     9  H   -0.000201  -0.000928   0.000431  -0.000319   0.000330   0.000552
    10  H   -0.000002   0.000065   0.000209  -0.000360  -0.000196   0.000324
    11  H    0.001384  -0.001400   0.000850  -0.001269   0.001448  -0.001677
    12  O    0.001897  -0.005423  -0.060703  -0.006383   0.000327   0.002323
    13  H   -0.001585  -0.012539   0.036065  -0.011940   0.003304  -0.001969
    14  O   -0.001624  -0.010831   0.049299  -0.003604  -0.000782  -0.003184
    15  O    0.010033  -0.007801  -0.064596  -0.002132   0.004399   0.007912
    16  H    0.000692  -0.000379   0.002857  -0.000959  -0.000129  -0.000436
              7          8          9         10         11         12
     1  C    0.000068  -0.001891  -0.000201  -0.000002   0.001384   0.001897
     2  C   -0.000517   0.000871  -0.000928   0.000065  -0.001400  -0.005423
     3  C    0.000393   0.001431   0.000431   0.000209   0.000850  -0.060703
     4  C   -0.000017  -0.001035  -0.000319  -0.000360  -0.001269  -0.006383
     5  C    0.000115  -0.000101   0.000330  -0.000196   0.001448   0.000327
     6  C    0.000018   0.000597   0.000552   0.000324  -0.001677   0.002323
     7  H    0.002355  -0.000002   0.000000  -0.000001  -0.000011  -0.000001
     8  H   -0.000002  -0.007649   0.000001   0.000000   0.000002  -0.000122
     9  H    0.000000   0.000001  -0.006742  -0.000003   0.000002  -0.000167
    10  H   -0.000001   0.000000  -0.000003   0.002025  -0.000015   0.000001
    11  H   -0.000011   0.000002   0.000002  -0.000015  -0.009075  -0.000002
    12  O   -0.000001  -0.000122  -0.000167   0.000001  -0.000002   0.261216
    13  H    0.000000  -0.000158  -0.000015   0.000000   0.000000   0.009555
    14  O    0.000001  -0.000114  -0.000034   0.000000   0.000000  -0.031128
    15  O   -0.000001   0.000254   0.000010   0.000004  -0.000004   0.020938
    16  H    0.000000   0.000002   0.000000   0.000000   0.000000  -0.000314
             13         14         15         16
     1  C   -0.001585  -0.001624   0.010033   0.000692
     2  C   -0.012539  -0.010831  -0.007801  -0.000379
     3  C    0.036065   0.049299  -0.064596   0.002857
     4  C   -0.011940  -0.003604  -0.002132  -0.000959
     5  C    0.003304  -0.000782   0.004399  -0.000129
     6  C   -0.001969  -0.003184   0.007912  -0.000436
     7  H    0.000000   0.000001  -0.000001   0.000000
     8  H   -0.000158  -0.000114   0.000254   0.000002
     9  H   -0.000015  -0.000034   0.000010   0.000000
    10  H    0.000000   0.000000   0.000004   0.000000
    11  H    0.000000   0.000000  -0.000004   0.000000
    12  O    0.009555  -0.031128   0.020938  -0.000314
    13  H   -0.064140  -0.008305   0.010225  -0.000120
    14  O   -0.008305   0.411041  -0.067993   0.001128
    15  O    0.010225  -0.067993   0.273568  -0.000820
    16  H   -0.000120   0.001128  -0.000820  -0.007190
 Mulliken atomic spin densities:
              1
     1  C   -0.097365
     2  C    0.155313
     3  C    0.012863
     4  C    0.144929
     5  C   -0.089012
     6  C    0.230997
     7  H    0.002401
     8  H   -0.007916
     9  H   -0.007083
    10  H    0.002050
    11  H   -0.009768
    12  O    0.192014
    13  H   -0.041621
    14  O    0.333868
    15  O    0.183996
    16  H   -0.005667
 Sum of Mulliken atomic spin densities =   1.00000
 Electronic spatial extent (au):  <R**2>=           1197.0238
 Charge=              0.0000 electrons
 Dipole moment (field-independent basis, Debye):
    X=             -5.2646    Y=             -3.3915    Z=             -1.0767  Tot=              6.3543
 Quadrupole moment (field-independent basis, Debye-Ang):
   XX=            -56.1725   YY=            -43.4038   ZZ=            -57.4493
   XY=             -3.1120   XZ=              3.5829   YZ=             -3.1561
 Traceless Quadrupole moment (field-independent basis, Debye-Ang):
   XX=             -3.8306   YY=              8.9380   ZZ=             -5.1074
   XY=             -3.1120   XZ=              3.5829   YZ=             -3.1561
 Octapole moment (field-independent basis, Debye-Ang**2):
  XXX=            -28.4720  YYY=            -11.7591  ZZZ=             -5.1421  XYY=              4.5069
  XXY=             -9.8093  XXZ=             -6.9686  XZZ=              0.4001  YZZ=             -5.7011
  YYZ=             -6.9918  XYZ=              3.8158
 Hexadecapole moment (field-independent basis, Debye-Ang**3):
 XXXX=           -999.9941 YYYY=           -278.4047 ZZZZ=           -262.8998 XXXY=              9.1870
 XXXZ=             50.2917 YYYX=            -12.3752 YYYZ=             -6.0855 ZZZX=             -2.8876
 ZZZY=             -1.5347 XXYY=           -192.0765 XXZZ=           -209.6885 YYZZ=            -89.3066
 XXYZ=             -1.8332 YYXZ=             -6.6074 ZZXY=            -11.7379
 N-N= 4.335826106503D+02 E-N=-2.896216423660D+03  KE= 6.800384291513D+02
                          Isotropic Fermi Contact Couplings
        Atom                 a.u.       MegaHertz       Gauss      10(-4) cm-1
     1  C(13)             -0.01835     -20.63227      -7.36211      -6.88218
     2  C(13)              0.02413      27.12479       9.67880       9.04786
     3  C(13)             -0.01037     -11.65289      -4.15804      -3.88699
     4  C(13)              0.02134      23.98888       8.55983       8.00183
     5  C(13)             -0.01674     -18.81781      -6.71466      -6.27695
     6  C(13)              0.03407      38.30050      13.66657      12.77567
     7  H(1)               0.00072       3.23417       1.15403       1.07880
     8  H(1)              -0.00264     -11.81623      -4.21633      -3.94147
     9  H(1)              -0.00239     -10.68610      -3.81307      -3.56450
    10  H(1)               0.00062       2.75886       0.98443       0.92026
    11  H(1)              -0.00311     -13.90884      -4.96302      -4.63949
    12  O(17)              0.01260      -7.63587      -2.72467      -2.54705
    13  H(1)              -0.02272    -101.54713     -36.23454     -33.87248
    14  O(17)              0.05247     -31.80692     -11.34950     -10.60965
    15  O(17)              0.05581     -33.82879     -12.07095     -11.28407
    16  H(1)              -0.00397     -17.74134      -6.33055      -5.91788
 --------------------------------------------------------
       Center         ----  Spin Dipole Couplings  ----
                      3XX-RR        3YY-RR        3ZZ-RR
 --------------------------------------------------------
     1   Atom        0.011780      0.015643     -0.027423
     2   Atom       -0.024808     -0.052156      0.076964
     3   Atom        0.011075     -0.011532      0.000458
     4   Atom       -0.026242     -0.040037      0.066280
     5   Atom        0.008876      0.015363     -0.024239
     6   Atom       -0.025261     -0.064838      0.090099
     7   Atom        0.001757     -0.000630     -0.001127
     8   Atom       -0.003621      0.002398      0.001222
     9   Atom       -0.005716      0.010399     -0.004684
    10   Atom        0.000626      0.001729     -0.002355
    11   Atom        0.012106     -0.010558     -0.001548
    12   Atom       -0.084720     -0.254757      0.339478
    13   Atom        0.019716     -0.041161      0.021445
    14   Atom        0.415950     -0.465341      0.049391
    15   Atom        0.266650     -0.331059      0.064409
    16   Atom       -0.019935      0.041928     -0.021993
 --------------------------------------------------------
                        XY            XZ            YZ
 --------------------------------------------------------
     1   Atom        0.012119      0.031433     -0.021293
     2   Atom       -0.030065     -0.087687      0.051227
     3   Atom       -0.005554     -0.012521      0.011755
     4   Atom       -0.032138     -0.072466      0.052653
     5   Atom        0.011811      0.027206     -0.017520
     6   Atom       -0.039919     -0.102642      0.073984
     7   Atom       -0.000205      0.002025     -0.001498
     8   Atom       -0.006617      0.000635     -0.008306
     9   Atom        0.002015     -0.003413     -0.003310
    10   Atom        0.001329      0.000860     -0.000735
    11   Atom        0.005329      0.005547      0.006344
    12   Atom       -0.252090     -0.538478      0.360542
    13   Atom       -0.053108     -0.086054      0.059184
    14   Atom       -0.548030     -0.947634      0.437037
    15   Atom       -0.337647     -0.681090      0.286633
    16   Atom        0.012294     -0.009283     -0.011006
 --------------------------------------------------------


 ---------------------------------------------------------------------------------
              Anisotropic Spin Dipole Couplings in Principal Axis System
 ---------------------------------------------------------------------------------

       Atom             a.u.   MegaHertz   Gauss  10(-4) cm-1        Axes

              Baa    -0.0535    -7.185    -2.564    -2.397 -0.4583  0.3338  0.8237
     1 C(13)  Bbb     0.0243     3.262     1.164     1.088  0.1174  0.9414 -0.3162
              Bcc     0.0292     3.923     1.400     1.309  0.8810  0.0482  0.4707
 
              Baa    -0.0753   -10.111    -3.608    -3.373  0.8755  0.0841  0.4758
     2 C(13)  Bbb    -0.0700    -9.391    -3.351    -3.132  0.0673  0.9539 -0.2924
              Bcc     0.1453    19.501     6.959     6.505 -0.4784  0.2880  0.8295
 
              Baa    -0.0189    -2.533    -0.904    -0.845 -0.0781  0.8286 -0.5544
     3 C(13)  Bbb    -0.0042    -0.566    -0.202    -0.189  0.6563  0.4614  0.5970
              Bcc     0.0231     3.099     1.106     1.034  0.7505 -0.3172 -0.5798
 
              Baa    -0.0675    -9.052    -3.230    -3.019  0.8453  0.4559  0.2785
     4 C(13)  Bbb    -0.0611    -8.195    -2.924    -2.733 -0.2787  0.8211 -0.4981
              Bcc     0.1285    17.247     6.154     5.753 -0.4558  0.3434  0.8212
 
              Baa    -0.0467    -6.264    -2.235    -2.090 -0.4707  0.3216  0.8216
     5 C(13)  Bbb     0.0215     2.888     1.030     0.963 -0.3185  0.8065 -0.4982
              Bcc     0.0252     3.376     1.205     1.126  0.8228  0.4962  0.2771
 
              Baa    -0.0946   -12.693    -4.529    -4.234 -0.0884  0.9067 -0.4123
     6 C(13)  Bbb    -0.0845   -11.340    -4.046    -3.783  0.8759  0.2679  0.4014
              Bcc     0.1791    24.033     8.576     8.017 -0.4744  0.3257  0.8179
 
              Baa    -0.0029    -1.542    -0.550    -0.514 -0.3271  0.5010  0.8012
     7 H(1)   Bbb    -0.0001    -0.072    -0.026    -0.024  0.4485  0.8286 -0.3350
              Bcc     0.0030     1.614     0.576     0.538  0.8318 -0.2498  0.4958
 
              Baa    -0.0099    -5.271    -1.881    -1.758  0.6303  0.6385  0.4417
     8 H(1)   Bbb    -0.0021    -1.143    -0.408    -0.381  0.7001 -0.2215 -0.6788
              Bcc     0.0120     6.414     2.289     2.140 -0.3356  0.7371 -0.5866
 
              Baa    -0.0087    -4.629    -1.652    -1.544  0.7441  0.0372  0.6671
     9 H(1)   Bbb    -0.0028    -1.518    -0.542    -0.506 -0.6492  0.2759  0.7088
              Bcc     0.0115     6.147     2.193     2.050  0.1577  0.9605 -0.2294
 
              Baa    -0.0028    -1.519    -0.542    -0.507 -0.3190  0.2399  0.9169
    10 H(1)   Bbb     0.0002     0.121     0.043     0.040  0.7750 -0.4909  0.3981
              Bcc     0.0026     1.398     0.499     0.466  0.5456  0.8375 -0.0294
 
              Baa    -0.0140    -7.494    -2.674    -2.500 -0.0959  0.9041 -0.4164
    11 H(1)   Bbb    -0.0020    -1.075    -0.384    -0.359 -0.4510  0.3334  0.8279
              Bcc     0.0161     8.569     3.058     2.858  0.8873  0.2672  0.3758
 
              Baa    -0.4523    32.731    11.679    10.918  0.8494  0.1754  0.4977
    12 O(17)  Bbb    -0.4248    30.735    10.967    10.252  0.0453  0.9154 -0.4000
              Bcc     0.8771   -63.466   -22.646   -21.170 -0.5258  0.3623  0.7696
 
              Baa    -0.0769   -41.014   -14.635   -13.681  0.0537  0.8756 -0.4801
    13 H(1)   Bbb    -0.0644   -34.343   -12.255   -11.456  0.7668  0.2718  0.5815
              Bcc     0.1412    75.357    26.889    25.136 -0.6396  0.3994  0.6568
 
              Baa    -0.7392    53.491    19.087    17.843  0.6799  0.4905  0.5451
    14 O(17)  Bbb    -0.7146    51.706    18.450    17.247 -0.1056  0.8011 -0.5892
              Bcc     1.4538  -105.197   -37.537   -35.090  0.7257 -0.3430 -0.5964
 
              Baa    -0.5233    37.863    13.511    12.630  0.6683  0.0695  0.7406
    15 O(17)  Bbb    -0.4780    34.591    12.343    11.538  0.1906  0.9464 -0.2608
              Bcc     1.0013   -72.454   -25.853   -24.168  0.7191 -0.3154 -0.6192
 
              Baa    -0.0303   -16.169    -5.769    -5.393  0.6670  0.0000  0.7450
    16 H(1)   Bbb    -0.0163    -8.697    -3.103    -2.901  0.7168 -0.2726 -0.6418
              Bcc     0.0466    24.866     8.873     8.294  0.2031  0.9621 -0.1818
 

 ---------------------------------------------------------------------------------

 D1PCM: PCM CHGder 1st derivatives, ID1Alg=3 FixD1E=F DoIter=F DoCFld=F I1PDM=0.
 Calling FoFJK, ICntrl=      2127 FMM=F ISym2X=0 I1Cent= 0 IOpClX= 1 NMat=1 NMatS=1 NMatT=0.
 ***** Axes restored to original set *****
 -------------------------------------------------------------------
 Center     Atomic                   Forces (Hartrees/Bohr)
 Number     Number              X              Y              Z
 -------------------------------------------------------------------
      1        6          -0.000025863    0.000039825   -0.000057525
      2        6           0.000001219    0.000087350    0.000159361
      3        6          -0.000045741    0.000311501   -0.000194268
      4        6           0.000006175    0.000105987    0.000048811
      5        6           0.000055651   -0.000024726   -0.000078282
      6        6           0.000074362    0.000008987    0.000070435
      7        1          -0.000006523    0.000018193    0.000005222
      8        1           0.000014554   -0.000041316   -0.000028113
      9        1           0.000025264   -0.000041869    0.000004985
     10        1          -0.000011153    0.000018627    0.000006316
     11        1          -0.000012979   -0.000051520   -0.000054608
     12        8          -0.000105843   -0.000145069    0.000169279
     13        1           0.000186657    0.000189761    0.000173485
     14        8          -0.000054888   -0.000247570   -0.000384268
     15        8          -0.000077824   -0.000229150    0.000124619
     16        1          -0.000023068    0.000000990    0.000034550
 -------------------------------------------------------------------
 Cartesian Forces:  Max     0.000384268 RMS     0.000118233

 GradGradGradGradGradGradGradGradGradGradGradGradGradGradGradGradGradGrad
 Berny optimization.
 Internal  Forces:  Max     0.000731822 RMS     0.000161796
 Search for a saddle point.
 Step number   1 out of a maximum of   77
 All quantities printed in internal units (Hartrees-Bohrs-Radians)
 Swaping is turned off.
 Second derivative matrix not updated -- first step.
     Eigenvalues ---   -0.14795   0.00044   0.00690   0.01809   0.02173
     Eigenvalues ---    0.02305   0.02534   0.02696   0.02986   0.03093
     Eigenvalues ---    0.03453   0.03837   0.04509   0.06741   0.09095
     Eigenvalues ---    0.10650   0.11377   0.12177   0.12449   0.12757
     Eigenvalues ---    0.15816   0.18311   0.18821   0.19522   0.20463
     Eigenvalues ---    0.21650   0.23239   0.29623   0.33840   0.34076
     Eigenvalues ---    0.34348   0.34387   0.34635   0.36275   0.42295
     Eigenvalues ---    0.43403   0.45211   0.48611   0.50517   0.51515
     Eigenvalues ---    0.55669   0.568341000.000001000.000001000.00000
     Eigenvalues --- 1000.000001000.000001000.000001000.000001000.00000
     Eigenvalues --- 1000.000001000.000001000.000001000.000001000.00000
     Eigenvalues --- 1000.000001000.000001000.000001000.000001000.00000
     Eigenvalues --- 1000.000001000.000001000.000001000.000001000.00000
     Eigenvalues --- 1000.000001000.00000
 Eigenvectors required to have negative eigenvalues:
                          R14       R13       R15       R7        A21
   1                    0.64709  -0.55512  -0.26347   0.25256   0.13265
                          D26       R6        D29       D9        D24
   1                   -0.09551  -0.09375   0.09113  -0.09057  -0.08729
 RFO step:  Lambda0=6.233521737D-07 Lambda=-1.42501773D-05.
 Linear search not attempted -- option 19 set.
 Maximum step size (   0.030) exceeded in Quadratic search.
    -- Step size scaled by   0.225
 Iteration  1 RMS(Cart)=  0.00308772 RMS(Int)=  0.00001158
 Iteration  2 RMS(Cart)=  0.00004474 RMS(Int)=  0.00000001
 Iteration  3 RMS(Cart)=  0.00000000 RMS(Int)=  0.00000001
 Variable       Old X    -DE/DX   Delta X   Delta X   Delta X     New X
                                 (Linear)    (Quad)   (Total)
    R1        2.61910  -0.00005   0.00000   0.00001   0.00001   2.61911
    R2        2.64563   0.00007   0.00000  -0.00004  -0.00004   2.64559
    R3        2.05063   0.00001   0.00000   0.00000   0.00000   2.05063
    R4        2.67752  -0.00001   0.00000  -0.00003  -0.00003   2.67749
    R5        2.05255  -0.00002   0.00000  -0.00001  -0.00001   2.05254
    R6        2.67483   0.00003   0.00000  -0.00003  -0.00003   2.67479
    R7        2.51638  -0.00037   0.00000   0.00006   0.00006   2.51645
    R8        2.61576  -0.00003   0.00000  -0.00003  -0.00003   2.61574
    R9        2.05161   0.00001   0.00000   0.00000   0.00000   2.05161
   R10        2.65088   0.00001   0.00000   0.00005   0.00005   2.65093
   R11        2.05075  -0.00002   0.00000   0.00000   0.00000   2.05075
   R12        2.05121   0.00000   0.00000   0.00001   0.00001   2.05123
   R13        2.12578  -0.00029   0.00000  -0.00027  -0.00027   2.12551
   R14        2.38152  -0.00053   0.00000   0.00008   0.00008   2.38161
   R15        2.57549   0.00023   0.00000  -0.00012  -0.00012   2.57537
   R16        1.84564   0.00003   0.00000   0.00007   0.00007   1.84571
    A1        2.09487   0.00001   0.00000   0.00001   0.00001   2.09488
    A2        2.09501  -0.00002   0.00000  -0.00012  -0.00012   2.09489
    A3        2.09331   0.00001   0.00000   0.00011   0.00011   2.09342
    A4        2.08974  -0.00001   0.00000   0.00009   0.00009   2.08983
    A5        2.12544   0.00002   0.00000   0.00001   0.00001   2.12545
    A6        2.06800   0.00000   0.00000  -0.00011  -0.00011   2.06789
    A7        2.09231   0.00001   0.00000  -0.00012  -0.00012   2.09220
    A8        2.09641   0.00007   0.00000   0.00000   0.00000   2.09642
    A9        2.09439  -0.00009   0.00000   0.00011   0.00011   2.09451
   A10        2.08848   0.00001   0.00000   0.00006   0.00006   2.08854
   A11        2.06877   0.00005   0.00000   0.00024   0.00024   2.06902
   A12        2.12593  -0.00005   0.00000  -0.00031  -0.00031   2.12562
   A13        2.09703  -0.00001   0.00000   0.00004   0.00004   2.09706
   A14        2.09455   0.00001   0.00000   0.00000   0.00000   2.09455
   A15        2.09160   0.00000   0.00000  -0.00004  -0.00004   2.09156
   A16        2.10390  -0.00001   0.00000  -0.00009  -0.00009   2.10381
   A17        2.08980   0.00000   0.00000   0.00003   0.00003   2.08983
   A18        2.08948   0.00001   0.00000   0.00006   0.00006   2.08954
   A19        1.89392  -0.00073   0.00000  -0.00078  -0.00078   1.89314
   A20        2.87761  -0.00059   0.00000  -0.00020  -0.00020   2.87741
   A21        1.78138  -0.00035   0.00000  -0.00043  -0.00043   1.78096
   A22        1.83824   0.00003   0.00000   0.00004   0.00004   1.83828
    D1       -0.00189   0.00001   0.00000   0.00010   0.00010  -0.00179
    D2       -3.13967  -0.00003   0.00000   0.00005   0.00005  -3.13961
    D3        3.13841   0.00002   0.00000   0.00021   0.00021   3.13862
    D4        0.00063  -0.00002   0.00000   0.00016   0.00016   0.00079
    D5        0.00127   0.00002   0.00000  -0.00002  -0.00002   0.00126
    D6        3.14006   0.00004   0.00000   0.00009   0.00009   3.14015
    D7       -3.13902   0.00000   0.00000  -0.00012  -0.00012  -3.13915
    D8       -0.00024   0.00003   0.00000  -0.00001  -0.00001  -0.00025
    D9       -0.00360  -0.00004   0.00000  -0.00008  -0.00008  -0.00368
   D10        3.12545   0.00000   0.00000   0.00018   0.00018   3.12562
   D11        3.13431  -0.00001   0.00000  -0.00003  -0.00003   3.13428
   D12       -0.01984   0.00004   0.00000   0.00022   0.00022  -0.01961
   D13        0.00979   0.00005   0.00000  -0.00004  -0.00004   0.00975
   D14       -3.13484   0.00002   0.00000   0.00020   0.00020  -3.13463
   D15       -3.11927   0.00000   0.00000  -0.00029  -0.00029  -3.11956
   D16        0.01929  -0.00003   0.00000  -0.00005  -0.00005   0.01924
   D17        1.41825  -0.00009   0.00000   0.00872   0.00872   1.42697
   D18       -1.73591  -0.00004   0.00000   0.00898   0.00898  -1.72693
   D19       -0.01044  -0.00003   0.00000   0.00012   0.00012  -0.01032
   D20        3.13678  -0.00002   0.00000   0.00006   0.00006   3.13684
   D21        3.13429   0.00001   0.00000  -0.00013  -0.00013   3.13416
   D22       -0.00168   0.00001   0.00000  -0.00019  -0.00019  -0.00187
   D23        0.00499  -0.00001   0.00000  -0.00010  -0.00010   0.00489
   D24       -3.13380  -0.00003   0.00000  -0.00021  -0.00021  -3.13400
   D25        3.14096  -0.00001   0.00000  -0.00004  -0.00004   3.14093
   D26        0.00218  -0.00003   0.00000  -0.00015  -0.00015   0.00203
   D27        0.15236  -0.00030   0.00000  -0.02253  -0.02253   0.12983
   D28       -0.09573  -0.00022   0.00000   0.01524   0.01524  -0.08049
   D29       -1.60815  -0.00002   0.00000  -0.00128  -0.00128  -1.60943
         Item               Value     Threshold  Converged?
 Maximum Force            0.000732     0.000450     NO 
 RMS     Force            0.000162     0.000300     YES
 Maximum Displacement     0.013623     0.001800     NO 
 RMS     Displacement     0.003076     0.001200     NO 
 Predicted change in Energy=-2.727732D-06
 GradGradGradGradGradGradGradGradGradGradGradGradGradGradGradGradGradGrad

                          Input orientation:                          
 ---------------------------------------------------------------------
 Center     Atomic      Atomic             Coordinates (Angstroms)
 Number     Number       Type             X           Y           Z
 ---------------------------------------------------------------------
      1          6           0        0.767721   -2.622474   -0.250600
      2          6           0        0.799346   -1.669581   -1.256544
      3          6           0        2.020235   -1.384752   -1.916702
      4          6           0        3.200579   -2.070701   -1.542899
      5          6           0        3.150471   -3.024666   -0.541192
      6          6           0        1.938349   -3.301126    0.108592
      7          1           0       -0.164199   -2.842347    0.260010
      8          1           0       -0.091151   -1.124950   -1.556761
      9          1           0        4.125392   -1.830838   -2.058507
     10          1           0        4.051174   -3.557086   -0.253198
     11          1           0        1.908492   -4.045548    0.898006
     12          8           0        2.055577   -0.483768   -2.896632
     13          1           0        2.119288    0.540661   -2.436637
     14          8           0        2.227776    1.512828   -1.641994
     15          8           0        2.280612    0.886915   -0.432559
     16          1           0        1.355956    0.850612   -0.120064
 ---------------------------------------------------------------------
                    Distance matrix (angstroms):
                    1          2          3          4          5
     1  C    0.000000
     2  C    1.385975   0.000000
     3  C    2.424179   1.416865   0.000000
     4  C    2.809499   2.451289   1.415439   0.000000
     5  C    2.433865   2.806381   2.420492   1.384188   0.000000
     6  C    1.399985   2.413061   2.789446   2.415490   1.402814
     7  H    1.085146   2.145631   3.410925   3.894567   3.414996
     8  H    2.164786   1.086158   2.157546   3.424928   3.892097
     9  H    3.894762   3.425162   2.156569   1.085664   2.162856
    10  H    3.413879   3.891499   3.407491   2.143870   1.085208
    11  H    2.155410   3.393745   3.874907   3.395221   2.157777
    12  O    3.637873   2.382049   1.331647   2.379492   3.633601
    13  H    4.075649   2.831968   1.996837   2.964317   4.167447
    14  O    4.600919   3.509517   2.917962   3.714545   4.759410
    15  O    3.825932   3.067372   2.725976   3.290393   4.008606
    16  H    3.524965   2.820066   2.943811   3.736464   4.291318
                    6          7          8          9         10
     6  C    0.000000
     7  H    2.157340   0.000000
     8  H    3.409988   2.501089   0.000000
     9  H    3.411924   4.979886   4.304564   0.000000
    10  H    2.158804   4.306228   4.977291   2.498917   0.000000
    11  H    1.085463   2.480076   4.307476   4.308197   2.480917
    12  O    4.120997   4.522686   2.610519   2.607908   4.518345
    13  H    4.611969   4.891928   2.904219   3.129128   5.029028
    14  O    5.130543   5.320405   3.513198   3.867109   5.563952
    15  O    4.236705   4.512665   3.307066   3.665120   4.787087
    16  H    4.198618   4.011642   2.839201   4.314801   5.168145
                   11         12         13         14         15
    11  H    0.000000
    12  O    5.206456   0.000000
    13  H    5.674292   1.124771   0.000000
    14  O    6.119565   2.364352   1.260291   0.000000
    15  O    5.122310   2.828615   2.040158   1.362825   0.000000
    16  H    5.031316   3.159013   2.458710   1.874799   0.976708
                   16
    16  H    0.000000
 Stoichiometry    C6H7O3(2)
 Framework group  C1[X(C6H7O3)]
 Deg. of freedom    42
 Full point group                 C1      NOp   1
 Largest Abelian subgroup         C1      NOp   1
 Largest concise Abelian subgroup C1      NOp   1
                         Standard orientation:                         
 ---------------------------------------------------------------------
 Center     Atomic      Atomic             Coordinates (Angstroms)
 Number     Number       Type             X           Y           Z
 ---------------------------------------------------------------------
      1          6           0       -1.663292   -1.251993    0.334534
      2          6           0       -0.443313   -0.891749    0.884810
      3          6           0        0.071767    0.409136    0.661433
      4          6           0       -0.659147    1.331346   -0.125180
      5          6           0       -1.879402    0.958167   -0.661550
      6          6           0       -2.383019   -0.331702   -0.436837
      7          1           0       -2.060888   -2.247974    0.500311
      8          1           0        0.139558   -1.583420    1.486136
      9          1           0       -0.241233    2.320052   -0.287893
     10          1           0       -2.446539    1.662246   -1.261805
     11          1           0       -3.337365   -0.619257   -0.866681
     12          8           0        1.234453    0.769249    1.201586
     13          1           0        2.065352    0.379286    0.551474
     14          8           0        2.743485   -0.137199   -0.376811
     15          8           0        1.773026   -0.598133   -1.215286
     16          1           0        1.611840   -1.521491   -0.940715
 ---------------------------------------------------------------------
 Rotational constants (GHZ):      2.8573017      1.1160508      1.0666298
 Standard basis: 6-31+G(d,p) (6D, 7F)
 There are   206 symmetry adapted basis functions of A   symmetry.
 Integral buffers will be    262144 words long.
 Raffenetti 2 integral format.
 Two-electron integral symmetry is turned on.
   206 basis functions,   337 primitive gaussians,   206 cartesian basis functions
    34 alpha electrons       33 beta electrons
       nuclear repulsion energy       433.6565025376 Hartrees.
 NAtoms=   16 NActive=   16 NUniq=   16 SFac= 7.50D-01 NAtFMM=   80 NAOKFM=F Big=F
 ------------------------------------------------------------------------------
 Polarizable Continuum Model (PCM)
 =================================
 Model                : PCM.
 Atomic radii         : SMD-Coulomb.
 Polarization charges : Total charges.
 Charge compensation  : None.
 Solution method      : Matrix inversion.
 Cavity type          : VdW (van der Waals Surface) (Alpha=1.000).
 Cavity algorithm     : GePol (No added spheres)
                        Default sphere list used, NSphG=   16.
                        Lebedev-Laikov grids with approx.  5.0 points / Ang**2.
                        Smoothing algorithm: Karplus/York (Gamma=1.0000).
                        Polarization charges: spherical gaussians, with
                                              point-specific exponents (IZeta= 3).
                        Self-potential: point-specific (ISelfS= 7).
                        Self-field    : sphere-specific E.n sum rule (ISelfD= 2).
 1st derivatives      : Analytical E(r).r(x)/FMM algorithm (CHGder, D1EAlg=3).
                        Cavity 1st derivative terms included.
 Solvent              : Water, Eps=  78.355300 Eps(inf)=   1.777849
 ------------------------------------------------------------------------------
 Spheres list:
 ISph  on   Nord    Re0     Alpha      Xe            Ye            Ze
    1   C      1    1.850   1.000     -1.663292     -1.251993      0.334534
    2   C      2    1.850   1.000     -0.443313     -0.891749      0.884810
    3   C      3    1.850   1.000      0.071767      0.409136      0.661433
    4   C      4    1.850   1.000     -0.659147      1.331346     -0.125180
    5   C      5    1.850   1.000     -1.879402      0.958167     -0.661550
    6   C      6    1.850   1.000     -2.383019     -0.331702     -0.436837
    7   H      7    1.200   1.000     -2.060888     -2.247974      0.500311
    8   H      8    1.200   1.000      0.139558     -1.583420      1.486136
    9   H      9    1.200   1.000     -0.241233      2.320052     -0.287893
   10   H     10    1.200   1.000     -2.446539      1.662246     -1.261805
   11   H     11    1.200   1.000     -3.337365     -0.619257     -0.866681
   12   O     12    1.520   1.000      1.234453      0.769249      1.201586
   13   H     13    1.200   1.000      2.065352      0.379286      0.551474
   14   O     14    1.520   1.000      2.743485     -0.137199     -0.376811
   15   O     15    1.520   1.000      1.773026     -0.598133     -1.215286
   16   H     16    1.200   1.000      1.611840     -1.521491     -0.940715
 ------------------------------------------------------------------------------
 ------------------------------------------------------------------------------
 Atomic radii for non-electrostatic terms: SMD-CDS.
 ------------------------------------------------------------------------------
 Nuclear repulsion after PCM non-electrostatic terms =      433.6618111492 Hartrees.
 One-electron integrals computed using PRISM.
 NBasis=   206 RedAO= T  NBF=   206
 NBsUse=   206 1.00D-06 NBFU=   206
 Initial guess read from the read-write file.
 B after Tr=     0.000000    0.000000    0.000000
         Rot=    1.000000    0.000000    0.000000    0.000000 Ang=   0.00 deg.
 Initial guess orbital symmetries:
 Alpha Orbitals:
       Occupied  (A) (A) (A) (A) (A) (A) (A) (A) (A) (A) (A) (A)
                 (A) (A) (A) (A) (A) (A) (A) (A) (A) (A) (A) (A)
                 (A) (A) (A) (A) (A) (A) (A) (A) (A) (A)
       Virtual   (A) (A) (A) (A) (A) (A) (A) (A) (A) (A) (A) (A)
                 (A) (A) (A) (A) (A) (A) (A) (A) (A) (A) (A) (A)
                 (A) (A) (A) (A) (A) (A) (A) (A) (A) (A) (A) (A)
                 (A) (A) (A) (A) (A) (A) (A) (A) (A) (A) (A) (A)
                 (A) (A) (A) (A) (A) (A) (A) (A) (A) (A) (A) (A)
                 (A) (A) (A) (A) (A) (A) (A) (A) (A) (A) (A) (A)
                 (A) (A) (A) (A) (A) (A) (A) (A) (A) (A) (A) (A)
                 (A) (A) (A) (A) (A) (A) (A) (A) (A) (A) (A) (A)
                 (A) (A) (A) (A) (A) (A) (A) (A) (A) (A) (A) (A)
                 (A) (A) (A) (A) (A) (A) (A) (A) (A) (A) (A) (A)
                 (A) (A) (A) (A) (A) (A) (A) (A) (A) (A) (A) (A)
                 (A) (A) (A) (A) (A) (A) (A) (A) (A) (A) (A) (A)
                 (A) (A) (A) (A) (A) (A) (A) (A) (A) (A) (A) (A)
                 (A) (A) (A) (A) (A) (A) (A) (A) (A) (A) (A) (A)
                 (A) (A) (A) (A)
 Beta  Orbitals:
       Occupied  (A) (A) (A) (A) (A) (A) (A) (A) (A) (A) (A) (A)
                 (A) (A) (A) (A) (A) (A) (A) (A) (A) (A) (A) (A)
                 (A) (A) (A) (A) (A) (A) (A) (A) (A)
       Virtual   (A) (A) (A) (A) (A) (A) (A) (A) (A) (A) (A) (A)
                 (A) (A) (A) (A) (A) (A) (A) (A) (A) (A) (A) (A)
                 (A) (A) (A) (A) (A) (A) (A) (A) (A) (A) (A) (A)
                 (A) (A) (A) (A) (A) (A) (A) (A) (A) (A) (A) (A)
                 (A) (A) (A) (A) (A) (A) (A) (A) (A) (A) (A) (A)
                 (A) (A) (A) (A) (A) (A) (A) (A) (A) (A) (A) (A)
                 (A) (A) (A) (A) (A) (A) (A) (A) (A) (A) (A) (A)
                 (A) (A) (A) (A) (A) (A) (A) (A) (A) (A) (A) (A)
                 (A) (A) (A) (A) (A) (A) (A) (A) (A) (A) (A) (A)
                 (A) (A) (A) (A) (A) (A) (A) (A) (A) (A) (A) (A)
                 (A) (A) (A) (A) (A) (A) (A) (A) (A) (A) (A) (A)
                 (A) (A) (A) (A) (A) (A) (A) (A) (A) (A) (A) (A)
                 (A) (A) (A) (A) (A) (A) (A) (A) (A) (A) (A) (A)
                 (A) (A) (A) (A) (A) (A) (A) (A) (A) (A) (A) (A)
                 (A) (A) (A) (A) (A)
 Initial guess <Sx>= 0.0000 <Sy>= 0.0000 <Sz>= 0.5000 <S**2>= 0.7671 S= 0.5085
 Requested convergence on RMS density matrix=1.00D-08 within 128 cycles.
 Requested convergence on MAX density matrix=1.00D-06.
 Requested convergence on             energy=1.00D-06.
 No special actions if energy rises.
 Error on total polarization charges =  0.04969
 SCF Done:  E(UM062X) =  -458.202571646     A.U. after   18 cycles
             Convg  =    0.1065D-08             -V/T =  2.0085
 <Sx>= 0.0000 <Sy>= 0.0000 <Sz>= 0.5000 <S**2>= 0.7671 S= 0.5085
 <L.S>= 0.000000000000E+00
 SMD-CDS (non-electrostatic) energy             (kcal/mol) =       3.33
 (included in total energy above)
 Annihilation of the first spin contaminant:
 S**2 before annihilation     0.7671,   after     0.7502
 D1PCM: PCM CHGder 1st derivatives, ID1Alg=3 FixD1E=F DoIter=F DoCFld=F I1PDM=0.
 Calling FoFJK, ICntrl=      2127 FMM=F ISym2X=0 I1Cent= 0 IOpClX= 1 NMat=1 NMatS=1 NMatT=0.
 ***** Axes restored to original set *****
 -------------------------------------------------------------------
 Center     Atomic                   Forces (Hartrees/Bohr)
 Number     Number              X              Y              Z
 -------------------------------------------------------------------
      1        6          -0.000024477    0.000017116   -0.000049936
      2        6           0.000015411    0.000100894    0.000133906
      3        6          -0.000047675    0.000206005   -0.000159719
      4        6           0.000006252    0.000093591    0.000042352
      5        6           0.000037690   -0.000034481   -0.000063366
      6        6           0.000071239    0.000019484    0.000061965
      7        1          -0.000000479    0.000016800    0.000013244
      8        1           0.000005858   -0.000046067   -0.000022316
      9        1           0.000016497   -0.000034611   -0.000007545
     10        1          -0.000004532    0.000021294    0.000001973
     11        1          -0.000002939   -0.000048141   -0.000051877
     12        8          -0.000078306   -0.000111410    0.000145295
     13        1           0.000134814    0.000168372    0.000129507
     14        8          -0.000040378   -0.000193712   -0.000293093
     15        8          -0.000077722   -0.000174924    0.000095827
     16        1          -0.000011253   -0.000000208    0.000023783
 -------------------------------------------------------------------
 Cartesian Forces:  Max     0.000293093 RMS     0.000092773

 GradGradGradGradGradGradGradGradGradGradGradGradGradGradGradGradGradGrad
 Berny optimization.
 Internal  Forces:  Max     0.000535318 RMS     0.000124556
 Search for a saddle point.
 Step number   2 out of a maximum of   77
 All quantities printed in internal units (Hartrees-Bohrs-Radians)
 Swaping is turned off.
 Update second derivatives using D2CorX and points    1    2
     Eigenvalues ---   -0.14795   0.00058   0.00694   0.01809   0.02173
     Eigenvalues ---    0.02305   0.02534   0.02696   0.02986   0.03093
     Eigenvalues ---    0.03453   0.03838   0.04509   0.06741   0.09096
     Eigenvalues ---    0.10650   0.11378   0.12177   0.12449   0.12757
     Eigenvalues ---    0.15818   0.18311   0.18822   0.19523   0.20464
     Eigenvalues ---    0.21650   0.23239   0.29623   0.33840   0.34076
     Eigenvalues ---    0.34348   0.34387   0.34635   0.36276   0.42297
     Eigenvalues ---    0.43403   0.45213   0.48612   0.50517   0.51515
     Eigenvalues ---    0.55669   0.568341000.000001000.000001000.00000
     Eigenvalues --- 1000.000001000.000001000.000001000.000001000.00000
     Eigenvalues --- 1000.000001000.000001000.000001000.000001000.00000
     Eigenvalues --- 1000.000001000.000001000.000001000.000001000.00000
     Eigenvalues --- 1000.000001000.000001000.000001000.000001000.00000
     Eigenvalues --- 1000.000001000.00000
 Eigenvectors required to have negative eigenvalues:
                          R14       R13       R15       R7        A21
   1                    0.64709  -0.55510  -0.26347   0.25256   0.13265
                          D26       R6        D29       D9        D24
   1                   -0.09552  -0.09375   0.09116  -0.09058  -0.08729
 RFO step:  Lambda0=3.800032095D-07 Lambda=-7.29021862D-06.
 Linear search not attempted -- option 19 set.
 Maximum step size (   0.030) exceeded in Quadratic search.
    -- Step size scaled by   0.391
 Iteration  1 RMS(Cart)=  0.00306176 RMS(Int)=  0.00001427
 Iteration  2 RMS(Cart)=  0.00005034 RMS(Int)=  0.00000001
 Iteration  3 RMS(Cart)=  0.00000000 RMS(Int)=  0.00000001
 Variable       Old X    -DE/DX   Delta X   Delta X   Delta X     New X
                                 (Linear)    (Quad)   (Total)
    R1        2.61911  -0.00003   0.00000   0.00006   0.00006   2.61917
    R2        2.64559   0.00006   0.00000  -0.00006  -0.00006   2.64553
    R3        2.05063   0.00001   0.00000   0.00000   0.00000   2.05063
    R4        2.67749  -0.00002   0.00000  -0.00006  -0.00006   2.67743
    R5        2.05254  -0.00002   0.00000  -0.00003  -0.00003   2.05251
    R6        2.67479   0.00002   0.00000  -0.00004  -0.00004   2.67475
    R7        2.51645  -0.00028   0.00000   0.00005   0.00005   2.51649
    R8        2.61574  -0.00002   0.00000  -0.00003  -0.00003   2.61571
    R9        2.05161   0.00001   0.00000   0.00000   0.00000   2.05161
   R10        2.65093   0.00000   0.00000   0.00005   0.00005   2.65099
   R11        2.05075  -0.00001   0.00000  -0.00001  -0.00001   2.05073
   R12        2.05123   0.00000   0.00000   0.00000   0.00000   2.05123
   R13        2.12551  -0.00021   0.00000  -0.00031  -0.00031   2.12520
   R14        2.38161  -0.00041   0.00000   0.00012   0.00012   2.38173
   R15        2.57537   0.00017   0.00000  -0.00014  -0.00014   2.57522
   R16        1.84571   0.00001   0.00000   0.00005   0.00005   1.84576
    A1        2.09488   0.00001   0.00000   0.00000   0.00000   2.09488
    A2        2.09489  -0.00002   0.00000  -0.00012  -0.00012   2.09477
    A3        2.09342   0.00001   0.00000   0.00012   0.00012   2.09353
    A4        2.08983  -0.00001   0.00000   0.00008   0.00008   2.08991
    A5        2.12545   0.00001   0.00000  -0.00001  -0.00001   2.12545
    A6        2.06789   0.00000   0.00000  -0.00007  -0.00007   2.06782
    A7        2.09220   0.00001   0.00000  -0.00009  -0.00009   2.09211
    A8        2.09642   0.00006   0.00000  -0.00002  -0.00002   2.09640
    A9        2.09451  -0.00008   0.00000   0.00011   0.00011   2.09462
   A10        2.08854   0.00001   0.00000   0.00005   0.00005   2.08860
   A11        2.06902   0.00003   0.00000   0.00021   0.00021   2.06923
   A12        2.12562  -0.00004   0.00000  -0.00027  -0.00027   2.12536
   A13        2.09706  -0.00001   0.00000   0.00003   0.00003   2.09710
   A14        2.09455   0.00001   0.00000   0.00000   0.00000   2.09455
   A15        2.09156   0.00000   0.00000  -0.00004  -0.00004   2.09153
   A16        2.10381   0.00000   0.00000  -0.00008  -0.00008   2.10373
   A17        2.08983   0.00000   0.00000   0.00005   0.00005   2.08988
   A18        2.08954   0.00000   0.00000   0.00003   0.00003   2.08957
   A19        1.89314  -0.00054   0.00000  -0.00072  -0.00072   1.89242
   A20        2.87741  -0.00046   0.00000  -0.00035  -0.00035   2.87706
   A21        1.78096  -0.00028   0.00000  -0.00043  -0.00043   1.78052
   A22        1.83828   0.00002   0.00000   0.00005   0.00005   1.83833
    D1       -0.00179   0.00001   0.00000   0.00013   0.00013  -0.00165
    D2       -3.13961  -0.00003   0.00000  -0.00011  -0.00011  -3.13973
    D3        3.13862   0.00002   0.00000   0.00013   0.00013   3.13875
[...]
    D2       -3.14023  -0.00001   0.00000  -0.00057  -0.00057  -3.14080
    D3        3.13885   0.00001   0.00000   0.00023   0.00023   3.13908
    D4        0.00010  -0.00001   0.00000  -0.00065  -0.00065  -0.00055
    D5        0.00114   0.00000   0.00000   0.00017   0.00017   0.00131
    D6        3.14095   0.00001   0.00000   0.00063   0.00063   3.14158
    D7       -3.13919   0.00000   0.00000   0.00024   0.00024  -3.13895
    D8        0.00062   0.00001   0.00000   0.00071   0.00071   0.00133
    D9       -0.00404  -0.00002   0.00000  -0.00077  -0.00077  -0.00481
   D10        3.12630  -0.00001   0.00000  -0.00070  -0.00070   3.12560
   D11        3.13481   0.00000   0.00000   0.00008   0.00008   3.13489
   D12       -0.01804   0.00001   0.00000   0.00015   0.00015  -0.01789
   D13        0.00996   0.00002   0.00000   0.00076   0.00076   0.01072
   D14       -3.13466   0.00000   0.00000   0.00025   0.00025  -3.13441
   D15       -3.12039   0.00001   0.00000   0.00070   0.00070  -3.11969
   D16        0.01817   0.00000   0.00000   0.00018   0.00018   0.01836
   D17        1.44281  -0.00001   0.00000  -0.00120  -0.00120   1.44161
   D18       -1.71005  -0.00001   0.00000  -0.00114  -0.00114  -1.71119
   D19       -0.01034  -0.00001   0.00000  -0.00029  -0.00029  -0.01063
   D20        3.13685   0.00000   0.00000  -0.00010  -0.00010   3.13675
   D21        3.13439   0.00001   0.00000   0.00023   0.00023   3.13462
   D22       -0.00161   0.00001   0.00000   0.00043   0.00043  -0.00118
   D23        0.00486   0.00000   0.00000  -0.00017  -0.00017   0.00469
   D24       -3.13495  -0.00001   0.00000  -0.00064  -0.00064  -3.13559
   D25        3.14087   0.00000   0.00000  -0.00037  -0.00037   3.14050
   D26        0.00106  -0.00001   0.00000  -0.00083  -0.00083   0.00022
   D27        0.08300  -0.00002   0.00000   0.00054   0.00054   0.08354
   D28       -0.05133  -0.00002   0.00000  -0.00034  -0.00034  -0.05167
   D29       -1.61143  -0.00001   0.00000  -0.00078  -0.00078  -1.61221
         Item               Value     Threshold  Converged?
 Maximum Force            0.000069     0.000450     YES
 RMS     Force            0.000016     0.000300     YES
 Maximum Displacement     0.002108     0.001800     NO 
 RMS     Displacement     0.000773     0.001200     YES
 Predicted change in Energy=-7.374177D-08
 GradGradGradGradGradGradGradGradGradGradGradGradGradGradGradGradGradGrad


 Test job not archived.
 1|1|UNPC-DESKTOP-319GPER|Freq|UM062X|6-31+G(d,p)|C6H7O3(2)|SAGAD|20-Ja
 n-2021|0||#N Geom=AllCheck Guess=TCheck SCRF=Check Test GenChk UM062X/
 6-31+G(d,p) Freq||tsFenolandRadical m062x two||0,2|C,0.7672779943,-2.6
 230921376,-0.2498189701|C,0.7968748342,-1.6705708906,-1.2562730037|C,2
 .0167417109,-1.3841836829,-1.9174583315|C,3.1983435417,-2.0679525826,-
 1.5438300287|C,3.1504166353,-3.0214072944,-0.5415632689|C,1.9391314281
 ,-3.2996208484,0.1091462254|H,-0.1641686417,-2.8440267477,0.2612079161
 |H,-0.0947710889,-1.1279838117,-1.5566839647|H,4.12273039,-1.827399896
 2,-2.0598936188|H,4.0521719844,-3.5521179848,-0.253758561|H,1.91081479
 03,-4.0442750511,0.8983980177|O,2.0500475013,-0.4829743833,-2.89729945
 99|H,2.1297554386,0.5393827637,-2.4362613582|O,2.2423866949,1.50833291
 15,-1.6380929895|O,2.2776476501,0.8781332177,-0.4304554993|H,1.3502182
 764,0.8529358784,-0.1250443249||Version=IA32W-G09RevA.02|State=2-A|HF=
 -458.202577|S2=0.767013|S2-1=0.|S2A=0.750223|RMSD=5.980e-010|RMSF=2.38
 8e-005|ZeroPoint=0.1165329|Thermal=0.1249116|Dipole=-0.9289652,-1.5699
 722,1.6741481|DipoleDeriv=0.0115287,1.40801,-0.1558441,0.078166,-1.697
 6693,-0.0094177,-0.1452053,1.202526,-0.1277727,0.1095875,2.4007177,0.1
 690942,-0.0174015,1.3935756,-0.0977155,-0.0497406,-2.2248799,-0.072281
 4,0.2562173,-0.363224,0.0101003,-0.3354016,-4.1081928,-0.6338187,0.360
 477,4.5153993,0.9409369,-0.2132374,-2.1272045,-0.2103417,0.2526605,2.0
 70775,-0.0459008,-0.2147754,-1.5606302,0.0005483,-0.1792068,-1.6178889
 ,0.1423378,-0.2804323,-1.2434888,0.0106718,0.2895842,1.5335385,-0.2244
 483,0.2401725,0.0745761,-0.0738495,-0.0402346,0.2848769,-0.1574204,-0.
 0680499,-0.4499802,0.0659811,-0.0141859,-0.109193,0.0838559,-0.0187985
 ,0.1102656,0.0454047,0.0836028,0.1099851,0.1179118,0.0370874,-0.009446
 5,-0.0274772,0.0684242,0.1438849,0.0558665,-0.0279516,0.0459628,0.1358
 047,0.0356108,0.0579394,0.0703399,-0.0197511,0.1575411,0.0527026,0.068
 7922,0.0266067,0.1151441,0.0078341,0.1550303,-0.0298026,0.0726471,0.05
 17909,0.0480199,-0.0211568,0.089693,0.141598,0.1200042,0.001208,0.0138
 449,0.0054287,0.0404087,0.115589,0.0162853,0.144498,0.0617091,-0.60081
 83,0.3647993,-0.0161964,0.597127,7.2069687,0.6644331,-0.1573613,-1.897
 8818,-1.2942541,0.4286111,-0.5208856,0.027898,-0.560521,-7.1557088,-0.
 1526169,-0.358853,-4.8502056,0.3431869,-0.4307513,0.4031885,-0.0633528
 ,-0.1123777,-1.8702397,-0.0413535,0.7811466,9.9743633,0.2596251,-0.094
 5428,0.9732463,0.1961561,0.2965526,4.0963396,0.0789658,-0.5330912,-7.0
 110525,-0.8812809,0.2860892,-1.0908728,-0.1367628,0.0139123,0.5188723,
 0.0665901,-0.0237031,0.3520577,0.4175916|Polar=126.4321162,22.0444104,
 510.8983441,-8.382401,-30.6924021,122.8125285|PG=C01 [X(C6H7O3)]|NImag
 =1||0.70292546,-0.04837574,0.40193640,-0.12106887,-0.26595906,0.448761
 17,-0.13586276,0.03493221,-0.01262034,0.66325724,-0.02606439,-0.201218
 02,0.15581625,-0.12685375,0.43476024,0.04819884,0.14186903,-0.22171969
 ,-0.02680604,-0.28324387,0.43660629,0.03144003,-0.04606947,0.03867329,
 -0.26911128,0.00705193,0.05212316,0.62922509,-0.00567075,-0.02153233,0
 .02626354,0.00547223,-0.07092791,0.00565360,-0.07099195,0.37963065,-0.
 00114700,0.03549491,-0.03469126,0.05555028,0.00725504,-0.08917539,-0.0
 6064589,-0.17076014,0.36359944,-0.00732964,0.00994896,-0.00825008,-0.0
 2924434,0.00694151,0.00384285,-0.26756080,0.06302153,-0.00740544,0.677
 23767,0.01550651,-0.02467082,0.01901064,0.00597821,0.02225062,-0.01741
 464,0.06010111,-0.09196532,0.00980343,-0.03139639,0.41141193,-0.014224
 64,0.02041550,-0.01875094,0.00301952,-0.01758608,0.02454462,-0.0039101
 3,0.00919669,-0.07545991,-0.12457501,-0.28400537,0.46323834,-0.0498977
 2,0.02508709,-0.00973194,-0.00915566,-0.01456753,0.01691784,0.03466056
 ,-0.00745768,-0.00175939,-0.13560056,0.03932600,-0.01681065,0.69038680
 ,-0.00440397,0.03423142,-0.02865457,-0.00865328,-0.01681820,0.01700607
 ,0.03261490,-0.03541535,0.02882941,-0.01991296,-0.20823836,0.16190652,
 -0.12214259,0.43015850,0.02087500,-0.03707108,0.03836362,0.01128370,0.
 01962678,-0.02428565,-0.04398812,0.04009986,-0.02671450,0.04268466,0.1
 4338411,-0.22280137,-0.03789031,-0.27205368,0.42840202,-0.27216509,0.0
 5832479,0.00161350,0.03294357,0.05346100,-0.06053073,-0.05023588,0.008
 43896,0.00248531,0.02714484,-0.06198969,0.05565866,-0.27491578,0.01048
 107,0.05307553,0.62822521,0.11621416,-0.14041936,0.04667666,0.01304911
 ,-0.02424903,0.02555408,0.00791629,0.00113256,-0.00910469,-0.02329971,
 0.00118333,0.01055328,-0.04717137,-0.10348562,0.05642000,-0.07307053,0
 .43961476,-0.05912824,0.06366086,-0.11245596,-0.02201901,0.01486602,-0
 .00417264,0.00466996,-0.01019431,0.00235666,0.01753977,0.02233323,-0.0
 2257631,0.11226334,0.03923797,-0.13770083,-0.06910977,-0.29291560,0.46
 670456,-0.27326384,-0.04851576,0.12141347,0.00485865,0.00182139,-0.002
 01855,0.00159128,0.00089904,0.00116117,-0.00016344,0.00078781,-0.00099
 956,-0.00272767,0.00359743,-0.00093709,-0.01591338,-0.00663811,0.01291
 607,0.28511914,-0.04833037,-0.06151419,0.03709516,-0.01890482,0.000350
 57,0.00997413,0.00260686,0.00185936,0.00642464,-0.00012991,-0.00076024
 ,-0.00020599,0.00339178,0.00186775,0.00408425,0.01407567,0.00711134,-0
 .00759493,0.04983206,0.05498251,0.12134384,0.03699387,-0.11568446,0.01
 988290,0.00405348,-0.00558728,-0.00077349,0.00678891,0.00178484,-0.000
 15352,-0.00048882,-0.00047374,-0.00073551,0.00399779,0.00274538,-0.008
 82654,-0.00142612,0.00799882,-0.13021752,-0.04417885,0.11300997,0.0071
 9481,-0.00281240,0.00253063,-0.25493918,0.12242203,-0.06305629,-0.0163
 6841,0.01375625,-0.00827845,-0.00338448,-0.00101889,0.00346616,-0.0000
 9313,-0.00084194,0.00057051,0.00145648,0.00016801,0.00182505,0.0002274
 0,-0.00048590,-0.00099125,0.26438869,0.01755082,-0.00396572,0.00451595
 ,0.12239122,-0.11936749,0.04862690,-0.00627235,0.00621652,-0.00012150,
 -0.00076102,0.00210244,0.00290952,-0.00033832,-0.00058813,-0.00044102,
 -0.00015666,0.00180644,0.00655775,-0.00088993,-0.00165544,-0.00291019,
 -0.13185749,0.11643174,-0.01865228,0.01047025,-0.00001069,-0.06361335,
 0.04927762,-0.06975707,0.01302462,-0.00610750,0.00694764,0.00323786,0.
 00301163,0.00066084,0.00008011,-0.00029834,-0.00085031,0.00199687,0.00
 647702,0.00065741,-0.00055073,-0.00303577,-0.00133987,0.06691082,-0.05
 631624,0.06385878,0.00001956,0.00042320,-0.00079458,-0.00306585,0.0034
 8269,-0.00125103,-0.01631187,-0.00646729,0.01281223,-0.27248213,-0.051
 79958,0.12148043,0.00557588,0.00203647,-0.00210711,0.00152946,0.001506
 00,0.00036869,-0.00002187,-0.00019774,-0.00003154,-0.00082208,-0.00028
 532,0.00069929,0.28311008,0.00006203,-0.00093753,-0.00020259,0.0031563
 3,0.00066564,0.00325681,0.01335394,0.00692610,-0.00637901,-0.05163435,
 -0.06193453,0.04021238,-0.01837330,0.00136651,0.00942273,0.00173190,0.
 00128827,0.00666929,-0.00021421,-0.00033649,-0.00047741,0.00075322,0.0
 0047927,-0.00021675,0.05444428,0.05491579,-0.00028832,-0.00046429,-0.0
 0055211,-0.00099973,0.00319674,0.00175256,-0.00810517,0.00017136,0.006
 58861,0.12234383,0.03975565,-0.11508736,0.01890071,0.00375976,-0.00399
 177,0.00001885,0.00670467,0.00120917,-0.00003329,-0.00048213,-0.000340
 94,-0.00035869,0.00009161,0.00051624,-0.13120452,-0.04696885,0.1125315
 9,-0.00306108,-0.00071565,0.00358702,-0.00020208,-0.00105396,0.0007771
 9,0.00152037,0.00091098,0.00129527,0.00647759,-0.00267367,0.00232146,-
 0.25820074,0.12093904,-0.06218194,-0.01603017,0.01374419,-0.00846145,-
 0.00085987,0.00068424,-0.00045606,-0.00000461,-0.00002419,-0.00020574,
 0.00024240,-0.00054254,-0.00091619,0.26881538,-0.00051924,0.00310897,0
 .00371584,-0.00011411,-0.00047033,-0.00050832,-0.00054822,0.00243933,0
 .00690362,0.01823907,-0.00502111,0.00502502,0.12075026,-0.11909823,0.0
 4645087,-0.00721832,0.00735901,-0.00144685,-0.00038549,0.00018292,-0.0
 0009928,-0.00004328,-0.00036848,-0.00044735,-0.00093708,-0.00168386,-0
 .00297743,-0.12987845,0.11602595,0.00337859,0.00369149,0.00159960,-0.0
 0008959,-0.00023227,-0.00073759,0.00307223,0.00628450,0.00161645,-0.01
 952619,0.01136455,-0.00125069,-0.06213724,0.04624845,-0.07003167,0.013
 43239,-0.00755131,0.00781100,0.00064407,-0.00041865,0.00022281,-0.0002
 0576,-0.00044572,-0.00027639,-0.00048557,-0.00313971,-0.00147109,0.064
 47637,-0.05436432,0.06461398,0.00545386,0.01855269,-0.01928916,-0.0040
 0494,0.00339325,-0.00026609,-0.00128183,0.00013088,0.00007399,-0.00432
 174,0.00010572,0.00311717,0.00406481,-0.01869089,0.02006768,-0.0580949
 2,-0.00295855,0.00855800,0.00098991,-0.00127495,-0.00017650,0.00018873
 ,0.00081190,-0.00103283,0.00011166,-0.00103126,0.00087342,0.00110086,-
 0.00022705,-0.00123282,0.05547347,-0.00191761,-0.00428221,0.01097954,0
 .00360851,0.00304048,0.00278755,0.00016542,-0.00028804,-0.00026893,-0.
 00018115,0.00405356,0.00269507,0.00171799,0.00133629,0.00387775,-0.002
 84035,-0.18636438,0.15390041,-0.00085321,-0.00149589,-0.00225199,-0.00
 028844,-0.00058161,0.00022736,0.00005003,-0.00029559,-0.00013044,-0.00
 063638,-0.00164101,-0.00201660,0.00137920,0.18672310,0.00217212,0.0050
 4932,-0.00021288,-0.00068663,0.00289568,0.00395650,0.00017765,-0.00017
 787,-0.00033122,0.00347176,0.00238396,0.00301194,-0.00114674,0.0100559
 3,-0.00454832,0.00828343,0.15385004,-0.20392030,-0.00057714,-0.0021501
 6,-0.00146380,0.00006571,-0.00009272,-0.00037334,-0.00023032,0.0002094
 9,-0.00055956,-0.00078840,-0.00215097,-0.00126136,-0.01053861,-0.16927
 310,0.20580327,-0.00706354,0.00100220,0.00197964,0.00362966,-0.0299038
 8,0.03328172,-0.07746608,0.00317653,0.00342533,0.01084206,0.02488834,-
 0.02627413,-0.00327357,0.00515102,-0.00109815,-0.00211044,0.00009697,0
 .00047587,0.00019525,-0.00128943,0.00109114,0.00251297,-0.00031347,-0.
 00184068,0.00219511,-0.00171408,-0.00025254,0.00012418,0.00089508,-0.0
 0128581,0.00033689,-0.00020551,-0.00022233,0.07461474,-0.03090723,0.03
 815727,-0.02524686,-0.06830096,-0.04564686,0.07759390,0.00644481,-0.07
 201572,0.01703856,0.06170834,-0.07650603,0.07072811,0.03807899,0.02830
 460,-0.03376051,-0.00211756,-0.00903116,0.00938115,0.00151416,-0.00031
 335,-0.00061154,0.00159648,-0.00090944,-0.00260117,-0.00322678,-0.0004
 7231,-0.00214819,-0.00160092,-0.00021366,0.00018845,-0.00010046,0.0002
 3046,-0.00086570,0.00196238,0.16253671,0.01366101,-0.00845866,0.011188
 21,0.02715179,0.03868089,-0.04062126,0.00598742,0.09210648,-0.18528744
 ,-0.02379059,0.04156915,-0.02714222,-0.01188925,-0.00549577,0.01582106
 ,0.00122599,0.00363973,-0.00479982,-0.00049542,0.00055935,-0.00110224,
 -0.00213750,-0.00247139,0.00003753,0.00041610,-0.00252947,-0.00067670,
 0.00027058,0.00005708,-0.00093424,-0.00013680,-0.00039483,-0.00020499,
 -0.00402212,-0.06700881,0.31418677,0.00165377,-0.00123101,0.00145317,0
 .00428363,0.00231231,-0.00095522,-0.00142618,-0.01034135,0.00976021,-0
 .00410954,0.00356400,-0.00556333,-0.00303454,-0.00227926,0.00253818,0.
 00101106,0.00010103,-0.00052419,-0.00014834,-0.00012596,-0.00000729,-0
 .00031187,-0.00005279,0.00001084,0.00009365,0.00019630,0.00008535,0.00
 014025,0.00012514,0.00011186,0.00000055,-0.00002348,0.00004109,-0.0065
 2316,0.01350342,-0.00478927,0.01888004,0.02698441,-0.03027709,0.025001
 98,0.05639997,0.03077687,-0.04796620,-0.00842514,-0.14848653,0.1405404
 1,-0.05196765,0.04780091,-0.03457990,-0.02973293,-0.02251988,0.0319657
 5,0.00163040,0.00576570,-0.00677114,-0.00158187,-0.00060050,0.00096622
 ,-0.00178290,0.00033991,-0.00039417,0.00159652,-0.00001389,-0.00070116
 ,0.00137243,-0.00106522,0.00058637,-0.00009308,-0.00064045,0.00051882,
 0.00766968,0.14037102,-0.07896240,-0.01202576,-0.10187236,0.01721357,-
 0.01995161,0.01529472,0.03562621,0.02057181,-0.03139698,-0.00404372,-0
 .05532974,0.09044198,-0.03231406,0.03168280,-0.02331519,-0.01975643,-0
 .01514989,0.02004331,0.00131909,0.00369442,-0.00426551,-0.00104030,-0.
 00037018,0.00067283,-0.00090462,0.00045608,0.00003217,0.00110644,0.000
 20044,-0.00012439,0.00092466,-0.00062446,0.00036236,-0.00003495,-0.000
 38325,0.00039393,0.00533124,0.10845785,-0.08114127,-0.00906820,-0.1363
 2421,0.00089716,-0.00138710,0.00191425,-0.00136830,-0.00286282,-0.0030
 3529,0.00103820,0.00108930,0.00520539,-0.00712113,0.00277286,-0.000759
 88,0.00283946,0.00102092,0.00047207,-0.00121687,0.00064294,-0.00034639
 ,0.00018908,0.00008684,0.00011935,0.00003357,0.00004520,0.00017969,0.0
 0012036,-0.00011198,-0.00009403,-0.00004127,-0.00010480,-0.00006932,-0
 .00014374,0.00001099,0.00004536,-0.00000704,0.00171174,-0.01974441,-0.
 00120686,-0.01056379,0.01211517,0.00850964,0.04380525,0.00474586,-0.00
 530668,0.00459119,0.00839234,0.00487127,-0.00721043,-0.00192285,-0.016
 21115,0.00013059,-0.00720953,0.00805716,-0.00454322,-0.00564458,-0.004
 40207,0.00656353,0.00095241,0.00098776,-0.00152903,-0.00034966,-0.0001
 9285,0.00024044,-0.00042642,-0.00001057,-0.00020748,0.00031683,-0.0001
 0170,-0.00027900,0.00027475,-0.00030294,0.00015082,-0.00002692,-0.0001
 6232,0.00007478,-0.00574503,-0.06030797,-0.03599736,-0.00076450,-0.019
 21750,0.01236195,0.01232156,0.18624365,-0.03290633,0.03733508,-0.03035
 506,-0.06557094,-0.03589812,0.05503052,0.00831475,0.13202189,-0.147611
 35,0.05921191,-0.05590285,0.03844952,0.03661524,0.02779073,-0.03854603
 ,-0.00206552,-0.00623946,0.00735699,0.00210222,0.00093505,-0.00147175,
 0.00203247,-0.00062202,0.00046403,-0.00199983,-0.00011263,0.00079719,-
 0.00182169,0.00155829,-0.00087484,0.00010914,0.00080741,-0.00070078,-0
 .01581878,-0.29855389,0.04457238,0.01628609,0.24230055,0.13011201,-0.0
 2331605,-0.10383483,0.10727909,-0.00207238,0.00166076,-0.00146511,-0.0
 0691412,-0.00263614,0.00484363,0.00078247,0.01142823,-0.01393244,0.005
 85486,-0.00640686,0.00416045,0.00510244,0.00466094,-0.00584994,-0.0037
 1161,0.00004810,0.00122790,0.00026147,0.00013154,-0.00017741,0.0003077
 5,-0.00011543,0.00002519,-0.00025882,-0.00009714,0.00009321,-0.0001634
 0,0.00011127,-0.00012466,-0.00000837,0.00007782,-0.00008267,-0.0004769
 0,-0.02110219,0.00741442,0.00107577,0.01992315,0.01109534,-0.05085350,
 -0.00347174,-0.00101653,0.51342894,-0.01437619,0.01608841,-0.01333554,
 -0.03023623,-0.01813603,0.02406874,0.00364522,0.05846417,-0.06504031,0
 .02628924,-0.02730092,0.01744571,0.01738464,0.01362327,-0.01899851,-0.
 00266942,-0.00248075,0.00399620,0.00097309,0.00050162,-0.00055090,0.00
 110677,-0.00001859,0.00036924,-0.00091351,0.00008736,0.00044407,-0.000
 78273,0.00066343,-0.00038024,0.00004128,0.00034478,-0.00030243,-0.0078
 3765,-0.10394314,0.02484040,0.00832905,0.09948114,0.05158237,0.0139762
 6,-0.08815077,0.04075239,-0.02226416,0.06572297,0.02167964,-0.02450631
 ,0.02026611,0.04182196,0.02238134,-0.03526168,-0.00468889,-0.07741432,
 0.08939136,-0.03781452,0.03485426,-0.02368780,-0.02356086,-0.01763372,
 0.02470376,0.00083082,0.00390084,-0.00426384,-0.00142394,-0.00066552,0
 .00110015,-0.00128205,0.00034236,-0.00045234,0.00127374,0.00004211,-0.
 00062235,0.00123883,-0.00117347,0.00062808,-0.00008991,-0.00059304,0.0
 0044136,0.00430740,0.15281304,-0.04563147,-0.01023463,-0.14353300,-0.1
 1995216,-0.01585973,0.11898739,-0.12585420,-0.09310260,-0.07836474,0.2
 7705101,0.00341566,-0.00412614,0.00333765,0.00639029,0.00322884,-0.006
 13945,-0.00054678,-0.01151102,0.01372593,-0.00613320,0.00578727,-0.003
 70587,-0.00391205,-0.00302806,0.00417428,0.00022371,0.00064080,-0.0007
 9106,-0.00023152,-0.00010241,0.00019518,-0.00039828,0.00013333,-0.0002
 1036,0.00019682,0.00000293,-0.00011565,0.00020571,-0.00018025,0.000115
 87,-0.00001993,-0.00009820,0.00006812,0.00075110,0.02229192,-0.0076595
 0,-0.00102129,-0.02208240,-0.01396392,0.01469796,-0.00144252,0.0198438
 3,-0.46235459,0.00733433,0.11690474,0.44873641,-0.00049830,0.00060148,
 -0.00026812,-0.00031698,0.00011818,-0.00004734,0.00032950,0.00017369,-
 0.00074602,0.00034401,-0.00046265,-0.00016723,-0.00030844,-0.00032253,
 0.00042916,0.00096633,-0.00021887,-0.00015103,0.00000326,0.00001288,-0
 .00004561,-0.00024510,0.00008915,-0.00020834,-0.00002872,0.00004695,0.
 00002763,-0.00001716,0.00008523,0.00003421,-0.00001175,0.00002283,-0.0
 0002507,0.00216684,-0.00024042,-0.00013438,-0.00128715,0.00015788,-0.0
 0087438,-0.02229978,-0.00579330,0.01766240,0.01805185,-0.01494695,0.01
 056279,0.00315159,0.02067646,-0.00110694,0.00143070,-0.00104038,-0.001
 93074,-0.00166130,0.00082476,0.00011235,0.00139705,-0.00345591,0.00149
 677,-0.00134172,0.00064025,0.00064107,0.00045335,-0.00060870,0.0005921
 3,-0.00023354,0.00006060,0.00005653,0.00002960,-0.00007071,-0.00018674
 ,-0.00007935,-0.00011464,-0.00005243,0.00001318,0.00003093,-0.00005991
 ,0.00008172,-0.00001642,-0.00000173,0.00003707,-0.00003043,0.00092220,
 -0.00540438,0.00173570,0.00085534,0.00735209,0.00194504,0.03755067,0.0
 1050066,-0.03864772,0.08689124,0.01347355,-0.05785599,-0.12577980,-0.0
 2604867,0.09660363||0.00000665,0.00001110,0.00002076,-0.00001625,-0.00
 004696,-0.00004813,0.00003172,-0.00000655,0.00002957,-0.00000625,-0.00
 002426,-0.00001387,-0.00000317,0.00002026,0.00002733,-0.00002531,-0.00
 001644,-0.00001200,-0.00000909,0.00000074,-0.00001712,0.00001047,0.000
 01943,-0.00000304,0.00000133,-0.00000030,0.00001718,-0.00001268,-0.000
 01235,0.00000816,-0.00001285,0.00002458,0.00002201,0.00000469,0.000039
 77,-0.00002131,0.00000277,-0.00007101,-0.00002539,0.00001698,0.0000296
 5,0.00005430,0.00001828,0.00003385,-0.00002537,-0.00000731,-0.00000152
 ,-0.00001309|||@


 NEVER TEACH A PIG TO SING.
 IT WASTES YOUR TIME AND ANNOYS THE PIG.
     -- SEEN ON A GREETING CARD
 Job cpu time:  0 days  0 hours 14 minutes 42.0 seconds.
 File lengths (MBytes):  RWF=    179 Int=      0 D2E=      0 Chk=     10 Scr=      1
 Normal termination of Gaussian 09 at Wed Jan 20 07:55:03 2021.
