 Entering Link 1 = C:\G09W\l1.exe PID=     17608.
  
 Copyright (c) 1988,1990,1992,1993,1995,1998,2003,2009, Gaussian, Inc.
                  All Rights Reserved.
  
 This is part of the Gaussian(R) 09 program.  It is based on
 the Gaussian(R) 03 system (copyright 2003, Gaussian, Inc.),
 the Gaussian(R) 98 system (copyright 1998, Gaussian, Inc.),
 the Gaussian(R) 94 system (copyright 1995, Gaussian, Inc.),
 the Gaussian 92(TM) system (copyright 1992, Gaussian, Inc.),
 the Gaussian 90(TM) system (copyright 1990, Gaussian, Inc.),
 the Gaussian 88(TM) system (copyright 1988, Gaussian, Inc.),
 the Gaussian 86(TM) system (copyright 1986, Carnegie Mellon
 University), and the Gaussian 82(TM) system (copyright 1983,
 Carnegie Mellon University). Gaussian is a federally registered
 trademark of Gaussian, Inc.
  
 This software contains proprietary and confidential information,
 including trade secrets, belonging to Gaussian, Inc.
  
 This software is provided under written license and may be
 used, copied, transmitted, or stored only in accord with that
 written license.
  
 The following legend is applicable only to US Government
 contracts under FAR:
  
                    RESTRICTED RIGHTS LEGEND
  
 Use, reproduction and disclosure by the US Government is
 subject to restrictions as set forth in subparagraphs (a)
 and (c) of the Commercial Computer Software - Restricted
 Rights clause in FAR 52.227-19.
  
 Gaussian, Inc.
 340 Quinnipiac St., Bldg. 40, Wallingford CT 06492
  
  
 ---------------------------------------------------------------
 Warning -- This program may not be used in any manner that
 competes with the business of Gaussian, Inc. or will provide
 assistance to any competitor of Gaussian, Inc.  The licensee
 of this program is prohibited from giving any competitor of
 Gaussian, Inc. access to this program.  By using this program,
 the user acknowledges that Gaussian, Inc. is engaged in the
 business of creating and licensing software in the field of
 computational chemistry and represents and warrants to the
 licensee that it is not a competitor of Gaussian, Inc. and that
 it will not use this program in any manner prohibited above.
 ---------------------------------------------------------------
  

 Cite this work as:
 Gaussian 09, Revision A.02,
 M. J. Frisch, G. W. Trucks, H. B. Schlegel, G. E. Scuseria, 
 M. A. Robb, J. R. Cheeseman, G. Scalmani, V. Barone, B. Mennucci, 
 G. A. Petersson, H. Nakatsuji, M. Caricato, X. Li, H. P. Hratchian, 
 A. F. Izmaylov, J. Bloino, G. Zheng, J. L. Sonnenberg, M. Hada, 
 M. Ehara, K. Toyota, R. Fukuda, J. Hasegawa, M. Ishida, T. Nakajima, 
 Y. Honda, O. Kitao, H. Nakai, T. Vreven, J. A. Montgomery, Jr., 
 J. E. Peralta, F. Ogliaro, M. Bearpark, J. J. Heyd, E. Brothers, 
 K. N. Kudin, V. N. Staroverov, R. Kobayashi, J. Normand, 
 K. Raghavachari, A. Rendell, J. C. Burant, S. S. Iyengar, J. Tomasi, 
 M. Cossi, N. Rega, J. M. Millam, M. Klene, J. E. Knox, J. B. Cross, 
 V. Bakken, C. Adamo, J. Jaramillo, R. Gomperts, R. E. Stratmann, 
 O. Yazyev, A. J. Austin, R. Cammi, C. Pomelli, J. W. Ochterski, 
 R. L. Martin, K. Morokuma, V. G. Zakrzewski, G. A. Voth, 
 P. Salvador, J. J. Dannenberg, S. Dapprich, A. D. Daniels, 
 O. Farkas, J. B. Foresman, J. V. Ortiz, J. Cioslowski, 
 and D. J. Fox, Gaussian, Inc., Wallingford CT, 2009.
 
 ******************************************
 Gaussian 09:  IA32W-G09RevA.02 11-Jun-2009
                08-Oct-2020 
 ******************************************
 %chk=C:\Users\sagad\Documents\rayGit\FQ\quimicaComputacional\class4Metilo\produc
 tos\methylRadicalM062X.chk
 %nprocshared=4
 Will use up to    4 processors via shared memory.
 %mem=1500MB
 ---------------------------
 #opt freq M062X/6-31+g(d,p)
 ---------------------------
 1/14=-1,18=20,19=15,26=3,38=1/1,3;
 2/9=110,12=2,17=6,18=5,40=1/2;
 3/5=1,6=6,7=111,11=2,16=1,25=1,30=1,71=1,74=-55/1,2,3;
 4//1;
 5/5=2,38=5/2;
 6/7=2,8=2,9=2,10=2,28=1/1;
 7//1,2,3,16;
 1/14=-1,18=20,19=15/3(2);
 2/9=110/2;
 99//99;
 2/9=110/2;
 3/5=1,6=6,7=111,11=2,16=1,25=1,30=1,71=1,74=-55/1,2,3;
 4/5=5,16=3/1;
 5/5=2,38=5/2;
 7//1,2,3,16;
 1/14=-1,18=20,19=15/3(-5);
 2/9=110/2;
 6/7=2,8=2,9=2,10=2,19=2,28=1/1;
 99/9=1/99;
 ----------------------------------------
 Calculation of methyl radical with M062X
 ----------------------------------------
 Symbolic Z-matrix:
 Charge =  0 Multiplicity = 2
 C                    -2.25517  -0.05327  -0.87365 
 H                    -1.89851  -1.06208  -0.87365 
 H                    -1.8985    0.45113   0. 
 H                    -1.8985    0.45113  -1.7473 
 

 GradGradGradGradGradGradGradGradGradGradGradGradGradGradGradGradGradGrad
 Berny optimization.
 Initialization pass.
                           ----------------------------
                           !    Initial Parameters    !
                           ! (Angstroms and Degrees)  !
 --------------------------                            --------------------------
 ! Name  Definition              Value          Derivative Info.                !
 --------------------------------------------------------------------------------
 ! R1    R(1,2)                  1.07           estimate D2E/DX2                !
 ! R2    R(1,3)                  1.07           estimate D2E/DX2                !
 ! R3    R(1,4)                  1.07           estimate D2E/DX2                !
 ! A1    A(2,1,3)              109.4712         estimate D2E/DX2                !
 ! A2    A(2,1,4)              109.4712         estimate D2E/DX2                !
 ! A3    A(3,1,4)              109.4713         estimate D2E/DX2                !
 ! D1    D(2,1,4,3)           -120.0            estimate D2E/DX2                !
 --------------------------------------------------------------------------------
 Trust Radius=3.00D-01 FncErr=1.00D-07 GrdErr=1.00D-06
 Number of steps in this run=  20 maximum allowed number of steps= 100.
 GradGradGradGradGradGradGradGradGradGradGradGradGradGradGradGradGradGrad

                          Input orientation:                          
 ---------------------------------------------------------------------
 Center     Atomic      Atomic             Coordinates (Angstroms)
 Number     Number       Type             X           Y           Z
 ---------------------------------------------------------------------
      1          6           0       -2.255169   -0.053270   -0.873652
      2          1           0       -1.898515   -1.062080   -0.873652
      3          1           0       -1.898496    0.451128    0.000000
      4          1           0       -1.898496    0.451128   -1.747303
 ---------------------------------------------------------------------
                    Distance matrix (angstroms):
                    1          2          3          4
     1  C    0.000000
     2  H    1.070000   0.000000
     3  H    1.070000   1.747302   0.000000
     4  H    1.070000   1.747302   1.747303   0.000000
 Stoichiometry    CH3(2)
 Framework group  C3V[C3(C),3SGV(H)]
 Deg. of freedom     2
 Full point group                 C3V     NOp   6
 Largest Abelian subgroup         CS      NOp   2
 Largest concise Abelian subgroup CS      NOp   2
                         Standard orientation:                         
 ---------------------------------------------------------------------
 Center     Atomic      Atomic             Coordinates (Angstroms)
 Number     Number       Type             X           Y           Z
 ---------------------------------------------------------------------
      1          6           0        0.000000    0.000000    0.118889
      2          1           0        0.000000    1.008806   -0.237778
      3          1           0       -0.873651   -0.504403   -0.237778
      4          1           0        0.873651   -0.504403   -0.237778
 ---------------------------------------------------------------------
 Rotational constants (GHZ):    273.8152949    273.8152949    164.2463825
 Standard basis: 6-31+G(d,p) (6D, 7F)
 There are    23 symmetry adapted basis functions of A'  symmetry.
 There are    11 symmetry adapted basis functions of A"  symmetry.
 Integral buffers will be    262144 words long.
 Raffenetti 2 integral format.
 Two-electron integral symmetry is turned on.
    34 basis functions,    53 primitive gaussians,    34 cartesian basis functions
     5 alpha electrons        4 beta electrons
       nuclear repulsion energy         9.8106085219 Hartrees.
 NAtoms=    4 NActive=    4 NUniq=    2 SFac= 3.00D+00 NAtFMM=   80 NAOKFM=F Big=F
 One-electron integrals computed using PRISM.
 NBasis=    34 RedAO= T  NBF=    23    11
 NBsUse=    34 1.00D-06 NBFU=    23    11
 Harris functional with IExCor= 1009 diagonalized for initial guess.
 ExpMin= 4.38D-02 ExpMax= 3.05D+03 ExpMxC= 4.57D+02 IAcc=2 IRadAn=         0 AccDes= 0.00D+00
 HarFok:  IExCor= 1009 AccDes= 0.00D+00 IRadAn=         0 IDoV= 1
 ScaDFX=  1.000000  1.000000  1.000000  1.000000
 FoFCou: FMM=F IPFlag=           0 FMFlag=      100000 FMFlg1=           0
         NFxFlg=           0 DoJE=T BraDBF=F KetDBF=T FulRan=T
         Omega=  0.000000  0.000000  1.000000  0.000000  0.000000 ICntrl=     500 IOpCl=  0
         NMat0=    1 NMatS0=    1 NMatT0=    0 NMatD0=    1 NMtDS0=    0 NMtDT0=    0
         I1Cent=           4 NGrid=           0.
 Petite list used in FoFCou.
 Initial guess orbital symmetries:
 Alpha Orbitals:
       Occupied  (A1) (A1) (E) (E) (A1)
       Virtual   (A1) (E) (E) (A1) (E) (E) (A1) (E) (E) (A1) (E)
                 (E) (A1) (A1) (E) (E) (A1) (A2) (E) (E) (E) (E)
                 (A1) (E) (E) (A1) (E) (E) (A1)
 Beta  Orbitals:
       Occupied  (A1) (A1) (E) (E)
       Virtual   (A1) (A1) (E) (E) (A1) (E) (E) (A1) (E) (E) (A1)
                 (E) (E) (A1) (A1) (E) (E) (A1) (A2) (E) (E) (E)
                 (E) (A1) (E) (E) (A1) (E) (E) (A1)
 The electronic state of the initial guess is 2-A1.
 Initial guess <Sx>= 0.0000 <Sy>= 0.0000 <Sz>= 0.5000 <S**2>= 0.7500 S= 0.5000
 Requested convergence on RMS density matrix=1.00D-08 within 128 cycles.
 Requested convergence on MAX density matrix=1.00D-06.
 Requested convergence on             energy=1.00D-06.
 No special actions if energy rises.
 Keep R1 and R2 ints in memory in canonical form, NReq=1265908.
 SCF Done:  E(UM062X) =  -39.8013771907     A.U. after   10 cycles
             Convg  =    0.4805D-08             -V/T =  2.0071
 <Sx>= 0.0000 <Sy>= 0.0000 <Sz>= 0.5000 <S**2>= 0.7536 S= 0.5018
 <L.S>= 0.000000000000E+00
 Annihilation of the first spin contaminant:
 S**2 before annihilation     0.7536,   after     0.7500

 **********************************************************************

            Population analysis using the SCF density.

 **********************************************************************

 Orbital symmetries:
 Alpha Orbitals:
       Occupied  (A1) (A1) (E) (E) (A1)
       Virtual   (A1) (E) (E) (A1) (E) (E) (A1) (E) (E) (A1) (A1)
                 (E) (E) (A1) (E) (E) (A1) (A2) (E) (E) (E) (E)
                 (A1) (E) (E) (A1) (E) (E) (A1)
 Beta  Orbitals:
       Occupied  (A1) (A1) (E) (E)
       Virtual   (A1) (A1) (E) (E) (A1) (E) (E) (A1) (E) (E) (A1)
                 (A1) (E) (E) (A1) (E) (E) (A1) (A2) (E) (E) (E)
                 (E) (A1) (E) (E) (A1) (E) (E) (A1)
 The electronic state is 2-A1.
 Alpha  occ. eigenvalues --  -10.55912  -0.78982  -0.47895  -0.47895  -0.32016
 Alpha virt. eigenvalues --    0.04695   0.07231   0.07231   0.09587   0.23409
 Alpha virt. eigenvalues --    0.23409   0.28284   0.67151   0.67151   0.69600
 Alpha virt. eigenvalues --    0.92521   0.97490   0.97490   1.10079   1.44753
 Alpha virt. eigenvalues --    1.44753   1.80303   2.08498   2.14322   2.14322
 Alpha virt. eigenvalues --    2.35584   2.35584   2.63890   2.85059   2.85059
 Alpha virt. eigenvalues --    3.22139   3.42563   3.42563   4.26857
  Beta  occ. eigenvalues --  -10.54986  -0.74845  -0.46375  -0.46375
  Beta virt. eigenvalues --   -0.05202   0.03462   0.07269   0.07269   0.13558
  Beta virt. eigenvalues --    0.24305   0.24305   0.28913   0.67927   0.67927
  Beta virt. eigenvalues --    0.73876   0.93885   0.99166   0.99166   1.11841
  Beta virt. eigenvalues --    1.49190   1.49190   1.88915   2.09707   2.16562
  Beta virt. eigenvalues --    2.16562   2.38412   2.38412   2.67520   2.87942
  Beta virt. eigenvalues --    2.87942   3.25692   3.46053   3.46053   4.31754
          Condensed to atoms (all electrons):
              1          2          3          4
     1  C    5.303833   0.386709   0.386709   0.386709
     2  H    0.386709   0.525266  -0.033314  -0.033314
     3  H    0.386709  -0.033314   0.525266  -0.033314
     4  H    0.386709  -0.033314  -0.033314   0.525266
 Mulliken atomic charges:
              1
     1  C   -0.463960
     2  H    0.154653
     3  H    0.154653
     4  H    0.154653
 Sum of Mulliken atomic charges =   0.00000
 Mulliken charges with hydrogens summed into heavy atoms:
              1
     1  C    0.000000
 Sum of Mulliken charges with hydrogens summed into heavy atoms =   0.00000
          Atomic-Atomic Spin Densities.
              1          2          3          4
     1  C    1.145708  -0.011020  -0.011020  -0.011020
     2  H   -0.011020  -0.034188   0.003829   0.003829
     3  H   -0.011020   0.003829  -0.034188   0.003829
     4  H   -0.011020   0.003829   0.003829  -0.034188
 Mulliken atomic spin densities:
              1
     1  C    1.112649
     2  H   -0.037550
     3  H   -0.037550
     4  H   -0.037550
 Sum of Mulliken atomic spin densities =   1.00000
 Electronic spatial extent (au):  <R**2>=             29.6079
 Charge=              0.0000 electrons
 Dipole moment (field-independent basis, Debye):
    X=              0.0000    Y=              0.0000    Z=             -0.6973  Tot=              0.6973
 Quadrupole moment (field-independent basis, Debye-Ang):
   XX=             -7.6174   YY=             -7.6174   ZZ=             -8.7022
   XY=              0.0000   XZ=              0.0000   YZ=              0.0000
 Traceless Quadrupole moment (field-independent basis, Debye-Ang):
   XX=              0.3616   YY=              0.3616   ZZ=             -0.7232
   XY=              0.0000   XZ=              0.0000   YZ=              0.0000
 Octapole moment (field-independent basis, Debye-Ang**2):
  XXX=              0.0000  YYY=              0.5598  ZZZ=             -1.2482  XYY=              0.0000
  XXY=             -0.5598  XXZ=             -0.7140  XZZ=              0.0000  YZZ=              0.0000
  YYZ=             -0.7140  XYZ=              0.0000
 Hexadecapole moment (field-independent basis, Debye-Ang**3):
 XXXX=            -15.2683 YYYY=            -15.2683 ZZZZ=            -12.9641 XXXY=              0.0000
 XXXZ=              0.0000 YYYX=              0.0000 YYYZ=             -0.2691 ZZZX=              0.0000
 ZZZY=              0.0000 XXYY=             -5.0894 XXZZ=             -4.7839 YYZZ=             -4.7839
 XXYZ=              0.2691 YYXZ=              0.0000 ZZXY=              0.0000
 N-N= 9.810608521898D+00 E-N=-1.640090996119D+02  KE= 5.863857173222D+01
 Symmetry A'   KE= 5.569028428700D+01
 Symmetry A"   KE= 2.948287445217D+00
                          Isotropic Fermi Contact Couplings
        Atom                 a.u.       MegaHertz       Gauss      10(-4) cm-1
     1  C(13)              0.40205     451.98430     161.27923     150.76574
     2  H(1)              -0.00732     -32.74008     -11.68247     -10.92091
     3  H(1)              -0.00732     -32.74008     -11.68247     -10.92091
     4  H(1)              -0.00732     -32.74008     -11.68247     -10.92091
 --------------------------------------------------------
       Center         ----  Spin Dipole Couplings  ----
                      3XX-RR        3YY-RR        3ZZ-RR
 --------------------------------------------------------
     1   Atom       -0.452457     -0.452457      0.904915
     2   Atom       -0.065625      0.061913      0.003712
     3   Atom        0.030029     -0.033741      0.003712
     4   Atom        0.030029     -0.033741      0.003712
 --------------------------------------------------------
                        XY            XZ            YZ
 --------------------------------------------------------
     1   Atom        0.000000      0.000000      0.000000
     2   Atom        0.000000      0.000000     -0.033037
     3   Atom        0.055226      0.028611      0.016519
     4   Atom       -0.055226     -0.028611      0.016519
 --------------------------------------------------------


 ---------------------------------------------------------------------------------
              Anisotropic Spin Dipole Couplings in Principal Axis System
 ---------------------------------------------------------------------------------

       Atom             a.u.   MegaHertz   Gauss  10(-4) cm-1        Axes

              Baa    -0.4525   -60.715   -21.665   -20.252 -0.6151  0.7884  0.0000
     1 C(13)  Bbb    -0.4525   -60.715   -21.665   -20.252  0.7884  0.6151  0.0000
              Bcc     0.9049   121.431    43.330    40.505  0.0000  0.0000  1.0000
 
              Baa    -0.0656   -35.015   -12.494   -11.680  1.0000  0.0000  0.0000
     2 H(1)   Bbb    -0.0112    -5.983    -2.135    -1.996  0.0000  0.4117  0.9113
              Bcc     0.0768    40.998    14.629    13.675  0.0000  0.9113 -0.4117
 
              Baa    -0.0656   -35.015   -12.494   -11.680 -0.5000  0.8660  0.0000
     3 H(1)   Bbb    -0.0112    -5.983    -2.135    -1.996 -0.3566 -0.2059  0.9113
              Bcc     0.0768    40.998    14.629    13.675  0.7892  0.4557  0.4117
 
              Baa    -0.0656   -35.015   -12.494   -11.680  0.5000  0.8660  0.0000
     4 H(1)   Bbb    -0.0112    -5.983    -2.135    -1.996  0.3566 -0.2059  0.9113
              Bcc     0.0768    40.998    14.629    13.675  0.7892 -0.4557 -0.4117
 

 ---------------------------------------------------------------------------------

 Calling FoFJK, ICntrl=      2127 FMM=F ISym2X=1 I1Cent= 0 IOpClX= 1 NMat=1 NMatS=1 NMatT=0.
 ***** Axes restored to original set *****
 -------------------------------------------------------------------
 Center     Atomic                   Forces (Hartrees/Bohr)
 Number     Number              X              Y              Z
 -------------------------------------------------------------------
      1        6           0.028540206   -0.000000344    0.000000000
      2        1          -0.009513620   -0.018106484   -0.000000002
      3        1          -0.009513293    0.009053413    0.015680775
      4        1          -0.009513293    0.009053416   -0.015680774
 -------------------------------------------------------------------
 Cartesian Forces:  Max     0.028540206 RMS     0.013132671

 GradGradGradGradGradGradGradGradGradGradGradGradGradGradGradGradGradGrad
 Berny optimization.
 Internal  Forces:  Max     0.022866867 RMS     0.015314567
 Search for a local minimum.
 Step number   1 out of a maximum of   20
 All quantities printed in internal units (Hartrees-Bohrs-Radians)
 Mixed Optimization -- RFO/linear search
 Second derivative matrix not updated -- first step.
 The second derivative matrix:
                          R1        R2        R3        A1        A2
           R1           0.37230
           R2           0.00000   0.37230
           R3           0.00000   0.00000   0.37230
           A1           0.00000   0.00000   0.00000   0.16000
           A2           0.00000   0.00000   0.00000   0.00000   0.16000
           A3           0.00000   0.00000   0.00000   0.00000   0.00000
           D1           0.00000   0.00000   0.00000   0.00000   0.00000
                          A3        D1
           A3           0.16000
           D1           0.00000   0.00499
     Eigenvalues ---    0.05269   0.16000   0.16000   0.37230   0.37230
     Eigenvalues ---    0.372301000.00000
 RFO step:  Lambda=-1.44985824D-02 EMin= 5.26880928D-02
 Linear search not attempted -- first point.
 Maximum step size (   0.300) exceeded in Quadratic search.
    -- Step size scaled by   0.705
 Iteration  1 RMS(Cart)=  0.07574915 RMS(Int)=  0.01692035
 Iteration  2 RMS(Cart)=  0.00733864 RMS(Int)=  0.01053092
 Iteration  3 RMS(Cart)=  0.00022450 RMS(Int)=  0.01052775
 Iteration  4 RMS(Cart)=  0.00000438 RMS(Int)=  0.01052775
 Iteration  5 RMS(Cart)=  0.00000010 RMS(Int)=  0.01052775
 ClnCor:  largest displacement from symmetrization is 1.09D-02 for atom     4.
 Variable       Old X    -DE/DX   Delta X   Delta X   Delta X     New X
                                 (Linear)    (Quad)   (Total)
    R1        2.02201   0.01390   0.00000   0.02532   0.02205   2.04406
    R2        2.02201   0.01390   0.00000   0.02532   0.02205   2.04406
    R3        2.02201   0.01390   0.00000   0.02532   0.02205   2.04406
    A1        1.91063   0.00233   0.00000   0.08970   0.08559   1.99622
    A2        1.91063   0.01634   0.00000   0.10611   0.08559   1.99622
    A3        1.91063   0.01634   0.00000   0.10611   0.08559   1.99622
    D1       -2.09440  -0.02287   0.00000  -0.23982  -0.25563  -2.35003
         Item               Value     Threshold  Converged?
 Maximum Force            0.022867     0.000450     NO 
 RMS     Force            0.015315     0.000300     NO 
 Maximum Displacement     0.136300     0.001800     NO 
 RMS     Displacement     0.077906     0.001200     NO 
 Predicted change in Energy=-7.568550D-03
 GradGradGradGradGradGradGradGradGradGradGradGradGradGradGradGradGradGrad

                          Input orientation:                          
 ---------------------------------------------------------------------
 Center     Atomic      Atomic             Coordinates (Angstroms)
 Number     Number       Type             X           Y           Z
 ---------------------------------------------------------------------
      1          6           0       -2.183042   -0.053271   -0.873652
      2          1           0       -1.922119   -1.103000   -0.873652
      3          1           0       -1.922100    0.471588    0.035438
      4          1           0       -1.922100    0.471588   -1.782741
 ---------------------------------------------------------------------
                    Distance matrix (angstroms):
                    1          2          3          4
     1  C    0.000000
     2  H    1.081671   0.000000
     3  H    1.081671   1.818178   0.000000
     4  H    1.081671   1.818178   1.818178   0.000000
 Stoichiometry    CH3(2)
 Framework group  C3V[C3(C),3SGV(H)]
 Deg. of freedom     2
 Full point group                 C3V     NOp   6
 Largest Abelian subgroup         CS      NOp   2
 Largest concise Abelian subgroup CS      NOp   2
                         Standard orientation:                         
 ---------------------------------------------------------------------
 Center     Atomic      Atomic             Coordinates (Angstroms)
 Number     Number       Type             X           Y           Z
 ---------------------------------------------------------------------
      1          6           0        0.000000    0.000000    0.086979
      2          1           0        0.000000    1.049726   -0.173957
      3          1           0       -0.909089   -0.524863   -0.173957
      4          1           0        0.909089   -0.524863   -0.173957
 ---------------------------------------------------------------------
 Rotational constants (GHZ):    276.1254058    276.1254058    151.6907628
 Standard basis: 6-31+G(d,p) (6D, 7F)
 There are    23 symmetry adapted basis functions of A'  symmetry.
 There are    11 symmetry adapted basis functions of A"  symmetry.
 Integral buffers will be    262144 words long.
 Raffenetti 2 integral format.
 Two-electron integral symmetry is turned on.
    34 basis functions,    53 primitive gaussians,    34 cartesian basis functions
     5 alpha electrons        4 beta electrons
       nuclear repulsion energy         9.6791410279 Hartrees.
 NAtoms=    4 NActive=    4 NUniq=    2 SFac= 3.00D+00 NAtFMM=   80 NAOKFM=F Big=F
 One-electron integrals computed using PRISM.
 NBasis=    34 RedAO= T  NBF=    23    11
 NBsUse=    34 1.00D-06 NBFU=    23    11
 Initial guess read from the read-write file.
 B after Tr=     0.000000    0.000000    0.000000
         Rot=    1.000000    0.000000    0.000000    0.000000 Ang=   0.00 deg.
 Initial guess orbital symmetries:
 Alpha Orbitals:
       Occupied  (A1) (A1) (E) (E) (A1)
       Virtual   (A1) (E) (E) (A1) (E) (E) (A1) (E) (E) (A1) (A1)
                 (E) (E) (A1) (E) (E) (A1) (A2) (E) (E) (E) (E)
                 (A1) (E) (E) (A1) (E) (E) (A1)
 Beta  Orbitals:
       Occupied  (A1) (A1) (E) (E)
       Virtual   (A1) (A1) (E) (E) (A1) (E) (E) (A1) (E) (E) (A1)
                 (A1) (E) (E) (A1) (E) (E) (A1) (A2) (E) (E) (E)
                 (E) (A1) (E) (E) (A1) (E) (E) (A1)
 Initial guess <Sx>= 0.0000 <Sy>= 0.0000 <Sz>= 0.5000 <S**2>= 0.7537 S= 0.5019
 Harris functional with IExCor= 1009 diagonalized for initial guess.
 ExpMin= 4.38D-02 ExpMax= 3.05D+03 ExpMxC= 4.57D+02 IAcc=2 IRadAn=         0 AccDes= 0.00D+00
 HarFok:  IExCor= 1009 AccDes= 0.00D+00 IRadAn=         0 IDoV= 1
 ScaDFX=  1.000000  1.000000  1.000000  1.000000
 FoFCou: FMM=F IPFlag=           0 FMFlag=      100000 FMFlg1=           0
         NFxFlg=           0 DoJE=T BraDBF=F KetDBF=T FulRan=T
         Omega=  0.000000  0.000000  1.000000  0.000000  0.000000 ICntrl=     500 IOpCl=  0
         NMat0=    1 NMatS0=    1 NMatT0=    0 NMatD0=    1 NMtDS0=    0 NMtDT0=    0
         I1Cent=           4 NGrid=           0.
 Petite list used in FoFCou.
 Requested convergence on RMS density matrix=1.00D-08 within 128 cycles.
 Requested convergence on MAX density matrix=1.00D-06.
 Requested convergence on             energy=1.00D-06.
 No special actions if energy rises.
 Keep R1 and R2 ints in memory in canonical form, NReq=1266346.
 SCF Done:  E(UM062X) =  -39.8082472210     A.U. after   10 cycles
             Convg  =    0.2803D-08             -V/T =  2.0089
 <Sx>= 0.0000 <Sy>= 0.0000 <Sz>= 0.5000 <S**2>= 0.7540 S= 0.5020
 <L.S>= 0.000000000000E+00
 Annihilation of the first spin contaminant:
 S**2 before annihilation     0.7540,   after     0.7500
 Calling FoFJK, ICntrl=      2127 FMM=F ISym2X=1 I1Cent= 0 IOpClX= 1 NMat=1 NMatS=1 NMatT=0.
 ***** Axes restored to original set *****
 -------------------------------------------------------------------
 Center     Atomic                   Forces (Hartrees/Bohr)
 Number     Number              X              Y              Z
 -------------------------------------------------------------------
      1        6           0.018858103   -0.000000227    0.000000000
      2        1          -0.006286084   -0.004138443    0.000000000
      3        1          -0.006286010    0.002069335    0.003584063
      4        1          -0.006286010    0.002069336   -0.003584062
 -------------------------------------------------------------------
 Cartesian Forces:  Max     0.018858103 RMS     0.006617860

 GradGradGradGradGradGradGradGradGradGradGradGradGradGradGradGradGradGrad
 Berny optimization.
 Using GEDIIS/GDIIS optimizer.
 Internal  Forces:  Max     0.012184232 RMS     0.005732836
 Search for a local minimum.
 Step number   2 out of a maximum of   20
 All quantities printed in internal units (Hartrees-Bohrs-Radians)
 Mixed Optimization -- RFO/linear search
 Update second derivatives using D2CorX and points    1    2
 DE= -6.87D-03 DEPred=-7.57D-03 R= 9.08D-01
 SS=  1.41D+00  RLast= 2.98D-01 DXNew= 5.0454D-01 8.9390D-01
 Trust test= 9.08D-01 RLast= 2.98D-01 DXMaxT set to 5.05D-01
 The second derivative matrix:
                          R1        R2        R3        A1        A2
           R1           0.38047
           R2           0.00817   0.38047
           R3           0.00817   0.00817   0.38047
           A1          -0.02085  -0.02085  -0.02085   0.11821
           A2          -0.00348  -0.00348  -0.00348  -0.03825   0.13810
           A3          -0.00348  -0.00348  -0.00348  -0.03825  -0.02190
           D1          -0.01967  -0.01967  -0.01967  -0.00050  -0.01678
                          A3        D1
           A3           0.13810
           D1          -0.01678   0.02529
 Use linear search instead of GDIIS.
     Eigenvalues ---    0.04255   0.16000   0.17093   0.37230   0.37230
     Eigenvalues ---    0.399481000.00000
 RFO step:  Lambda=-1.01694283D-03 EMin= 4.25507667D-02
 Quartic linear search produced a step of  1.05456.
 Iteration  1 RMS(Cart)=  0.05763754 RMS(Int)=  0.05501593
 Iteration  2 RMS(Cart)=  0.02647072 RMS(Int)=  0.02584191
 Iteration  3 RMS(Cart)=  0.00171643 RMS(Int)=  0.02575358
 Iteration  4 RMS(Cart)=  0.00005176 RMS(Int)=  0.02575346
 Iteration  5 RMS(Cart)=  0.00000221 RMS(Int)=  0.02575346
 Iteration  6 RMS(Cart)=  0.00000009 RMS(Int)=  0.02575346
 ClnCor:  largest displacement from symmetrization is 1.47D-02 for atom     4.
 Variable       Old X    -DE/DX   Delta X   Delta X   Delta X     New X
                                 (Linear)    (Quad)   (Total)
    R1        2.04406   0.00250   0.02326  -0.02457   0.00331   2.04738
    R2        2.04406   0.00250   0.02326  -0.02457   0.00331   2.04738
    R3        2.04406   0.00250   0.02326  -0.02457   0.00331   2.04738
    A1        1.99622   0.00002   0.09026   0.04255   0.07089   2.06711
    A2        1.99622   0.00561   0.09026   0.00670   0.07089   2.06711
    A3        1.99622   0.00561   0.09026   0.00670   0.07089   2.06711
    D1       -2.35003  -0.01218  -0.26958  -0.08021  -0.36185  -2.71188
         Item               Value     Threshold  Converged?
 Maximum Force            0.012184     0.000450     NO 
 RMS     Force            0.005733     0.000300     NO 
 Maximum Displacement     0.175797     0.001800     NO 
 RMS     Displacement     0.082981     0.001200     NO 
 Predicted change in Energy=-2.145901D-03
 GradGradGradGradGradGradGradGradGradGradGradGradGradGradGradGradGradGrad

                          Input orientation:                          
 ---------------------------------------------------------------------
 Center     Atomic      Atomic             Coordinates (Angstroms)
 Number     Number       Type             X           Y           Z
 ---------------------------------------------------------------------
      1          6           0       -2.090014   -0.053272   -0.873652
      2          1           0       -1.953524   -1.128065   -0.873652
      3          1           0       -1.953504    0.484121    0.057145
      4          1           0       -1.953504    0.484121   -1.804448
 ---------------------------------------------------------------------
                    Distance matrix (angstroms):
                    1          2          3          4
     1  C    0.000000
     2  H    1.083425   0.000000
     3  H    1.083425   1.861593   0.000000
     4  H    1.083425   1.861593   1.861593   0.000000
 Stoichiometry    CH3(2)
 Framework group  C3V[C3(C),3SGV(H)]
 Deg. of freedom     2
 Full point group                 C3V     NOp   6
 Largest Abelian subgroup         CS      NOp   2
 Largest concise Abelian subgroup CS      NOp   2
                         Standard orientation:                         
 ---------------------------------------------------------------------
 Center     Atomic      Atomic             Coordinates (Angstroms)
 Number     Number       Type             X           Y           Z
 ---------------------------------------------------------------------
      1          6           0        0.000000    0.000000    0.045501
      2          1           0        0.000000    1.074791   -0.091002
      3          1           0       -0.930796   -0.537395   -0.091002
      4          1           0        0.930796   -0.537395   -0.091002
 ---------------------------------------------------------------------
 Rotational constants (GHZ):    282.1263212    282.1263212    144.6980781
 Standard basis: 6-31+G(d,p) (6D, 7F)
 There are    23 symmetry adapted basis functions of A'  symmetry.
 There are    11 symmetry adapted basis functions of A"  symmetry.
 Integral buffers will be    262144 words long.
 Raffenetti 2 integral format.
 Two-electron integral symmetry is turned on.
    34 basis functions,    53 primitive gaussians,    34 cartesian basis functions
     5 alpha electrons        4 beta electrons
       nuclear repulsion energy         9.6445234666 Hartrees.
 NAtoms=    4 NActive=    4 NUniq=    2 SFac= 3.00D+00 NAtFMM=   80 NAOKFM=F Big=F
 One-electron integrals computed using PRISM.
 NBasis=    34 RedAO= T  NBF=    23    11
 NBsUse=    34 1.00D-06 NBFU=    23    11
 Initial guess read from the read-write file.
 B after Tr=     0.000000    0.000000    0.000000
         Rot=    1.000000    0.000000    0.000000    0.000000 Ang=   0.00 deg.
 Initial guess orbital symmetries:
 Alpha Orbitals:
       Occupied  (A1) (A1) (E) (E) (A1)
       Virtual   (A1) (E) (E) (A1) (E) (E) (A1) (E) (E) (A1) (A1)
                 (E) (E) (A1) (E) (E) (A1) (A2) (E) (E) (E) (E)
                 (A1) (E) (E) (A1) (E) (E) (A1)
 Beta  Orbitals:
       Occupied  (A1) (A1) (E) (E)
       Virtual   (A1) (A1) (E) (E) (A1) (E) (E) (A1) (E) (E) (A1)
                 (A1) (E) (E) (A1) (E) (E) (A1) (A2) (E) (E) (E)
                 (E) (A1) (E) (E) (A1) (E) (E) (A1)
 Initial guess <Sx>= 0.0000 <Sy>= 0.0000 <Sz>= 0.5000 <S**2>= 0.7542 S= 0.5021
 Harris functional with IExCor= 1009 diagonalized for initial guess.
 ExpMin= 4.38D-02 ExpMax= 3.05D+03 ExpMxC= 4.57D+02 IAcc=2 IRadAn=         0 AccDes= 0.00D+00
 HarFok:  IExCor= 1009 AccDes= 0.00D+00 IRadAn=         0 IDoV= 1
 ScaDFX=  1.000000  1.000000  1.000000  1.000000
 FoFCou: FMM=F IPFlag=           0 FMFlag=      100000 FMFlg1=           0
         NFxFlg=           0 DoJE=T BraDBF=F KetDBF=T FulRan=T
         Omega=  0.000000  0.000000  1.000000  0.000000  0.000000 ICntrl=     500 IOpCl=  0
         NMat0=    1 NMatS0=    1 NMatT0=    0 NMatD0=    1 NMtDS0=    0 NMtDT0=    0
         I1Cent=           4 NGrid=           0.
 Petite list used in FoFCou.
 Requested convergence on RMS density matrix=1.00D-08 within 128 cycles.
 Requested convergence on MAX density matrix=1.00D-06.
 Requested convergence on             energy=1.00D-06.
 No special actions if energy rises.
 Keep R1 and R2 ints in memory in canonical form, NReq=1266346.
 SCF Done:  E(UM062X) =  -39.8112672047     A.U. after   11 cycles
             Convg  =    0.2874D-08             -V/T =  2.0095
 <Sx>= 0.0000 <Sy>= 0.0000 <Sz>= 0.5000 <S**2>= 0.7546 S= 0.5023
 <L.S>= 0.000000000000E+00
 Annihilation of the first spin contaminant:
 S**2 before annihilation     0.7546,   after     0.7500
 Calling FoFJK, ICntrl=      2127 FMM=F ISym2X=1 I1Cent= 0 IOpClX= 1 NMat=1 NMatS=1 NMatT=0.
 ***** Axes restored to original set *****
 -------------------------------------------------------------------
 Center     Atomic                   Forces (Hartrees/Bohr)
 Number     Number              X              Y              Z
 -------------------------------------------------------------------
      1        6           0.006349167   -0.000000077    0.000000000
      2        1          -0.002116377    0.001019302    0.000000000
      3        1          -0.002116395   -0.000509612   -0.000882719
      4        1          -0.002116395   -0.000509613    0.000882719
 -------------------------------------------------------------------
 Cartesian Forces:  Max     0.006349167 RMS     0.002176886

 GradGradGradGradGradGradGradGradGradGradGradGradGradGradGradGradGradGrad
 Berny optimization.
 Using GEDIIS/GDIIS optimizer.
 Internal  Forces:  Max     0.003505748 RMS     0.001619899
 Search for a local minimum.
 Step number   3 out of a maximum of   20
 All quantities printed in internal units (Hartrees-Bohrs-Radians)
 Mixed Optimization -- RFO/linear search
 Update second derivatives using D2CorX and points    2    3
 DE= -3.02D-03 DEPred=-2.15D-03 R= 1.41D+00
 SS=  1.41D+00  RLast= 3.82D-01 DXNew= 8.4853D-01 1.1465D+00
 Trust test= 1.41D+00 RLast= 3.82D-01 DXMaxT set to 8.49D-01
 The second derivative matrix:
                          R1        R2        R3        A1        A2
           R1           0.37739
           R2           0.00508   0.37739
           R3           0.00508   0.00508   0.37739
           A1          -0.02380  -0.02380  -0.02380   0.11683
           A2          -0.01087  -0.01087  -0.01087  -0.04359   0.12248
           A3          -0.01087  -0.01087  -0.01087  -0.04359  -0.03752
           D1          -0.01581  -0.01581  -0.01581   0.00481  -0.00558
                          A3        D1
           A3           0.12248
           D1          -0.00558   0.02231
 Use linear search instead of GDIIS.
     Eigenvalues ---    0.02326   0.16000   0.16376   0.37230   0.37230
     Eigenvalues ---    0.389531000.00000
 RFO step:  Lambda=-3.59231979D-04 EMin= 2.32580848D-02
 Quartic linear search produced a step of  1.14426.
 Iteration  1 RMS(Cart)=  0.04515809 RMS(Int)=  0.09835190
 Iteration  2 RMS(Cart)=  0.04110685 RMS(Int)=  0.03981307
 Iteration  3 RMS(Cart)=  0.00528772 RMS(Int)=  0.03876137
 Iteration  4 RMS(Cart)=  0.00024861 RMS(Int)=  0.03875855
 Iteration  5 RMS(Cart)=  0.00001297 RMS(Int)=  0.03875854
 Iteration  6 RMS(Cart)=  0.00000068 RMS(Int)=  0.03875854
 ClnCor:  largest displacement from symmetrization is 1.27D-02 for atom     4.
 Variable       Old X    -DE/DX   Delta X   Delta X   Delta X     New X
                                 (Linear)    (Quad)   (Total)
    R1        2.04738  -0.00128   0.00379  -0.01484  -0.00690   2.04048
    R2        2.04738  -0.00128   0.00379  -0.01484  -0.00690   2.04048
    R3        2.04738  -0.00128   0.00379  -0.01484  -0.00690   2.04048
    A1        2.06711  -0.00011   0.08112   0.02445   0.02716   2.09427
    A2        2.06711   0.00076   0.08112  -0.00435   0.02716   2.09427
    A3        2.06711   0.00076   0.08112  -0.00435   0.02716   2.09427
    D1       -2.71188  -0.00351  -0.41405  -0.04517  -0.45880   3.11251
         Item               Value     Threshold  Converged?
 Maximum Force            0.003506     0.000450     NO 
 RMS     Force            0.001620     0.000300     NO 
 Maximum Displacement     0.205959     0.001800     NO 
 RMS     Displacement     0.090251     0.001200     NO 
 Predicted change in Energy=-6.978407D-04
 GradGradGradGradGradGradGradGradGradGradGradGradGradGradGradGradGradGrad

                          Input orientation:                          
 ---------------------------------------------------------------------
 Center     Atomic      Atomic             Coordinates (Angstroms)
 Number     Number       Type             X           Y           Z
 ---------------------------------------------------------------------
      1          6           0       -1.981025   -0.053274   -0.873652
      2          1           0       -1.990105   -1.133009   -0.873652
      3          1           0       -1.990085    0.486594    0.061427
      4          1           0       -1.990085    0.486594   -1.808730
 ---------------------------------------------------------------------
                    Distance matrix (angstroms):
                    1          2          3          4
     1  C    0.000000
     2  H    1.079774   0.000000
     3  H    1.079774   1.870157   0.000000
     4  H    1.079774   1.870157   1.870157   0.000000
 Stoichiometry    CH3(2)
 Framework group  C3V[C3(C),3SGV(H)]
 Deg. of freedom     2
 Full point group                 C3V     NOp   6
 Largest Abelian subgroup         CS      NOp   2
 Largest concise Abelian subgroup CS      NOp   2
                         Standard orientation:                         
 ---------------------------------------------------------------------
 Center     Atomic      Atomic             Coordinates (Angstroms)
 Number     Number       Type             X           Y           Z
 ---------------------------------------------------------------------
      1          6           0        0.000000    0.000000    0.003022
      2          1           0        0.000000    1.079736   -0.006044
      3          1           0        0.935078   -0.539868   -0.006044
      4          1           0       -0.935078   -0.539868   -0.006044
 ---------------------------------------------------------------------
 Rotational constants (GHZ):    286.7193908    286.7193908    143.3758430
 Standard basis: 6-31+G(d,p) (6D, 7F)
 There are    23 symmetry adapted basis functions of A'  symmetry.
 There are    11 symmetry adapted basis functions of A"  symmetry.
 Integral buffers will be    262144 words long.
 Raffenetti 2 integral format.
 Two-electron integral symmetry is turned on.
    34 basis functions,    53 primitive gaussians,    34 cartesian basis functions
     5 alpha electrons        4 beta electrons
       nuclear repulsion energy         9.6703453287 Hartrees.
 NAtoms=    4 NActive=    4 NUniq=    2 SFac= 3.00D+00 NAtFMM=   80 NAOKFM=F Big=F
 One-electron integrals computed using PRISM.
 NBasis=    34 RedAO= T  NBF=    23    11
 NBsUse=    34 1.00D-06 NBFU=    23    11
 Initial guess read from the read-write file.
 B after Tr=     0.000000    0.000000    0.000000
         Rot=    1.000000    0.000000    0.000000    0.000000 Ang=   0.00 deg.
 Initial guess orbital symmetries:
 Alpha Orbitals:
       Occupied  (A1) (?A) (?A) (?A) (A1)
       Virtual   (?A) (?A) (?A) (A1) (?A) (?A) (?A) (?A) (?A) (?A)
                 (?A) (?A) (?A) (?A) (?A) (?A) (?A) (?A) (?A) (?A)
                 (?A) (?A) (?A) (?A) (?A) (?A) (?A) (?A) (?A)
 Beta  Orbitals:
       Occupied  (A1) (?A) (?A) (?A)
       Virtual   (?A) (?A) (?A) (?A) (?A) (?A) (?A) (?A) (?A) (?A)
                 (?A) (?A) (?A) (?A) (?A) (?A) (?A) (?A) (?A) (?A)
                 (?A) (?A) (?A) (?A) (?A) (?A) (?A) (?A) (?A) (?A)
 Initial guess <Sx>= 0.0000 <Sy>= 0.0000 <Sz>= 0.5000 <S**2>= 0.7755 S= 0.5127
 Harris functional with IExCor= 1009 diagonalized for initial guess.
 ExpMin= 4.38D-02 ExpMax= 3.05D+03 ExpMxC= 4.57D+02 IAcc=2 IRadAn=         0 AccDes= 0.00D+00
 HarFok:  IExCor= 1009 AccDes= 0.00D+00 IRadAn=         0 IDoV= 1
 ScaDFX=  1.000000  1.000000  1.000000  1.000000
 FoFCou: FMM=F IPFlag=           0 FMFlag=      100000 FMFlg1=           0
         NFxFlg=           0 DoJE=T BraDBF=F KetDBF=T FulRan=T
         Omega=  0.000000  0.000000  1.000000  0.000000  0.000000 ICntrl=     500 IOpCl=  0
         NMat0=    1 NMatS0=    1 NMatT0=    0 NMatD0=    1 NMtDS0=    0 NMtDT0=    0
         I1Cent=           4 NGrid=           0.
 Petite list used in FoFCou.
 Requested convergence on RMS density matrix=1.00D-08 within 128 cycles.
 Requested convergence on MAX density matrix=1.00D-06.
 Requested convergence on             energy=1.00D-06.
 No special actions if energy rises.
 Keep R1 and R2 ints in memory in canonical form, NReq=1265908.
 Density matrix breaks symmetry, PCut= 1.00D-04
 Density has only Abelian symmetry.
 Density matrix breaks symmetry, PCut= 1.00D-04
 Density has only Abelian symmetry.
 Density matrix breaks symmetry, PCut= 1.00D-04
 Density has only Abelian symmetry.
 Density matrix breaks symmetry, PCut= 1.00D-04
 Density has only Abelian symmetry.
 Density matrix breaks symmetry, PCut= 1.00D-04
 Density has only Abelian symmetry.
 SCF Done:  E(UM062X) =  -39.8119056374     A.U. after   12 cycles
             Convg  =    0.6626D-08             -V/T =  2.0093
 <Sx>= 0.0000 <Sy>= 0.0000 <Sz>= 0.5000 <S**2>= 0.7548 S= 0.5024
 <L.S>= 0.000000000000E+00
 Annihilation of the first spin contaminant:
 S**2 before annihilation     0.7548,   after     0.7500
 Calling FoFJK, ICntrl=      2127 FMM=F ISym2X=1 I1Cent= 0 IOpClX= 1 NMat=1 NMatS=1 NMatT=0.
 ***** Axes restored to original set *****
 -------------------------------------------------------------------
 Center     Atomic                   Forces (Hartrees/Bohr)
 Number     Number              X              Y              Z
 -------------------------------------------------------------------
      1        6          -0.000251459    0.000000000    0.000000000
      2        1           0.000083817   -0.000226129    0.000000000
      3        1           0.000083821    0.000113065    0.000195834
      4        1           0.000083821    0.000113065   -0.000195834
 -------------------------------------------------------------------
 Cartesian Forces:  Max     0.000251459 RMS     0.000140746

 GradGradGradGradGradGradGradGradGradGradGradGradGradGradGradGradGradGrad
 Berny optimization.
 Using GEDIIS/GDIIS optimizer.
 Internal  Forces:  Max     0.000225418 RMS     0.000158291
 Search for a local minimum.
 Step number   4 out of a maximum of   20
 All quantities printed in internal units (Hartrees-Bohrs-Radians)
 Mixed Optimization -- En-DIIS/RFO-DIIS
 Update second derivatives using D2CorX and points    3    4
 DE= -6.38D-04 DEPred=-6.98D-04 R= 9.15D-01
 SS=  1.41D+00  RLast= 4.61D-01 DXNew= 1.4270D+00 1.3841D+00
 Trust test= 9.15D-01 RLast= 4.61D-01 DXMaxT set to 1.38D+00
 The second derivative matrix:
                          R1        R2        R3        A1        A2
           R1           0.37632
           R2           0.00402   0.37632
           R3           0.00402   0.00402   0.37632
           A1          -0.02307  -0.02307  -0.02307   0.11666
           A2          -0.01428  -0.01428  -0.01428  -0.04289   0.11959
           A3          -0.01428  -0.01428  -0.01428  -0.04289  -0.04041
           D1          -0.00556  -0.00556  -0.00556   0.00310   0.00113
                          A3        D1
           A3           0.11959
           D1           0.00113   0.00854
 Use linear search instead of GDIIS.
     Eigenvalues ---    0.00834   0.16000   0.16067   0.37230   0.37230
     Eigenvalues ---    0.385341000.00000
 RFO step:  Lambda=-1.13048130D-07 EMin= 8.33858772D-03
 Quartic linear search produced a step of -0.07981.
 Iteration  1 RMS(Cart)=  0.00723652 RMS(Int)=  0.00149031
 Iteration  2 RMS(Cart)=  0.00007950 RMS(Int)=  0.00148793
 Iteration  3 RMS(Cart)=  0.00000003 RMS(Int)=  0.00148793
 ClnCor:  largest displacement from symmetrization is 1.80D-04 for atom     4.
 Variable       Old X    -DE/DX   Delta X   Delta X   Delta X     New X
                                 (Linear)    (Quad)   (Total)
    R1        2.04048   0.00023   0.00055   0.00029   0.00078   2.04125
    R2        2.04048   0.00023   0.00055   0.00029   0.00078   2.04125
    R3        2.04048   0.00023   0.00055   0.00029   0.00078   2.04125
    A1        2.09427   0.00000  -0.00217  -0.00026   0.00011   2.09439
    A2        2.09427   0.00000  -0.00217   0.00014   0.00011   2.09439
    A3        2.09427   0.00000  -0.00217   0.00014   0.00011   2.09439
    D1        3.11251   0.00015   0.03662   0.00082   0.03745  -3.13323
         Item               Value     Threshold  Converged?
 Maximum Force            0.000225     0.000450     YES
 RMS     Force            0.000158     0.000300     YES
 Maximum Displacement     0.016546     0.001800     NO 
 RMS     Displacement     0.007242     0.001200     NO 
 Predicted change in Energy=-3.383625D-07
 GradGradGradGradGradGradGradGradGradGradGradGradGradGradGradGradGradGrad

                          Input orientation:                          
 ---------------------------------------------------------------------
 Center     Atomic      Atomic             Coordinates (Angstroms)
 Number     Number       Type             X           Y           Z
 ---------------------------------------------------------------------
      1          6           0       -1.989781   -0.053274   -0.873652
      2          1           0       -1.987187   -1.133455   -0.873652
      3          1           0       -1.987167    0.486817    0.061813
      4          1           0       -1.987167    0.486817   -1.809116
 ---------------------------------------------------------------------
                    Distance matrix (angstroms):
                    1          2          3          4
     1  C    0.000000
     2  H    1.080185   0.000000
     3  H    1.080185   1.870929   0.000000
     4  H    1.080185   1.870929   1.870929   0.000000
 Stoichiometry    CH3(2)
 Framework group  C3V[C3(C),3SGV(H)]
 Deg. of freedom     2
 Full point group                 C3V     NOp   6
 Largest Abelian subgroup         CS      NOp   2
 Largest concise Abelian subgroup CS      NOp   2
                         Standard orientation:                         
 ---------------------------------------------------------------------
 Center     Atomic      Atomic             Coordinates (Angstroms)
 Number     Number       Type             X           Y           Z
 ---------------------------------------------------------------------
      1          6           0        0.000000    0.000000    0.000869
      2          1           0        0.000000    1.080182   -0.001738
      3          1           0       -0.935465   -0.540091   -0.001738
      4          1           0        0.935465   -0.540091   -0.001738
 ---------------------------------------------------------------------
 Rotational constants (GHZ):    286.5122532    286.5122532    143.2574601
 Standard basis: 6-31+G(d,p) (6D, 7F)
 There are    23 symmetry adapted basis functions of A'  symmetry.
 There are    11 symmetry adapted basis functions of A"  symmetry.
 Integral buffers will be    262144 words long.
 Raffenetti 2 integral format.
 Two-electron integral symmetry is turned on.
    34 basis functions,    53 primitive gaussians,    34 cartesian basis functions
     5 alpha electrons        4 beta electrons
       nuclear repulsion energy         9.6666373560 Hartrees.
 NAtoms=    4 NActive=    4 NUniq=    2 SFac= 3.00D+00 NAtFMM=   80 NAOKFM=F Big=F
 One-electron integrals computed using PRISM.
 NBasis=    34 RedAO= T  NBF=    23    11
 NBsUse=    34 1.00D-06 NBFU=    23    11
 Initial guess read from the read-write file.
 B after Tr=     0.000000    0.000000    0.000000
         Rot=    1.000000    0.000000    0.000000    0.000000 Ang=   0.00 deg.
 Initial guess orbital symmetries:
 Alpha Orbitals:
       Occupied  (A1) (?A) (?A) (?A) (A1)
       Virtual   (?A) (?A) (?A) (A1) (?A) (?A) (?A) (?A) (?A) (A1)
                 (?A) (?A) (?A) (?A) (?A) (?A) (?A) (?A) (?A) (?A)
                 (?A) (?A) (?A) (?A) (?A) (?A) (?A) (?A) (?A)
 Beta  Orbitals:
       Occupied  (A1) (?A) (?A) (?A)
       Virtual   (A1) (?A) (?A) (?A) (A1) (?A) (?A) (?A) (?A) (?A)
                 (A1) (?A) (?A) (?A) (?A) (?A) (?A) (?A) (?A) (?A)
                 (?A) (?A) (?A) (?A) (?A) (?A) (?A) (?A) (?A) (?A)
 Initial guess <Sx>= 0.0000 <Sy>= 0.0000 <Sz>= 0.5000 <S**2>= 0.7764 S= 0.5131
 Requested convergence on RMS density matrix=1.00D-08 within 128 cycles.
 Requested convergence on MAX density matrix=1.00D-06.
 Requested convergence on             energy=1.00D-06.
 No special actions if energy rises.
 Keep R1 and R2 ints in memory in canonical form, NReq=1265908.
 Density matrix breaks symmetry, PCut= 1.00D-04
 Density has only Abelian symmetry.
 Density matrix breaks symmetry, PCut= 1.00D-04
 Density has only Abelian symmetry.
 Density matrix breaks symmetry, PCut= 1.00D-04
 Density has only Abelian symmetry.
 Density matrix breaks symmetry, PCut= 1.00D-04
 Density has only Abelian symmetry.
 Density matrix breaks symmetry, PCut= 1.00D-04
 Density has only Abelian symmetry.
 Density matrix breaks symmetry, PCut= 1.00D-04
 Density has only Abelian symmetry.
 Density matrix breaks symmetry, PCut= 1.00D-04
 Density has only Abelian symmetry.
 Density matrix breaks symmetry, PCut= 1.00D-04
 Density has only Abelian symmetry.
 SCF Done:  E(UM062X) =  -39.8119078027     A.U. after   13 cycles
             Convg  =    0.9076D-08             -V/T =  2.0094
 <Sx>= 0.0000 <Sy>= 0.0000 <Sz>= 0.5000 <S**2>= 0.7548 S= 0.5024
 <L.S>= 0.000000000000E+00
 Annihilation of the first spin contaminant:
 S**2 before annihilation     0.7548,   after     0.7500
 Calling FoFJK, ICntrl=      2127 FMM=F ISym2X=1 I1Cent= 0 IOpClX= 1 NMat=1 NMatS=1 NMatT=0.
 ***** Axes restored to original set *****
 -------------------------------------------------------------------
 Center     Atomic                   Forces (Hartrees/Bohr)
 Number     Number              X              Y              Z
 -------------------------------------------------------------------
      1        6           0.000073826   -0.000000012    0.000000000
      2        1          -0.000024608    0.000074243    0.000000000
      3        1          -0.000024609   -0.000037115   -0.000064292
      4        1          -0.000024609   -0.000037115    0.000064292
 -------------------------------------------------------------------
 Cartesian Forces:  Max     0.000074243 RMS     0.000044536

 GradGradGradGradGradGradGradGradGradGradGradGradGradGradGradGradGradGrad
 Berny optimization.
 Using GEDIIS/GDIIS optimizer.
 Internal  Forces:  Max     0.000074302 RMS     0.000051305
 Search for a local minimum.
 Step number   5 out of a maximum of   20
 All quantities printed in internal units (Hartrees-Bohrs-Radians)
 Mixed Optimization -- En-DIIS/RFO-DIIS
 Swaping is turned off.
 Update second derivatives using D2CorX and points    3    4    5
 DE= -2.17D-06 DEPred=-3.38D-07 R= 6.40D+00
 SS=  1.41D+00  RLast= 3.75D-02 DXNew= 2.3277D+00 1.1241D-01
 Trust test= 6.40D+00 RLast= 3.75D-02 DXMaxT set to 1.38D+00
 The second derivative matrix:
                          R1        R2        R3        A1        A2
           R1           0.38680
           R2           0.01450   0.38680
           R3           0.01450   0.01450   0.38680
           A1          -0.02343  -0.02343  -0.02343   0.11624
           A2          -0.01414  -0.01414  -0.01414  -0.04300   0.11955
           A3          -0.01414  -0.01414  -0.01414  -0.04300  -0.04045
           D1          -0.00047  -0.00047  -0.00047   0.00136   0.00082
                          A3        D1
           A3           0.11955
           D1           0.00082   0.00522
     Eigenvalues ---    0.00520   0.16000   0.16053   0.37230   0.37230
     Eigenvalues ---    0.416471000.00000
 En-DIIS/RFO-DIIS IScMMF=        0 using points:     5    4
 RFO step:  Lambda=-5.17496699D-08.
 DIIS coeffs:      0.77593      0.22407
 Iteration  1 RMS(Cart)=  0.00160739 RMS(Int)=  0.00002348
 Iteration  2 RMS(Cart)=  0.00000385 RMS(Int)=  0.00002316
 Iteration  3 RMS(Cart)=  0.00000000 RMS(Int)=  0.00002316
 ClnCor:  largest displacement from symmetrization is 3.44D-06 for atom     4.
 Variable       Old X    -DE/DX   Delta X   Delta X   Delta X     New X
                                  (DIIS)     (GDIIS)  (Total)
    R1        2.04125  -0.00007  -0.00017  -0.00002  -0.00019   2.04106
    R2        2.04125  -0.00007  -0.00017  -0.00002  -0.00019   2.04106
    R3        2.04125  -0.00007  -0.00017  -0.00002  -0.00019   2.04106
    A1        2.09439   0.00000  -0.00003  -0.00001   0.00001   2.09440
    A2        2.09439   0.00000  -0.00003   0.00000   0.00001   2.09440
    A3        2.09439   0.00000  -0.00003   0.00000   0.00001   2.09440
    D1       -3.13323  -0.00004  -0.00839   0.00008  -0.00831  -3.14154
         Item               Value     Threshold  Converged?
 Maximum Force            0.000074     0.000450     YES
 RMS     Force            0.000051     0.000300     YES
 Maximum Displacement     0.003673     0.001800     NO 
 RMS     Displacement     0.001608     0.001200     NO 
 Predicted change in Energy=-2.006817D-07
 GradGradGradGradGradGradGradGradGradGradGradGradGradGradGradGradGradGrad

                          Input orientation:                          
 ---------------------------------------------------------------------
 Center     Atomic      Atomic             Coordinates (Angstroms)
 Number     Number       Type             X           Y           Z
 ---------------------------------------------------------------------
      1          6           0       -1.987837   -0.053274   -0.873652
      2          1           0       -1.987834   -1.133357   -0.873652
      3          1           0       -1.987815    0.486768    0.061728
      4          1           0       -1.987815    0.486768   -1.809031
 ---------------------------------------------------------------------
                    Distance matrix (angstroms):
                    1          2          3          4
     1  C    0.000000
     2  H    1.080083   0.000000
     3  H    1.080083   1.870758   0.000000
     4  H    1.080083   1.870758   1.870758   0.000000
 Stoichiometry    CH3(2)
 Framework group  C3V[C3(C),3SGV(H)]
 Deg. of freedom     2
 Full point group                 C3V     NOp   6
 Largest Abelian subgroup         CS      NOp   2
 Largest concise Abelian subgroup CS      NOp   2
                         Standard orientation:                         
 ---------------------------------------------------------------------
 Center     Atomic      Atomic             Coordinates (Angstroms)
 Number     Number       Type             X           Y           Z
 ---------------------------------------------------------------------
      1          6           0        0.000000    0.000000    0.000005
      2          1           0        0.000000    1.080083   -0.000011
      3          1           0       -0.935379   -0.540041   -0.000011
      4          1           0        0.935379   -0.540041   -0.000011
 ---------------------------------------------------------------------
 Rotational constants (GHZ):    286.5672828    286.5672828    143.2836414
 Standard basis: 6-31+G(d,p) (6D, 7F)
 There are    23 symmetry adapted basis functions of A'  symmetry.
 There are    11 symmetry adapted basis functions of A"  symmetry.
 Integral buffers will be    262144 words long.
 Raffenetti 2 integral format.
 Two-electron integral symmetry is turned on.
    34 basis functions,    53 primitive gaussians,    34 cartesian basis functions
     5 alpha electrons        4 beta electrons
       nuclear repulsion energy         9.6675463319 Hartrees.
 NAtoms=    4 NActive=    4 NUniq=    2 SFac= 3.00D+00 NAtFMM=   80 NAOKFM=F Big=F
 One-electron integrals computed using PRISM.
 NBasis=    34 RedAO= T  NBF=    23    11
 NBsUse=    34 1.00D-06 NBFU=    23    11
 Initial guess read from the read-write file.
 B after Tr=     0.000000    0.000000    0.000000
         Rot=    1.000000    0.000000    0.000000    0.000000 Ang=   0.00 deg.
 Initial guess orbital symmetries:
 Alpha Orbitals:
       Occupied  (A1) (A1) (E) (E) (A1)
       Virtual   (A1) (E) (E) (A1) (A1) (E) (E) (E) (E) (A1) (A1)
                 (E) (E) (A1) (E) (E) (E) (E) (A1) (A2) (A1) (E)
                 (E) (E) (E) (A1) (E) (E) (A1)
 Beta  Orbitals:
       Occupied  (A1) (A1) (E) (E)
       Virtual   (A1) (A1) (E) (E) (A1) (E) (E) (A1) (E) (E) (A1)
                 (A1) (E) (E) (A1) (E) (E) (E) (E) (A2) (A1) (A1)
                 (E) (E) (E) (E) (A1) (E) (E) (A1)
 Initial guess <Sx>= 0.0000 <Sy>= 0.0000 <Sz>= 0.5000 <S**2>= 0.7548 S= 0.5024
 Requested convergence on RMS density matrix=1.00D-08 within 128 cycles.
 Requested convergence on MAX density matrix=1.00D-06.
 Requested convergence on             energy=1.00D-06.
 No special actions if energy rises.
 Keep R1 and R2 ints in memory in canonical form, NReq=1265908.
 SCF Done:  E(UM062X) =  -39.8119080257     A.U. after    8 cycles
             Convg  =    0.2668D-08             -V/T =  2.0094
 <Sx>= 0.0000 <Sy>= 0.0000 <Sz>= 0.5000 <S**2>= 0.7548 S= 0.5024
 <L.S>= 0.000000000000E+00
 Annihilation of the first spin contaminant:
 S**2 before annihilation     0.7548,   after     0.7500
 Calling FoFJK, ICntrl=      2127 FMM=F ISym2X=1 I1Cent= 0 IOpClX= 1 NMat=1 NMatS=1 NMatT=0.
 ***** Axes restored to original set *****
 -------------------------------------------------------------------
 Center     Atomic                   Forces (Hartrees/Bohr)
 Number     Number              X              Y              Z
 -------------------------------------------------------------------
      1        6           0.000000445    0.000000000    0.000000000
      2        1          -0.000000148    0.000001815    0.000000000
      3        1          -0.000000148   -0.000000907   -0.000001572
      4        1          -0.000000148   -0.000000907    0.000001572
 -------------------------------------------------------------------
 Cartesian Forces:  Max     0.000001815 RMS     0.000000919

 GradGradGradGradGradGradGradGradGradGradGradGradGradGradGradGradGradGrad
 Berny optimization.
 Using GEDIIS/GDIIS optimizer.
 Internal  Forces:  Max     0.000001815 RMS     0.000001192
 Search for a local minimum.
 Step number   6 out of a maximum of   20
 All quantities printed in internal units (Hartrees-Bohrs-Radians)
 Mixed Optimization -- En-DIIS/RFO-DIIS
 Swaping is turned off.
 Update second derivatives using D2CorX and points    3    4    5    6
 DE= -2.23D-07 DEPred=-2.01D-07 R= 1.11D+00
 Trust test= 1.11D+00 RLast= 8.32D-03 DXMaxT set to 1.38D+00
 The second derivative matrix:
                          R1        R2        R3        A1        A2
           R1           0.38262
           R2           0.01031   0.38261
           R3           0.01031   0.01031   0.38261
           A1          -0.02075  -0.02075  -0.02075   0.11539
           A2          -0.01120  -0.01120  -0.01120  -0.04373   0.11914
           A3          -0.01120  -0.01120  -0.01120  -0.04373  -0.04086
           D1          -0.00067  -0.00067  -0.00067   0.00148   0.00080
                          A3        D1
           A3           0.11914
           D1           0.00080   0.00521
     Eigenvalues ---    0.00521   0.16000   0.16058   0.37230   0.37230
     Eigenvalues ---    0.404001000.00000
 En-DIIS/RFO-DIIS IScMMF=        0 using points:     6    5    4
 RFO step:  Lambda= 0.00000000D+00.
 DIIS coeffs:      1.21806     -0.17133     -0.04673
 Iteration  1 RMS(Cart)=  0.00001256 RMS(Int)=  0.00000487
 Iteration  2 RMS(Cart)=  0.00000000 RMS(Int)=  0.00000487
 ClnCor:  largest displacement from symmetrization is 4.21D-07 for atom     4.
 Variable       Old X    -DE/DX   Delta X   Delta X   Delta X     New X
                                  (DIIS)     (GDIIS)  (Total)
    R1        2.04106   0.00000  -0.00001   0.00000  -0.00001   2.04106
    R2        2.04106   0.00000  -0.00001   0.00000  -0.00001   2.04106
    R3        2.04106   0.00000  -0.00001   0.00000  -0.00001   2.04106
    A1        2.09440   0.00000   0.00001   0.00000   0.00000   2.09440
    A2        2.09440   0.00000   0.00001   0.00000   0.00000   2.09440
    A3        2.09440   0.00000   0.00001   0.00000   0.00000   2.09440
    D1       -3.14154   0.00000  -0.00006   0.00000  -0.00006   3.14158
         Item               Value     Threshold  Converged?
 Maximum Force            0.000002     0.000450     YES
 RMS     Force            0.000001     0.000300     YES
 Maximum Displacement     0.000027     0.001800     YES
 RMS     Displacement     0.000013     0.001200     YES
 Predicted change in Energy=-1.848607D-11
 Optimization completed.
    -- Stationary point found.
                           ----------------------------
                           !   Optimized Parameters   !
                           ! (Angstroms and Degrees)  !
 --------------------------                            --------------------------
 ! Name  Definition              Value          Derivative Info.                !
 --------------------------------------------------------------------------------
 ! R1    R(1,2)                  1.0801         -DE/DX =    0.0                 !
 ! R2    R(1,3)                  1.0801         -DE/DX =    0.0                 !
 ! R3    R(1,4)                  1.0801         -DE/DX =    0.0                 !
 ! A1    A(2,1,3)              120.0            -DE/DX =    0.0                 !
 ! A2    A(2,1,4)              120.0            -DE/DX =    0.0                 !
 ! A3    A(3,1,4)              120.0            -DE/DX =    0.0                 !
 ! D1    D(2,1,4,3)            180.0029         -DE/DX =    0.0                 !
 --------------------------------------------------------------------------------
 GradGradGradGradGradGradGradGradGradGradGradGradGradGradGradGradGradGrad

                          Input orientation:                          
 ---------------------------------------------------------------------
 Center     Atomic      Atomic             Coordinates (Angstroms)
 Number     Number       Type             X           Y           Z
 ---------------------------------------------------------------------
      1          6           0       -1.987837   -0.053274   -0.873652
      2          1           0       -1.987834   -1.133357   -0.873652
      3          1           0       -1.987815    0.486768    0.061728
      4          1           0       -1.987815    0.486768   -1.809031
 ---------------------------------------------------------------------
                    Distance matrix (angstroms):
                    1          2          3          4
     1  C    0.000000
     2  H    1.080083   0.000000
     3  H    1.080083   1.870758   0.000000
     4  H    1.080083   1.870758   1.870758   0.000000
 Stoichiometry    CH3(2)
 Framework group  C3V[C3(C),3SGV(H)]
 Deg. of freedom     2
 Full point group                 C3V     NOp   6
 Largest Abelian subgroup         CS      NOp   2
 Largest concise Abelian subgroup CS      NOp   2
                         Standard orientation:                         
 ---------------------------------------------------------------------
 Center     Atomic      Atomic             Coordinates (Angstroms)
 Number     Number       Type             X           Y           Z
 ---------------------------------------------------------------------
      1          6           0        0.000000    0.000000    0.000005
      2          1           0        0.000000    1.080083   -0.000011
      3          1           0       -0.935379   -0.540041   -0.000011
      4          1           0        0.935379   -0.540041   -0.000011
 ---------------------------------------------------------------------
 Rotational constants (GHZ):    286.5672828    286.5672828    143.2836414

 **********************************************************************

            Population analysis using the SCF density.

 **********************************************************************

 Orbital symmetries:
 Alpha Orbitals:
       Occupied  (A1) (A1) (E) (E) (A1)
       Virtual   (A1) (E) (E) (A1) (A1) (E) (E) (E) (E) (A1) (A1)
                 (E) (E) (A1) (E) (E) (E) (E) (A1) (A2) (A1) (E)
                 (E) (E) (E) (A1) (E) (E) (A1)
 Beta  Orbitals:
       Occupied  (A1) (A1) (E) (E)
       Virtual   (A1) (A1) (E) (E) (A1) (E) (E) (A1) (E) (E) (A1)
                 (A1) (E) (E) (A1) (E) (E) (E) (E) (A2) (A1) (A1)
                 (E) (E) (E) (E) (A1) (E) (E) (A1)
 The electronic state is 2-A1.
 Alpha  occ. eigenvalues --  -10.55816  -0.77794  -0.49005  -0.49005  -0.28407
 Alpha virt. eigenvalues --    0.05404   0.07125   0.07125   0.10376   0.23937
 Alpha virt. eigenvalues --    0.24160   0.24160   0.67312   0.67312   0.70082
 Alpha virt. eigenvalues --    0.85614   0.99813   0.99813   1.03024   1.48469
 Alpha virt. eigenvalues --    1.48469   1.98602   1.98602   2.01327   2.04004
 Alpha virt. eigenvalues --    2.31664   2.56854   2.56854   2.73337   2.73337
 Alpha virt. eigenvalues --    3.24052   3.43228   3.43228   4.29113
  Beta  occ. eigenvalues --  -10.55080  -0.73001  -0.47739  -0.47739
  Beta virt. eigenvalues --   -0.03249   0.03950   0.07212   0.07212   0.14280
  Beta virt. eigenvalues --    0.24881   0.24881   0.25090   0.68402   0.68402
  Beta virt. eigenvalues --    0.75330   0.87954   1.02191   1.02191   1.06028
  Beta virt. eigenvalues --    1.54238   1.54238   2.02369   2.02369   2.06341
  Beta virt. eigenvalues --    2.12151   2.34408   2.60945   2.60945   2.76005
  Beta virt. eigenvalues --    2.76005   3.28410   3.48993   3.48993   4.34853
          Condensed to atoms (all electrons):
              1          2          3          4
     1  C    5.313491   0.392651   0.392651   0.392651
     2  H    0.392651   0.493732  -0.025099  -0.025099
     3  H    0.392651  -0.025099   0.493732  -0.025099
     4  H    0.392651  -0.025099  -0.025099   0.493732
 Mulliken atomic charges:
              1
     1  C   -0.491444
     2  H    0.163815
     3  H    0.163815
     4  H    0.163815
 Sum of Mulliken atomic charges =   0.00000
 Mulliken charges with hydrogens summed into heavy atoms:
              1
     1  C    0.000000
 Sum of Mulliken charges with hydrogens summed into heavy atoms =   0.00000
          Atomic-Atomic Spin Densities.
              1          2          3          4
     1  C    1.189110  -0.007784  -0.007784  -0.007784
     2  H   -0.007784  -0.049328   0.000930   0.000930
     3  H   -0.007784   0.000930  -0.049328   0.000930
     4  H   -0.007784   0.000930   0.000930  -0.049328
 Mulliken atomic spin densities:
              1
     1  C    1.165757
     2  H   -0.055252
     3  H   -0.055252
     4  H   -0.055252
 Sum of Mulliken atomic spin densities =   1.00000
 Electronic spatial extent (au):  <R**2>=             30.2294
 Charge=              0.0000 electrons
 Dipole moment (field-independent basis, Debye):
    X=              0.0000    Y=              0.0000    Z=              0.0000  Tot=              0.0000
 Quadrupole moment (field-independent basis, Debye-Ang):
   XX=             -7.2658   YY=             -7.2658   ZZ=             -9.3180
   XY=              0.0000   XZ=              0.0000   YZ=              0.0000
 Traceless Quadrupole moment (field-independent basis, Debye-Ang):
   XX=              0.6840   YY=              0.6840   ZZ=             -1.3681
   XY=              0.0000   XZ=              0.0000   YZ=              0.0000
 Octapole moment (field-independent basis, Debye-Ang**2):
  XXX=              0.0000  YYY=              0.9055  ZZZ=             -0.0001  XYY=              0.0000
  XXY=             -0.9055  XXZ=              0.0000  XZZ=              0.0000  YZZ=              0.0000
  YYZ=              0.0000  XYZ=              0.0000
 Hexadecapole moment (field-independent basis, Debye-Ang**3):
 XXXX=            -15.3505 YYYY=            -15.3505 ZZZZ=            -13.4703 XXXY=              0.0000
 XXXZ=              0.0000 YYYX=              0.0000 YYYZ=              0.0000 ZZZX=              0.0000
 ZZZY=              0.0000 XXYY=             -5.1168 XXZZ=             -5.1742 YYZZ=             -5.1742
 XXYZ=              0.0000 YYXZ=              0.0000 ZZXY=              0.0000
 N-N= 9.667546331903D+00 E-N=-1.635646285042D+02  KE= 5.854859339345D+01
 Symmetry A'   KE= 5.563189886313D+01
 Symmetry A"   KE= 2.916694530323D+00
                          Isotropic Fermi Contact Couplings
        Atom                 a.u.       MegaHertz       Gauss      10(-4) cm-1
     1  C(13)              0.18880     212.24629      75.73475      70.79774
     2  H(1)              -0.01639     -73.25448     -26.13902     -24.43507
     3  H(1)              -0.01639     -73.25448     -26.13902     -24.43507
     4  H(1)              -0.01639     -73.25448     -26.13902     -24.43507
 --------------------------------------------------------
       Center         ----  Spin Dipole Couplings  ----
                      3XX-RR        3YY-RR        3ZZ-RR
 --------------------------------------------------------
     1   Atom       -0.503353     -0.503353      1.006706
     2   Atom       -0.073813      0.078173     -0.004360
     3   Atom        0.040176     -0.035816     -0.004360
     4   Atom        0.040176     -0.035816     -0.004360
 --------------------------------------------------------
                        XY            XZ            YZ
 --------------------------------------------------------
     1   Atom        0.000000      0.000000      0.000000
     2   Atom        0.000000      0.000000     -0.000002
     3   Atom        0.065811      0.000002      0.000001
     4   Atom       -0.065811     -0.000002      0.000001
 --------------------------------------------------------


 ---------------------------------------------------------------------------------
              Anisotropic Spin Dipole Couplings in Principal Axis System
 ---------------------------------------------------------------------------------

       Atom             a.u.   MegaHertz   Gauss  10(-4) cm-1        Axes

              Baa    -0.5034   -67.545   -24.102   -22.531  0.8667 -0.4988  0.0000
     1 C(13)  Bbb    -0.5034   -67.545   -24.102   -22.531  0.4988  0.8667  0.0000
              Bcc     1.0067   135.090    48.204    45.061  0.0000  0.0000  1.0000
 
              Baa    -0.0738   -39.383   -14.053   -13.137  1.0000  0.0000  0.0000
     2 H(1)   Bbb    -0.0044    -2.326    -0.830    -0.776  0.0000  0.0000  1.0000
              Bcc     0.0782    41.709    14.883    13.913  0.0000  1.0000  0.0000
 
              Baa    -0.0738   -39.383   -14.053   -13.137 -0.5000  0.8660  0.0000
     3 H(1)   Bbb    -0.0044    -2.326    -0.830    -0.776  0.0000  0.0000  1.0000
              Bcc     0.0782    41.709    14.883    13.913  0.8660  0.5000  0.0000
 
              Baa    -0.0738   -39.383   -14.053   -13.137  0.5000  0.8660  0.0000
     4 H(1)   Bbb    -0.0044    -2.326    -0.830    -0.776  0.0000  0.0000  1.0000
              Bcc     0.0782    41.709    14.883    13.913  0.8660 -0.5000  0.0000
 

 ---------------------------------------------------------------------------------

 1|1|UNPC-DESKTOP-319GPER|FOpt|UM062X|6-31+G(d,p)|C1H3(2)|SAGAD|08-Oct-
 2020|0||#opt freq M062X/6-31+g(d,p)||Calculation of methyl radical wit
 h M062X||0,2|C,-1.9878372735,-0.0532736838,-0.8736515008|H,-1.98783447
 71,-1.1333565929,-0.8736516102|H,-1.9878149376,0.4867676758,0.06172779
 12|H,-1.9878149341,0.4867678652,-1.8090306835||Version=IA32W-G09RevA.0
 2|State=2-A1|HF=-39.811908|S2=0.754805|S2-1=0.|S2A=0.750016|RMSD=2.668
 e-009|RMSF=9.194e-007|Dipole=0.0000148,0.,0.|Quadrupole=-1.0171485,0.5
 085743,0.5085743,0.0000184,0.,0.|PG=C03V [C3(C1),3SGV(H1)]||@


 IF AT FIRST YOU DON'T SUCCEED, TRY, TRY AGAIN.
 THEN GIVE UP;
 THERE'S NO USE BEING A DAMN FOOL ABOUT IT.

                                 -- W. C. FIELDS
 Job cpu time:  0 days  0 hours  0 minutes 11.0 seconds.
 File lengths (MBytes):  RWF=      5 Int=      0 D2E=      0 Chk=      1 Scr=      1
 Normal termination of Gaussian 09 at Thu Oct 08 03:04:53 2020.
 Link1:  Proceeding to internal job step number  2.
 ----------------------------------------------------------------------
 #N Geom=AllCheck Guess=TCheck SCRF=Check GenChk UM062X/6-31+G(d,p) Fre
 q
 ----------------------------------------------------------------------
 1/10=4,29=7,30=1,38=1,40=1/1,3;
 2/12=2,40=1/2;
 3/5=1,6=6,7=111,11=2,14=-4,16=1,25=1,30=1,70=2,71=2,74=-55,116=2/1,2,3;
 4/5=101/1;
 5/5=2,98=1/2;
 8/6=4,10=90,11=11/1;
 11/6=1,8=1,9=11,15=111,16=1/1,2,10;
 10/6=1/2;
 6/7=2,8=2,9=2,10=2,18=1,28=1/1;
 7/8=1,10=1,25=1/1,2,3,16;
 1/10=4,30=1/3;
 99//99;
 ----------------------------------------
 Calculation of methyl radical with M062X
 ----------------------------------------
 Redundant internal coordinates taken from checkpoint file:
 C:\Users\sagad\Documents\rayGit\FQ\quimicaComputacional\class4Metilo\productos\methylRadicalM062X.chk
 Charge =  0 Multiplicity = 2
 C,0,-1.9878372735,-0.0532736838,-0.8736515008
 H,0,-1.9878344771,-1.1333565929,-0.8736516102
 H,0,-1.9878149376,0.4867676758,0.0617277912
 H,0,-1.9878149341,0.4867678652,-1.8090306835
 Recover connectivity data from disk.

 GradGradGradGradGradGradGradGradGradGradGradGradGradGradGradGradGradGrad
 Berny optimization.
 Initialization pass.
                           ----------------------------
                           !    Initial Parameters    !
                           ! (Angstroms and Degrees)  !
 --------------------------                            --------------------------
 ! Name  Definition              Value          Derivative Info.                !
 --------------------------------------------------------------------------------
 ! R1    R(1,2)                  1.0801         calculate D2E/DX2 analytically  !
 ! R2    R(1,3)                  1.0801         calculate D2E/DX2 analytically  !
 ! R3    R(1,4)                  1.0801         calculate D2E/DX2 analytically  !
 ! A1    A(2,1,3)              120.0            calculate D2E/DX2 analytically  !
 ! A2    A(2,1,4)              120.0            calculate D2E/DX2 analytically  !
 ! A3    A(3,1,4)              120.0            calculate D2E/DX2 analytically  !
 ! D1    D(2,1,4,3)           -179.9971         calculate D2E/DX2 analytically  !
 --------------------------------------------------------------------------------
 Trust Radius=3.00D-01 FncErr=1.00D-07 GrdErr=1.00D-07
 Number of steps in this run=   2 maximum allowed number of steps=   2.
 GradGradGradGradGradGradGradGradGradGradGradGradGradGradGradGradGradGrad

                          Input orientation:                          
 ---------------------------------------------------------------------
 Center     Atomic      Atomic             Coordinates (Angstroms)
 Number     Number       Type             X           Y           Z
 ---------------------------------------------------------------------
      1          6           0       -1.987837   -0.053274   -0.873652
      2          1           0       -1.987834   -1.133357   -0.873652
      3          1           0       -1.987815    0.486768    0.061728
      4          1           0       -1.987815    0.486768   -1.809031
 ---------------------------------------------------------------------
                    Distance matrix (angstroms):
                    1          2          3          4
     1  C    0.000000
     2  H    1.080083   0.000000
     3  H    1.080083   1.870758   0.000000
     4  H    1.080083   1.870758   1.870758   0.000000
 Stoichiometry    CH3(2)
 Framework group  C3V[C3(C),3SGV(H)]
 Deg. of freedom     2
 Full point group                 C3V     NOp   6
 Largest Abelian subgroup         CS      NOp   2
 Largest concise Abelian subgroup CS      NOp   2
                         Standard orientation:                         
 ---------------------------------------------------------------------
 Center     Atomic      Atomic             Coordinates (Angstroms)
 Number     Number       Type             X           Y           Z
 ---------------------------------------------------------------------
      1          6           0        0.000000    0.000000    0.000005
      2          1           0        0.000000    1.080083   -0.000011
      3          1           0       -0.935379   -0.540041   -0.000011
      4          1           0        0.935379   -0.540041   -0.000011
 ---------------------------------------------------------------------
 Rotational constants (GHZ):    286.5672828    286.5672828    143.2836414
 Standard basis: 6-31+G(d,p) (6D, 7F)
 There are    23 symmetry adapted basis functions of A'  symmetry.
 There are    11 symmetry adapted basis functions of A"  symmetry.
 Integral buffers will be    262144 words long.
 Raffenetti 2 integral format.
 Two-electron integral symmetry is turned on.
    34 basis functions,    53 primitive gaussians,    34 cartesian basis functions
     5 alpha electrons        4 beta electrons
       nuclear repulsion energy         9.6675463319 Hartrees.
 NAtoms=    4 NActive=    4 NUniq=    2 SFac= 3.00D+00 NAtFMM=   80 NAOKFM=F Big=F
 One-electron integrals computed using PRISM.
 NBasis=    34 RedAO= T  NBF=    23    11
 NBsUse=    34 1.00D-06 NBFU=    23    11
 Initial guess read from the checkpoint file:  C:\Users\sagad\Documents\rayGit\FQ
 \quimicaComputacional\class4Metilo\productos\methylRadicalM062X.chk
 B after Tr=     0.000000    0.000000    0.000000
         Rot=    1.000000    0.000000    0.000000    0.000000 Ang=   0.00 deg.
 Initial guess orbital symmetries:
 Alpha Orbitals:
       Occupied  (A1) (A1) (E) (E) (A1)
[...]
 Inverted reduced A of dimension    64 with in-core refinement.
 Isotropic polarizability for W=    0.000000       15.83 Bohr**3.
 End of Minotr Frequency-dependent properties file   721 does not exist.
 End of Minotr Frequency-dependent properties file   722 does not exist.

 **********************************************************************

            Population analysis using the SCF density.

 **********************************************************************

 Orbital symmetries:
 Alpha Orbitals:
       Occupied  (A1) (A1) (E) (E) (A1)
       Virtual   (A1) (E) (E) (A1) (A1) (E) (E) (E) (E) (A1) (A1)
                 (E) (E) (A1) (E) (E) (E) (E) (A1) (A2) (A1) (E)
                 (E) (E) (E) (A1) (E) (E) (A1)
 Beta  Orbitals:
       Occupied  (A1) (A1) (E) (E)
       Virtual   (A1) (A1) (E) (E) (A1) (E) (E) (A1) (E) (E) (A1)
                 (A1) (E) (E) (A1) (E) (E) (E) (E) (A2) (A1) (A1)
                 (E) (E) (E) (E) (A1) (E) (E) (A1)
 The electronic state is 2-A1.
 Alpha  occ. eigenvalues --  -10.55816  -0.77794  -0.49005  -0.49005  -0.28407
 Alpha virt. eigenvalues --    0.05404   0.07125   0.07125   0.10376   0.23937
 Alpha virt. eigenvalues --    0.24160   0.24160   0.67312   0.67312   0.70082
 Alpha virt. eigenvalues --    0.85614   0.99813   0.99813   1.03024   1.48469
 Alpha virt. eigenvalues --    1.48469   1.98602   1.98602   2.01327   2.04004
 Alpha virt. eigenvalues --    2.31664   2.56854   2.56854   2.73337   2.73337
 Alpha virt. eigenvalues --    3.24052   3.43228   3.43228   4.29113
  Beta  occ. eigenvalues --  -10.55080  -0.73001  -0.47739  -0.47739
  Beta virt. eigenvalues --   -0.03249   0.03950   0.07212   0.07212   0.14280
  Beta virt. eigenvalues --    0.24881   0.24881   0.25090   0.68402   0.68402
  Beta virt. eigenvalues --    0.75330   0.87954   1.02191   1.02191   1.06028
  Beta virt. eigenvalues --    1.54238   1.54238   2.02369   2.02369   2.06341
  Beta virt. eigenvalues --    2.12151   2.34408   2.60945   2.60945   2.76005
  Beta virt. eigenvalues --    2.76005   3.28410   3.48993   3.48993   4.34853
          Condensed to atoms (all electrons):
              1          2          3          4
     1  C    5.313491   0.392651   0.392651   0.392651
     2  H    0.392651   0.493732  -0.025099  -0.025099
     3  H    0.392651  -0.025099   0.493732  -0.025099
     4  H    0.392651  -0.025099  -0.025099   0.493732
 Mulliken atomic charges:
              1
     1  C   -0.491444
     2  H    0.163815
     3  H    0.163815
     4  H    0.163815
 Sum of Mulliken atomic charges =   0.00000
 Mulliken charges with hydrogens summed into heavy atoms:
              1
     1  C    0.000000
 Sum of Mulliken charges with hydrogens summed into heavy atoms =   0.00000
          Atomic-Atomic Spin Densities.
              1          2          3          4
     1  C    1.189110  -0.007784  -0.007784  -0.007784
     2  H   -0.007784  -0.049328   0.000930   0.000930
     3  H   -0.007784   0.000930  -0.049328   0.000930
     4  H   -0.007784   0.000930   0.000930  -0.049328
 Mulliken atomic spin densities:
              1
     1  C    1.165757
     2  H   -0.055252
     3  H   -0.055252
     4  H   -0.055252
 Sum of Mulliken atomic spin densities =   1.00000
 APT atomic charges:
              1
     1  C   -0.184002
     2  H    0.063340
     3  H    0.062891
     4  H    0.062891
 Sum of APT charges=   0.00512
 APT Atomic charges with hydrogens summed into heavy atoms:
              1
     1  C    0.005121
     2  H    0.000000
     3  H    0.000000
     4  H    0.000000
 Sum of APT charges=   0.00512
 Electronic spatial extent (au):  <R**2>=             30.2294
 Charge=              0.0000 electrons
 Dipole moment (field-independent basis, Debye):
    X=              0.0000    Y=              0.0000    Z=              0.0000  Tot=              0.0000
 Quadrupole moment (field-independent basis, Debye-Ang):
   XX=             -7.2658   YY=             -7.2658   ZZ=             -9.3180
   XY=              0.0000   XZ=              0.0000   YZ=              0.0000
 Traceless Quadrupole moment (field-independent basis, Debye-Ang):
   XX=              0.6840   YY=              0.6840   ZZ=             -1.3681
   XY=              0.0000   XZ=              0.0000   YZ=              0.0000
 Octapole moment (field-independent basis, Debye-Ang**2):
  XXX=              0.0000  YYY=              0.9055  ZZZ=             -0.0001  XYY=              0.0000
  XXY=             -0.9055  XXZ=              0.0000  XZZ=              0.0000  YZZ=              0.0000
  YYZ=              0.0000  XYZ=              0.0000
 Hexadecapole moment (field-independent basis, Debye-Ang**3):
 XXXX=            -15.3505 YYYY=            -15.3505 ZZZZ=            -13.4703 XXXY=              0.0000
 XXXZ=              0.0000 YYYX=              0.0000 YYYZ=              0.0000 ZZZX=              0.0000
 ZZZY=              0.0000 XXYY=             -5.1168 XXZZ=             -5.1742 YYZZ=             -5.1742
 XXYZ=              0.0000 YYXZ=              0.0000 ZZXY=              0.0000
 N-N= 9.667546331903D+00 E-N=-1.635646285084D+02  KE= 5.854859339533D+01
 Symmetry A'   KE= 5.563189886479D+01
 Symmetry A"   KE= 2.916694530542D+00
  Exact polarizability:  12.700   0.000  12.715   0.000   0.000  22.068
 Approx polarizability:  12.287   0.000  12.287   0.000   0.000   9.793
                          Isotropic Fermi Contact Couplings
        Atom                 a.u.       MegaHertz       Gauss      10(-4) cm-1
     1  C(13)              0.18880     212.24629      75.73475      70.79774
     2  H(1)              -0.01639     -73.25448     -26.13902     -24.43507
     3  H(1)              -0.01639     -73.25448     -26.13902     -24.43507
     4  H(1)              -0.01639     -73.25448     -26.13902     -24.43507
 --------------------------------------------------------
       Center         ----  Spin Dipole Couplings  ----
                      3XX-RR        3YY-RR        3ZZ-RR
 --------------------------------------------------------
     1   Atom       -0.503353     -0.503353      1.006706
     2   Atom       -0.073813      0.078173     -0.004360
     3   Atom        0.040176     -0.035816     -0.004360
     4   Atom        0.040176     -0.035816     -0.004360
 --------------------------------------------------------
                        XY            XZ            YZ
 --------------------------------------------------------
     1   Atom        0.000000      0.000000      0.000000
     2   Atom        0.000000      0.000000     -0.000002
     3   Atom        0.065811      0.000002      0.000001
     4   Atom       -0.065811     -0.000002      0.000001
 --------------------------------------------------------


 ---------------------------------------------------------------------------------
              Anisotropic Spin Dipole Couplings in Principal Axis System
 ---------------------------------------------------------------------------------

       Atom             a.u.   MegaHertz   Gauss  10(-4) cm-1        Axes

              Baa    -0.5034   -67.545   -24.102   -22.531  0.9471  0.3209  0.0000
     1 C(13)  Bbb    -0.5034   -67.545   -24.102   -22.531 -0.3209  0.9471  0.0000
              Bcc     1.0067   135.090    48.204    45.061  0.0000  0.0000  1.0000
 
              Baa    -0.0738   -39.383   -14.053   -13.137  1.0000  0.0000  0.0000
     2 H(1)   Bbb    -0.0044    -2.326    -0.830    -0.776  0.0000  0.0000  1.0000
              Bcc     0.0782    41.709    14.883    13.913  0.0000  1.0000  0.0000
 
              Baa    -0.0738   -39.383   -14.053   -13.137 -0.5000  0.8660  0.0000
     3 H(1)   Bbb    -0.0044    -2.326    -0.830    -0.776  0.0000  0.0000  1.0000
              Bcc     0.0782    41.709    14.883    13.913  0.8660  0.5000  0.0000
 
              Baa    -0.0738   -39.383   -14.053   -13.137  0.5000  0.8660  0.0000
     4 H(1)   Bbb    -0.0044    -2.326    -0.830    -0.776  0.0000  0.0000  1.0000
              Bcc     0.0782    41.709    14.883    13.913  0.8660 -0.5000  0.0000
 

 ---------------------------------------------------------------------------------

 Calling FoFJK, ICntrl=    100127 FMM=F ISym2X=1 I1Cent= 0 IOpClX= 1 NMat=1 NMatS=1 NMatT=0.
 Full mass-weighted force constant matrix:
 Low frequencies ---  -90.2889  -36.7242   -0.4043   10.9279  256.6396  258.0866
 Low frequencies ---  483.6305 1420.5460 1420.5988
 Diagonal vibrational polarizability:
        0.0663426       0.0675181      14.0904985
 Harmonic frequencies (cm**-1), IR intensities (KM/Mole), Raman scattering
 activities (A**4/AMU), depolarization ratios for plane and unpolarized
 incident light, reduced masses (AMU), force constants (mDyne/A),
 and normal coordinates:
                     1                      2                      3
                    A1                      E                      E
 Frequencies --   483.0058              1420.5460              1420.5988
 Red. masses --     1.2356                 1.1016                 1.1016
 Frc consts  --     0.1698                 1.3098                 1.3099
 IR Inten    --   122.1513                 4.4179                 4.4951
  Atom  AN      X      Y      Z        X      Y      Z        X      Y      Z
     1   6     0.00   0.00   0.14    -0.09   0.00   0.00     0.00   0.09   0.00
     2   1     0.00   0.00  -0.57     0.81   0.00   0.00     0.00   0.08   0.00
     3   1     0.00   0.00  -0.57     0.15  -0.38   0.00     0.38  -0.59   0.00
     4   1     0.00   0.00  -0.57     0.15   0.38   0.00    -0.38  -0.59   0.00
                     4                      5                      6
                    A1                      E                      E
 Frequencies --  3155.3205              3336.3270              3336.3337
 Red. masses --     1.0078                 1.1188                 1.1188
 Frc consts  --     5.9118                 7.3375                 7.3375
 IR Inten    --     0.0011                 3.1327                 3.0716
  Atom  AN      X      Y      Z        X      Y      Z        X      Y      Z
     1   6     0.00   0.00   0.00     0.00   0.10   0.00     0.10   0.00   0.00
     2   1     0.00  -0.58   0.00     0.00  -0.81   0.00     0.01   0.00   0.00
     3   1     0.50   0.29   0.00    -0.36  -0.19   0.00    -0.61  -0.36   0.00
     4   1    -0.50   0.29   0.00     0.36  -0.19   0.00    -0.61   0.36   0.00

 -------------------
 - Thermochemistry -
 -------------------
 Temperature   298.150 Kelvin.  Pressure   1.00000 Atm.
 Atom     1 has atomic number  6 and mass  12.00000
 Atom     2 has atomic number  1 and mass   1.00783
 Atom     3 has atomic number  1 and mass   1.00783
 Atom     4 has atomic number  1 and mass   1.00783
 Molecular mass:    15.02348 amu.
 Principal axes and moments of inertia in atomic units:
                           1         2         3
     Eigenvalues --     6.29779   6.29779  12.59558
           X           -0.00020   1.00000   0.00000
           Y            1.00000   0.00020   0.00000
           Z            0.00000   0.00000   1.00000
 This molecule is an oblate symmetric top.
 Rotational symmetry number  3.
 Rotational temperatures (Kelvin)     13.75304    13.75304     6.87652
 Rotational constants (GHZ):         286.56728   286.56728   143.28364
 Zero-point vibrational energy      78667.2 (Joules/Mol)
                                   18.80192 (Kcal/Mol)
 Warning -- explicit consideration of   1 degrees of freedom as
           vibrations may cause significant error
 Vibrational temperatures:    694.94  2043.85  2043.92  4539.80  4800.22
          (Kelvin)           4800.23
 
 Zero-point correction=                           0.029963 (Hartree/Particle)
 Thermal correction to Energy=                    0.033046
 Thermal correction to Enthalpy=                  0.033990
 Thermal correction to Gibbs Free Energy=         0.011196
 Sum of electronic and zero-point Energies=            -39.781945
 Sum of electronic and thermal Energies=               -39.778862
 Sum of electronic and thermal Enthalpies=             -39.777918
 Sum of electronic and thermal Free Energies=          -39.800712
 
                     E (Thermal)             CV                S
                      KCal/Mol        Cal/Mol-Kelvin    Cal/Mol-Kelvin
 Total                   20.737              7.447             47.974
 Electronic               0.000              0.000              1.377
 Translational            0.889              2.981             34.068
 Rotational               0.889              2.981             11.794
 Vibrational             18.959              1.485              0.735
 Vibration     1          0.839              1.288              0.702
                       Q            Log10(Q)             Ln(Q)
 Total Bot       0.708128D-05         -5.149889        -11.858057
 Total V=0       0.428544D+09          8.631995         19.875904
 Vib (Bot)       0.183421D-13        -13.736552        -31.629580
 Vib (Bot)    1  0.345368D+00         -0.461717         -1.063144
 Vib (V=0)       0.111002D+01          0.045332          0.104380
 Vib (V=0)    1  0.110768D+01          0.044416          0.102271
 Electronic      0.200000D+01          0.301030          0.693147
 Translational   0.228882D+07          6.359611         14.643545
 Rotational      0.843379D+02          1.926023          4.434831
 ***** Axes restored to original set *****
 -------------------------------------------------------------------
 Center     Atomic                   Forces (Hartrees/Bohr)
 Number     Number              X              Y              Z
 -------------------------------------------------------------------
      1        6           0.000000445    0.000000000    0.000000000
      2        1          -0.000000148    0.000001815    0.000000000
      3        1          -0.000000148   -0.000000907   -0.000001571
      4        1          -0.000000148   -0.000000907    0.000001571
 -------------------------------------------------------------------
 Cartesian Forces:  Max     0.000001815 RMS     0.000000919

 GradGradGradGradGradGradGradGradGradGradGradGradGradGradGradGradGradGrad
 Berny optimization.
 Internal  Forces:  Max     0.000001815 RMS     0.000001192
 Search for a local minimum.
 Step number   1 out of a maximum of    2
 All quantities printed in internal units (Hartrees-Bohrs-Radians)
 Second derivative matrix not updated -- analytic derivatives used.
 The second derivative matrix:
                          R1        R2        R3        A1        A2
           R1           0.37925
           R2           0.00025   0.37922
           R3           0.00025   0.00023   0.37922
           A1           0.00523   0.00523  -0.01048   0.06418
           A2           0.00523  -0.01048   0.00523  -0.03208   0.06418
           A3          -0.01046   0.00525   0.00525  -0.03210  -0.03210
           D1           0.00000   0.00000   0.00000   0.00000   0.00000
                          A3        D1
           A3           0.06419
           D1           0.00000   0.00642
     Eigenvalues ---    0.00642   0.09539   0.09542   0.37972   0.37985
     Eigenvalues ---    0.379851000.00000
 Angle between quadratic step and forces=  73.77 degrees.
 Linear search not attempted -- first point.
 Iteration  1 RMS(Cart)=  0.00000847 RMS(Int)=  0.00000000
 Iteration  2 RMS(Cart)=  0.00000000 RMS(Int)=  0.00000000
 ClnCor:  largest displacement from symmetrization is 1.41D-09 for atom     4.
 Variable       Old X    -DE/DX   Delta X   Delta X   Delta X     New X
                                 (Linear)    (Quad)   (Total)
    R1        2.04106   0.00000   0.00000   0.00000   0.00000   2.04106
    R2        2.04106   0.00000   0.00000   0.00000   0.00000   2.04106
    R3        2.04106   0.00000   0.00000   0.00000   0.00000   2.04106
    A1        2.09440   0.00000   0.00000   0.00000   0.00000   2.09440
    A2        2.09440   0.00000   0.00000   0.00000   0.00000   2.09440
    A3        2.09440   0.00000   0.00000   0.00000   0.00000   2.09440
    D1       -3.14154   0.00000   0.00000  -0.00004  -0.00004  -3.14158
         Item               Value     Threshold  Converged?
 Maximum Force            0.000002     0.000450     YES
 RMS     Force            0.000001     0.000300     YES
 Maximum Displacement     0.000018     0.001800     YES
 RMS     Displacement     0.000008     0.001200     YES
 Predicted change in Energy=-1.835493D-11
 Optimization completed.
    -- Stationary point found.
                           ----------------------------
                           !   Optimized Parameters   !
                           ! (Angstroms and Degrees)  !
 --------------------------                            --------------------------
 ! Name  Definition              Value          Derivative Info.                !
 --------------------------------------------------------------------------------
 ! R1    R(1,2)                  1.0801         -DE/DX =    0.0                 !
 ! R2    R(1,3)                  1.0801         -DE/DX =    0.0                 !
 ! R3    R(1,4)                  1.0801         -DE/DX =    0.0                 !
 ! A1    A(2,1,3)              120.0            -DE/DX =    0.0                 !
 ! A2    A(2,1,4)              120.0            -DE/DX =    0.0                 !
 ! A3    A(3,1,4)              120.0            -DE/DX =    0.0                 !
 ! D1    D(2,1,4,3)           -179.9971         -DE/DX =    0.0                 !
 --------------------------------------------------------------------------------
 GradGradGradGradGradGradGradGradGradGradGradGradGradGradGradGradGradGrad

 1|1|UNPC-DESKTOP-319GPER|Freq|UM062X|6-31+G(d,p)|C1H3(2)|SAGAD|08-Oct-
 2020|0||#N Geom=AllCheck Guess=TCheck SCRF=Check GenChk UM062X/6-31+G(
 d,p) Freq||Calculation of methyl radical with M062X||0,2|C,-1.98783727
 35,-0.0532736838,-0.8736515008|H,-1.9878344771,-1.1333565929,-0.873651
 6102|H,-1.9878149376,0.4867676758,0.0617277912|H,-1.9878149341,0.48676
 78652,-1.8090306835||Version=IA32W-G09RevA.02|State=2-A1|HF=-39.811908
 |S2=0.754805|S2-1=0.|S2A=0.750016|RMSD=3.274e-010|RMSF=9.193e-007|Zero
 Point=0.0299628|Thermal=0.033046|Dipole=0.0000148,0.,0.|DipoleDeriv=-0
 .5358652,0.0000067,0.,0.0000061,-0.0080568,0.,0.,0.,-0.0080832,0.18626
 9,0.0000009,0.,-0.0000327,-0.0495358,0.,0.,0.,0.053288,0.1837011,-0.00
 00038,-0.0000042,0.000013,0.0281892,-0.0437025,0.0000253,-0.0438077,-0
 .0232161,0.1837011,-0.0000038,0.0000042,0.000013,0.0281892,0.0437025,-
 0.0000253,0.0438078,-0.0232161|Polar=22.0676533,-0.0001141,12.7146167,
 0.,0.,12.6998827|PG=C03V [C3(C1),3SGV(H1)]|NImag=0||0.01722824,0.00000
 747,0.63241011,0.,0.,0.63236222,-0.00746287,0.00000157,0.,0.00415830,-
 0.00000010,-0.36569772,-0.00000003,-0.00000030,0.37928866,0.,-0.000000
 03,-0.05611472,0.,0.00000003,0.04611038,-0.00616376,-0.00000449,-0.000
 00672,0.00164628,0.00000020,0.00000016,0.00415830,-0.00000366,-0.13343
 330,-0.13414725,-0.00000064,-0.00675267,-0.02393543,0.00000392,0.12940
 492,-0.00000531,-0.13402142,-0.28821289,0.,0.00364959,0.00495936,0.000
 00592,0.14427041,0.29599412,-0.00616376,-0.00000449,0.00000672,0.00164
 628,0.00000020,-0.00000016,0.00164628,0.00000034,-0.00000065,0.0041583
 0,-0.00000366,-0.13343336,0.13414728,-0.00000064,-0.00675267,0.0239354
 2,0.00000034,0.01081538,-0.01379250,0.00000392,0.12940498,0.00000531,0
 .13402145,-0.28821283,0.,-0.00364959,0.00495937,0.00000065,0.01379251,
 -0.01260868,-0.00000592,-0.14427044,0.29599406||-0.00000044,0.,0.,0.00
 000015,-0.00000181,0.,0.00000015,0.00000091,0.00000157,0.00000015,0.00
 000091,-0.00000157|||@


 IF AT FIRST YOU DON'T SUCCEED, TRY, TRY AGAIN.
 THEN GIVE UP;
 THERE'S NO USE BEING A DAMN FOOL ABOUT IT.

                                 -- W. C. FIELDS
 Job cpu time:  0 days  0 hours  0 minutes  4.0 seconds.
 File lengths (MBytes):  RWF=      5 Int=      0 D2E=      0 Chk=      1 Scr=      1
 Normal termination of Gaussian 09 at Thu Oct 08 03:04:57 2020.
