 Entering Link 1 = C:\G09W\l1.exe PID=      4924.
  
 Copyright (c) 1988,1990,1992,1993,1995,1998,2003,2009, Gaussian, Inc.
                  All Rights Reserved.
  
 This is part of the Gaussian(R) 09 program.  It is based on
 the Gaussian(R) 03 system (copyright 2003, Gaussian, Inc.),
 the Gaussian(R) 98 system (copyright 1998, Gaussian, Inc.),
 the Gaussian(R) 94 system (copyright 1995, Gaussian, Inc.),
 the Gaussian 92(TM) system (copyright 1992, Gaussian, Inc.),
 the Gaussian 90(TM) system (copyright 1990, Gaussian, Inc.),
 the Gaussian 88(TM) system (copyright 1988, Gaussian, Inc.),
 the Gaussian 86(TM) system (copyright 1986, Carnegie Mellon
 University), and the Gaussian 82(TM) system (copyright 1983,
 Carnegie Mellon University). Gaussian is a federally registered
 trademark of Gaussian, Inc.
  
 This software contains proprietary and confidential information,
 including trade secrets, belonging to Gaussian, Inc.
  
 This software is provided under written license and may be
 used, copied, transmitted, or stored only in accord with that
 written license.
  
 The following legend is applicable only to US Government
 contracts under FAR:
  
                    RESTRICTED RIGHTS LEGEND
  
 Use, reproduction and disclosure by the US Government is
 subject to restrictions as set forth in subparagraphs (a)
 and (c) of the Commercial Computer Software - Restricted
 Rights clause in FAR 52.227-19.
  
 Gaussian, Inc.
 340 Quinnipiac St., Bldg. 40, Wallingford CT 06492
  
  
 ---------------------------------------------------------------
 Warning -- This program may not be used in any manner that
 competes with the business of Gaussian, Inc. or will provide
 assistance to any competitor of Gaussian, Inc.  The licensee
 of this program is prohibited from giving any competitor of
 Gaussian, Inc. access to this program.  By using this program,
 the user acknowledges that Gaussian, Inc. is engaged in the
 business of creating and licensing software in the field of
 computational chemistry and represents and warrants to the
 licensee that it is not a competitor of Gaussian, Inc. and that
 it will not use this program in any manner prohibited above.
 ---------------------------------------------------------------
  

 Cite this work as:
 Gaussian 09, Revision A.02,
 M. J. Frisch, G. W. Trucks, H. B. Schlegel, G. E. Scuseria, 
 M. A. Robb, J. R. Cheeseman, G. Scalmani, V. Barone, B. Mennucci, 
 G. A. Petersson, H. Nakatsuji, M. Caricato, X. Li, H. P. Hratchian, 
 A. F. Izmaylov, J. Bloino, G. Zheng, J. L. Sonnenberg, M. Hada, 
 M. Ehara, K. Toyota, R. Fukuda, J. Hasegawa, M. Ishida, T. Nakajima, 
 Y. Honda, O. Kitao, H. Nakai, T. Vreven, J. A. Montgomery, Jr., 
 J. E. Peralta, F. Ogliaro, M. Bearpark, J. J. Heyd, E. Brothers, 
 K. N. Kudin, V. N. Staroverov, R. Kobayashi, J. Normand, 
 K. Raghavachari, A. Rendell, J. C. Burant, S. S. Iyengar, J. Tomasi, 
 M. Cossi, N. Rega, J. M. Millam, M. Klene, J. E. Knox, J. B. Cross, 
 V. Bakken, C. Adamo, J. Jaramillo, R. Gomperts, R. E. Stratmann, 
 O. Yazyev, A. J. Austin, R. Cammi, C. Pomelli, J. W. Ochterski, 
 R. L. Martin, K. Morokuma, V. G. Zakrzewski, G. A. Voth, 
 P. Salvador, J. J. Dannenberg, S. Dapprich, A. D. Daniels, 
 O. Farkas, J. B. Foresman, J. V. Ortiz, J. Cioslowski, 
 and D. J. Fox, Gaussian, Inc., Wallingford CT, 2009.
 
 ******************************************
 Gaussian 09:  IA32W-G09RevA.02 11-Jun-2009
                05-Feb-2021 
 ******************************************
 %chk=D:\Documents\rayGit\FQ\quimicaComputacional\proyecto\decompositionHydrogenP
 eroxide\descompositionByRadicals\solvated\step1\ts\ts1M062X.chk
 %mem=1500MB
 %nprocshared=4
 Will use up to    4 processors via shared memory.
 ----------------------------------------------------------------------
 # opt(readfc,ts,noeigen) geom=check guess=check freq=noraman 6-31+g(d,
 p) scrf=smd m062x iop(1/8=3)
 ----------------------------------------------------------------------
 1/5=1,8=3,10=3,11=1,14=-1,18=20,26=3,29=2,38=1/1,3;
 2/9=110,12=2,40=1/2;
 3/5=1,6=6,7=111,11=2,14=-4,16=1,25=1,30=1,70=32201,71=1,72=1,74=-55,116=-2/1,2,3;
 4/5=1/1;
 5/5=2,38=6/2;
 6/7=2,8=2,9=2,10=2,28=1/1;
 7//1,2,3,16;
 1/5=1,8=3,11=1,14=-1,18=20/3(2);
 2/9=110/2;
 99//99;
 2/9=110/2;
 3/5=1,6=6,7=111,11=2,14=-2,16=1,25=1,30=1,70=32205,71=1,74=-55/1,2,3;
 4/5=5,16=3/1;
 5/5=2,38=5/2;
 7//1,2,3,16;
 1/5=1,8=3,11=1,14=-1,18=20/3(-5);
 2/9=110/2;
 6/7=2,8=2,9=2,10=2,19=2,28=1/1;
 99/9=1/99;
 ------------------------------------
 transition state solvated with m062x
 ------------------------------------
 Redundant internal coordinates taken from checkpoint file:
 D:\Documents\rayGit\FQ\quimicaComputacional\proyecto\decompositionHydrogenPeroxide\descompositionByRadicals\solvated\step1\ts\ts1M062X.chk
 Charge =  0 Multiplicity = 1
 O,0,-0.8889701011,-0.1087196419,0.011589853
 H,0,-1.148515004,0.1228009877,-0.8873923397
 O,0,0.6253862647,-0.0190480232,0.101146341
 H,0,0.8845737704,0.8800635573,-0.1302796842
 Recover connectivity data from disk.

 GradGradGradGradGradGradGradGradGradGradGradGradGradGradGradGradGradGrad
 Berny optimization.
 Initialization pass.
 Force constant matrix read from checkpoint file:
 D:\Documents\rayGit\FQ\quimicaComputacional\proyecto\decompositionHydrogenPeroxi
 de\descompositionByRadicals\solvated\step1\ts\ts1M062X.chk
                           ----------------------------
                           !    Initial Parameters    !
                           ! (Angstroms and Degrees)  !
 --------------------------                            --------------------------
 ! Name  Definition              Value          Derivative Info.                !
 --------------------------------------------------------------------------------
 ! R1    R(1,2)                  0.9639         D2E/DX2 =    0.5699             !
 ! R2    R(1,3)                  1.5197         D2E/DX2 =    0.1264             !
 ! R3    R(3,4)                  0.9639         D2E/DX2 =    0.5696             !
 ! A1    A(2,1,3)              108.0057         D2E/DX2 =    0.1675             !
 ! A2    A(1,3,4)              107.9896         D2E/DX2 =    0.1675             !
 ! D1    D(2,1,3,4)             58.6185         D2E/DX2 =   -0.0004             !
 --------------------------------------------------------------------------------
 Trust Radius=3.00D-02 FncErr=1.00D-07 GrdErr=1.00D-06
 Number of steps in this run=  20 maximum allowed number of steps= 100.
 Search for a saddle point of order  1.
 GradGradGradGradGradGradGradGradGradGradGradGradGradGradGradGradGradGrad

                          Input orientation:                          
 ---------------------------------------------------------------------
 Center     Atomic      Atomic             Coordinates (Angstroms)
 Number     Number       Type             X           Y           Z
 ---------------------------------------------------------------------
      1          8           0       -0.888970   -0.108720    0.011590
      2          1           0       -1.148515    0.122801   -0.887392
      3          8           0        0.625386   -0.019048    0.101146
      4          1           0        0.884574    0.880064   -0.130280
 ---------------------------------------------------------------------
                    Distance matrix (angstroms):
                    1          2          3          4
     1  O    0.000000
     2  H    0.963916   0.000000
     3  O    1.519650   2.035695   0.000000
     4  H    2.035504   2.297850   0.963918   0.000000
 Stoichiometry    H2O2
 Framework group  C1[X(H2O2)]
 Deg. of freedom     6
 Full point group                 C1      NOp   1
 Largest Abelian subgroup         C1      NOp   1
 Largest concise Abelian subgroup C1      NOp   1
                         Standard orientation:                         
 ---------------------------------------------------------------------
 Center     Atomic      Atomic             Coordinates (Angstroms)
 Number     Number       Type             X           Y           Z
 ---------------------------------------------------------------------
      1          8           0        0.757073   -0.088824   -0.064446
      2          1           0        1.092024    0.710497    0.357488
      3          8           0       -0.757102   -0.088821    0.064438
      4          1           0       -1.091786    0.710656   -0.357419
 ---------------------------------------------------------------------
 Rotational constants (GHZ):    321.3408119     23.9181293     22.9923909
 Standard basis: 6-31+G(d,p) (6D, 7F)
 There are    48 symmetry adapted basis functions of A   symmetry.
 Integral buffers will be    262144 words long.
 Raffenetti 2 integral format.
 Two-electron integral symmetry is turned on.
    48 basis functions,    78 primitive gaussians,    48 cartesian basis functions
     9 alpha electrons        9 beta electrons
       nuclear repulsion energy        35.4597287813 Hartrees.
 NAtoms=    4 NActive=    4 NUniq=    4 SFac= 7.50D-01 NAtFMM=   80 NAOKFM=F Big=F
 ------------------------------------------------------------------------------
 Polarizable Continuum Model (PCM)
 =================================
 Model                : PCM.
 Atomic radii         : SMD-Coulomb.
 Polarization charges : Total charges.
 Charge compensation  : None.
 Solution method      : Matrix inversion.
 Cavity type          : VdW (van der Waals Surface) (Alpha=1.000).
 Cavity algorithm     : GePol (No added spheres)
                        Default sphere list used, NSphG=    4.
                        Lebedev-Laikov grids with approx.  5.0 points / Ang**2.
                        Smoothing algorithm: Karplus/York (Gamma=1.0000).
                        Polarization charges: spherical gaussians, with
                                              point-specific exponents (IZeta= 3).
                        Self-potential: point-specific (ISelfS= 7).
                        Self-field    : sphere-specific E.n sum rule (ISelfD= 2).
 1st derivatives      : Analytical E(r).r(x)/FMM algorithm (CHGder, D1EAlg=3).
                        Cavity 1st derivative terms included.
 Solvent              : Water, Eps=  78.355300 Eps(inf)=   1.777849
 ------------------------------------------------------------------------------
 Spheres list:
 ISph  on   Nord    Re0     Alpha      Xe            Ye            Ze
    1   O      1    1.520   1.000      0.757073     -0.088824     -0.064446
    2   H      2    1.200   1.000      1.092024      0.710497      0.357488
    3   O      3    1.520   1.000     -0.757102     -0.088821      0.064438
    4   H      4    1.200   1.000     -1.091786      0.710656     -0.357419
 ------------------------------------------------------------------------------
 ------------------------------------------------------------------------------
 Atomic radii for non-electrostatic terms: SMD-CDS.
 ------------------------------------------------------------------------------
 Nuclear repulsion after PCM non-electrostatic terms =       35.4619401792 Hartrees.
 One-electron integrals computed using PRISM.
 NBasis=    48 RedAO= T  NBF=    48
 NBsUse=    48 1.00D-06 NBFU=    48
 Initial guess read from the checkpoint file:  D:\Documents\rayGit\FQ\quimicaComp
 utacional\proyecto\decompositionHydrogenPeroxide\descompositionByRadicals\solvat
 ed\step1\ts\ts1M062X.chk
 B after Tr=     0.000000    0.000000    0.000000
         Rot=    1.000000    0.000000    0.000000    0.000000 Ang=   0.00 deg.
 Initial guess orbital symmetries:
       Occupied  (A) (A) (A) (A) (A) (A) (A) (A) (A)
       Virtual   (A) (A) (A) (A) (A) (A) (A) (A) (A) (A) (A) (A)
                 (A) (A) (A) (A) (A) (A) (A) (A) (A) (A) (A) (A)
                 (A) (A) (A) (A) (A) (A) (A) (A) (A) (A) (A) (A)
                 (A) (A) (A)
 Requested convergence on RMS density matrix=1.00D-08 within 128 cycles.
 Requested convergence on MAX density matrix=1.00D-06.
 Requested convergence on             energy=1.00D-06.
 No special actions if energy rises.
 Keep R1 ints in memory in canonical form, NReq=3735897.
 Error on total polarization charges =  0.02897
 SCF Done:  E(RM062X) =  -151.496246412     A.U. after    1 cycles
             Convg  =    0.9028D-09             -V/T =  2.0094
 SMD-CDS (non-electrostatic) energy             (kcal/mol) =       1.39
 (included in total energy above)

 **********************************************************************

            Population analysis using the SCF density.

 **********************************************************************

 Orbital symmetries:
       Occupied  (A) (A) (A) (A) (A) (A) (A) (A) (A)
       Virtual   (A) (A) (A) (A) (A) (A) (A) (A) (A) (A) (A) (A)
                 (A) (A) (A) (A) (A) (A) (A) (A) (A) (A) (A) (A)
                 (A) (A) (A) (A) (A) (A) (A) (A) (A) (A) (A) (A)
                 (A) (A) (A)
 The electronic state is 1-A.
 Alpha  occ. eigenvalues --  -19.71770 -19.71755  -1.22563  -1.03633  -0.63494
 Alpha  occ. eigenvalues --   -0.53719  -0.50300  -0.43087  -0.37856
 Alpha virt. eigenvalues --    0.01420   0.08870   0.15555   0.15616   0.16808
 Alpha virt. eigenvalues --    0.20590   0.20697   0.22036   0.27639   0.31983
 Alpha virt. eigenvalues --    0.33918   1.01402   1.03578   1.08720   1.10967
 Alpha virt. eigenvalues --    1.12959   1.20096   1.24106   1.29220   1.31813
 Alpha virt. eigenvalues --    1.50909   1.57285   1.60736   1.63997   1.66305
 Alpha virt. eigenvalues --    1.91762   1.99045   2.18935   2.42212   2.44989
 Alpha virt. eigenvalues --    2.66807   2.71241   2.74205   2.91548   3.09214
 Alpha virt. eigenvalues --    3.40310   3.44819   3.87116   4.19003
          Condensed to atoms (all electrons):
              1          2          3          4
     1  O    8.097605   0.265425   0.081553  -0.009219
     2  H    0.265425   0.312392  -0.009212  -0.003942
     3  O    0.081553  -0.009212   8.097528   0.265432
     4  H   -0.009219  -0.003942   0.265432   0.312399
 Mulliken atomic charges:
              1
     1  O   -0.435365
     2  H    0.435336
     3  O   -0.435301
     4  H    0.435330
 Sum of Mulliken atomic charges =   0.00000
 Mulliken charges with hydrogens summed into heavy atoms:
              1
     1  O   -0.000028
     3  O    0.000028
 Sum of Mulliken charges with hydrogens summed into heavy atoms =   0.00000
 Electronic spatial extent (au):  <R**2>=             70.7217
 Charge=              0.0000 electrons
 Dipole moment (field-independent basis, Debye):
    X=              0.0003    Y=              3.8090    Z=              0.0003  Tot=              3.8090
 Quadrupole moment (field-independent basis, Debye-Ang):
   XX=             -9.8263   YY=            -10.2145   ZZ=            -12.5760
   XY=              0.0001   XZ=              2.2642   YZ=              0.0000
 Traceless Quadrupole moment (field-independent basis, Debye-Ang):
   XX=              1.0460   YY=              0.6578   ZZ=             -1.7038
   XY=              0.0001   XZ=              2.2642   YZ=              0.0000
 Octapole moment (field-independent basis, Debye-Ang**2):
  XXX=              0.0020  YYY=              3.8968  ZZZ=              0.0002  XYY=             -0.0004
  XXY=              5.4550  XXZ=              0.0007  XZZ=              0.0003  YZZ=              1.1413
  YYZ=             -0.0001  XYZ=              1.6507
 Hexadecapole moment (field-independent basis, Debye-Ang**3):
 XXXX=            -46.6866 YYYY=            -11.1846 ZZZZ=            -11.9498 XXXY=              0.0012
 XXXZ=              3.6026 YYYX=             -0.0003 YYYZ=             -0.0002 ZZZX=              1.7402
 ZZZY=              0.0000 XXYY=             -8.8116 XXZZ=            -11.2605 YYZZ=             -3.7217
 XXYZ=              0.0003 YYXZ=              1.3817 ZZXY=              0.0001
 N-N= 3.546194017919D+01 E-N=-4.286292802750D+02  KE= 1.500926050115D+02
 D1PCM: PCM CHGder 1st derivatives, ID1Alg=3 FixD1E=F DoIter=F DoCFld=F I1PDM=0.
 Calling FoFJK, ICntrl=      2127 FMM=F ISym2X=0 I1Cent= 0 IOpClX= 0 NMat=1 NMatS=1 NMatT=0.
 ***** Axes restored to original set *****
 -------------------------------------------------------------------
 Center     Atomic                   Forces (Hartrees/Bohr)
 Number     Number              X              Y              Z
 -------------------------------------------------------------------
      1        8           0.045160739    0.006291506    0.021994910
      2        1           0.009973133    0.002895168   -0.012788084
      3        8          -0.045184257   -0.021962739   -0.006319982
      4        1          -0.009949615    0.012776065   -0.002886844
 -------------------------------------------------------------------
 Cartesian Forces:  Max     0.045184257 RMS     0.021734592

 GradGradGradGradGradGradGradGradGradGradGradGradGradGradGradGradGradGrad
 Berny optimization.
 Internal  Forces:  Max     0.055988183 RMS     0.027257380
 Search for a saddle point.
 Step number   1 out of a maximum of   20
 All quantities printed in internal units (Hartrees-Bohrs-Radians)
 Swaping is turned off.
 Second derivative matrix not updated -- first step.
 The second derivative matrix:
                          R1        R2        R3        A1        A2
           R1           0.56993
           R2          -0.00927   0.12640
           R3           0.00200  -0.00925   0.56959
           A1          -0.00661   0.01924  -0.00250   0.16751
           A2          -0.00251   0.01930  -0.00663   0.00493   0.16749
           D1           0.00142   0.02389   0.00141   0.01121   0.01120
                          D1
           D1          -0.00044
     Eigenvalues ---   -0.00550   0.11544   0.16253   0.18782   0.56779
     Eigenvalues ---    0.57240
 Eigenvectors required to have negative eigenvalues:
                          D1        R2        A1        A2        R1
   1                    0.98408  -0.16612  -0.04434  -0.04425  -0.00578
                          R3
   1                   -0.00577
 RFO step:  Lambda0=1.102536210D-02 Lambda=-2.23511615D-02.
 Linear search not attempted -- option 19 set.
 Maximum step size (   0.030) exceeded in Quadratic search.
    -- Step size scaled by   0.034
 Iteration  1 RMS(Cart)=  0.01127848 RMS(Int)=  0.00010584
 Iteration  2 RMS(Cart)=  0.00008043 RMS(Int)=  0.00000001
 Iteration  3 RMS(Cart)=  0.00000001 RMS(Int)=  0.00000000
 Variable       Old X    -DE/DX   Delta X   Delta X   Delta X     New X
                                 (Linear)    (Quad)   (Total)
    R1        1.82154   0.00991   0.00000   0.00052   0.00052   1.82205
    R2        2.87172  -0.05599   0.00000  -0.00650  -0.00650   2.86522
    R3        1.82154   0.00990   0.00000   0.00052   0.00052   1.82206
    A1        1.88506  -0.02371   0.00000  -0.00155  -0.00155   1.88351
    A2        1.88477  -0.02366   0.00000  -0.00153  -0.00153   1.88324
    D1        1.02309   0.00225   0.00000  -0.02920  -0.02920   0.99389
         Item               Value     Threshold  Converged?
 Maximum Force            0.055988     0.000450     NO 
 RMS     Force            0.027257     0.000300     NO 
 Maximum Displacement     0.012583     0.001800     NO 
 RMS     Displacement     0.011265     0.001200     NO 
 Predicted change in Energy=-3.725680D-04
 GradGradGradGradGradGradGradGradGradGradGradGradGradGradGradGradGradGrad

                          Input orientation:                          
 ---------------------------------------------------------------------
 Center     Atomic      Atomic             Coordinates (Angstroms)
 Number     Number       Type             X           Y           Z
 ---------------------------------------------------------------------
      1          8           0       -0.886887   -0.114145    0.011184
      2          1           0       -1.143449    0.129460   -0.885751
      3          8           0        0.623301   -0.018641    0.106569
      4          1           0        0.879510    0.878423   -0.136938
 ---------------------------------------------------------------------
                    Distance matrix (angstroms):
                    1          2          3          4
     1  O    0.000000
     2  H    0.964189   0.000000
     3  O    1.516209   2.031758   0.000000
     4  H    2.031574   2.283426   0.964191   0.000000
 Stoichiometry    H2O2
 Framework group  C1[X(H2O2)]
 Deg. of freedom     6
 Full point group                 C1      NOp   1
 Largest Abelian subgroup         C1      NOp   1
 Largest concise Abelian subgroup C1      NOp   1
                         Standard orientation:                         
 ---------------------------------------------------------------------
 Center     Atomic      Atomic             Coordinates (Angstroms)
 Number     Number       Type             X           Y           Z
 ---------------------------------------------------------------------
      1          8           0        0.755492   -0.089613   -0.062718
      2          1           0        1.087290    0.716810    0.348685
      3          8           0       -0.755520   -0.089608    0.062710
      4          1           0       -1.087060    0.716958   -0.348623
 ---------------------------------------------------------------------
 Rotational constants (GHZ):    320.6027157     24.0511329     23.0734845
 Standard basis: 6-31+G(d,p) (6D, 7F)
 There are    48 symmetry adapted basis functions of A   symmetry.
 Integral buffers will be    262144 words long.
 Raffenetti 2 integral format.
 Two-electron integral symmetry is turned on.
    48 basis functions,    78 primitive gaussians,    48 cartesian basis functions
     9 alpha electrons        9 beta electrons
       nuclear repulsion energy        35.5173328894 Hartrees.
 NAtoms=    4 NActive=    4 NUniq=    4 SFac= 7.50D-01 NAtFMM=   80 NAOKFM=F Big=F
 ------------------------------------------------------------------------------
 Polarizable Continuum Model (PCM)
 =================================
 Model                : PCM.
 Atomic radii         : SMD-Coulomb.
 Polarization charges : Total charges.
 Charge compensation  : None.
 Solution method      : Matrix inversion.
 Cavity type          : VdW (van der Waals Surface) (Alpha=1.000).
 Cavity algorithm     : GePol (No added spheres)
                        Default sphere list used, NSphG=    4.
                        Lebedev-Laikov grids with approx.  5.0 points / Ang**2.
                        Smoothing algorithm: Karplus/York (Gamma=1.0000).
                        Polarization charges: spherical gaussians, with
                                              point-specific exponents (IZeta= 3).
                        Self-potential: point-specific (ISelfS= 7).
                        Self-field    : sphere-specific E.n sum rule (ISelfD= 2).
 1st derivatives      : Analytical E(r).r(x)/FMM algorithm (CHGder, D1EAlg=3).
                        Cavity 1st derivative terms included.
 Solvent              : Water, Eps=  78.355300 Eps(inf)=   1.777849
 ------------------------------------------------------------------------------
 Spheres list:
 ISph  on   Nord    Re0     Alpha      Xe            Ye            Ze
    1   O      1    1.520   1.000      0.755492     -0.089613     -0.062718
    2   H      2    1.200   1.000      1.087290      0.716810      0.348685
    3   O      3    1.520   1.000     -0.755520     -0.089608      0.062710
    4   H      4    1.200   1.000     -1.087060      0.716958     -0.348623
 ------------------------------------------------------------------------------
 ------------------------------------------------------------------------------
 Atomic radii for non-electrostatic terms: SMD-CDS.
 ------------------------------------------------------------------------------
 Nuclear repulsion after PCM non-electrostatic terms =       35.5195381774 Hartrees.
 One-electron integrals computed using PRISM.
 NBasis=    48 RedAO= T  NBF=    48
 NBsUse=    48 1.00D-06 NBFU=    48
 Initial guess read from the read-write file.
 B after Tr=     0.000000    0.000000    0.000000
         Rot=    1.000000    0.000000    0.000000    0.000000 Ang=   0.00 deg.
 Initial guess orbital symmetries:
       Occupied  (A) (A) (A) (A) (A) (A) (A) (A) (A)
       Virtual   (A) (A) (A) (A) (A) (A) (A) (A) (A) (A) (A) (A)
                 (A) (A) (A) (A) (A) (A) (A) (A) (A) (A) (A) (A)
                 (A) (A) (A) (A) (A) (A) (A) (A) (A) (A) (A) (A)
                 (A) (A) (A)
 Requested convergence on RMS density matrix=1.00D-08 within 128 cycles.
 Requested convergence on MAX density matrix=1.00D-06.
 Requested convergence on             energy=1.00D-06.
 No special actions if energy rises.
 Keep R1 ints in memory in canonical form, NReq=3735897.
 Error on total polarization charges =  0.02899
 SCF Done:  E(RM062X) =  -151.496616700     A.U. after    8 cycles
             Convg  =    0.7434D-08             -V/T =  2.0093
 SMD-CDS (non-electrostatic) energy             (kcal/mol) =       1.38
 (included in total energy above)
 D1PCM: PCM CHGder 1st derivatives, ID1Alg=3 FixD1E=F DoIter=F DoCFld=F I1PDM=0.
 Calling FoFJK, ICntrl=      2127 FMM=F ISym2X=0 I1Cent= 0 IOpClX= 0 NMat=1 NMatS=1 NMatT=0.
 ***** Axes restored to original set *****
 -------------------------------------------------------------------
 Center     Atomic                   Forces (Hartrees/Bohr)
 Number     Number              X              Y              Z
 -------------------------------------------------------------------
      1        8           0.043774204    0.006135814    0.021378320
      2        1           0.009721782    0.002887340   -0.012335569
      3        8          -0.043797150   -0.021347122   -0.006163840
      4        1          -0.009698836    0.012323968   -0.002878911
 -------------------------------------------------------------------
 Cartesian Forces:  Max     0.043797150 RMS     0.021079209

 GradGradGradGradGradGradGradGradGradGradGradGradGradGradGradGradGradGrad
 Berny optimization.
 Internal  Forces:  Max     0.054382687 RMS     0.026460294
 Search for a saddle point.
 Step number   2 out of a maximum of   20
 All quantities printed in internal units (Hartrees-Bohrs-Radians)
 Swaping is turned off.
 Update second derivatives using D2CorX and points    1    2
 The second derivative matrix:
                          R1        R2        R3        A1        A2
           R1           0.56992
           R2          -0.00922   0.12664
           R3           0.00199  -0.00920   0.56958
           A1          -0.00660   0.01932  -0.00249   0.16754
           A2          -0.00250   0.01938  -0.00662   0.00496   0.16752
           D1           0.00171   0.02442   0.00170   0.01145   0.01144
                          D1
           D1          -0.00052
     Eigenvalues ---   -0.00579   0.11562   0.16253   0.18814   0.56779
     Eigenvalues ---    0.57238
 Eigenvectors required to have negative eigenvalues:
                          D1        R2        A1        A2        R1
   1                    0.98350  -0.16905  -0.04515  -0.04504  -0.00632
                          R3
   1                   -0.00629
 RFO step:  Lambda0=1.094145709D-02 Lambda=-2.11029721D-02.
 Linear search not attempted -- option 19 set.
 Maximum step size (   0.030) exceeded in Quadratic search.
    -- Step size scaled by   0.034
 Iteration  1 RMS(Cart)=  0.01117628 RMS(Int)=  0.00010631
 Iteration  2 RMS(Cart)=  0.00008183 RMS(Int)=  0.00000001
 Iteration  3 RMS(Cart)=  0.00000001 RMS(Int)=  0.00000000
 Variable       Old X    -DE/DX   Delta X   Delta X   Delta X     New X
                                 (Linear)    (Quad)   (Total)
    R1        1.82205   0.00959   0.00000   0.00053   0.00053   1.82258
    R2        2.86522  -0.05438   0.00000  -0.00626  -0.00626   2.85896
    R3        1.82206   0.00959   0.00000   0.00053   0.00053   1.82258
    A1        1.88351  -0.02298   0.00000  -0.00146  -0.00146   1.88205
    A2        1.88324  -0.02293   0.00000  -0.00145  -0.00145   1.88179
    D1        0.99389   0.00243   0.00000  -0.02926  -0.02926   0.96463
         Item               Value     Threshold  Converged?
 Maximum Force            0.054383     0.000450     NO 
 RMS     Force            0.026460     0.000300     NO 
 Maximum Displacement     0.012470     0.001800     NO 
 RMS     Displacement     0.011161     0.001200     NO 
 Predicted change in Energy=-3.380344D-04
 GradGradGradGradGradGradGradGradGradGradGradGradGradGradGradGradGradGrad

                          Input orientation:                          
 ---------------------------------------------------------------------
 Center     Atomic      Atomic             Coordinates (Angstroms)
 Number     Number       Type             X           Y           Z
 ---------------------------------------------------------------------
      1          8           0       -0.884833   -0.119592    0.010639
      2          1           0       -1.138544    0.136059   -0.884051
      3          8           0        0.621245   -0.018095    0.112013
      4          1           0        0.874607    0.876725   -0.143536
 ---------------------------------------------------------------------
                    Distance matrix (angstroms):
                    1          2          3          4
     1  O    0.000000
     2  H    0.964467   0.000000
     3  O    1.512895   2.027996   0.000000
     4  H    2.027818   2.269301   0.964469   0.000000
 Stoichiometry    H2O2
 Framework group  C1[X(H2O2)]
 Deg. of freedom     6
 Full point group                 C1      NOp   1
 Largest Abelian subgroup         C1      NOp   1
 Largest concise Abelian subgroup C1      NOp   1
                         Standard orientation:                         
 ---------------------------------------------------------------------
 Center     Atomic      Atomic             Coordinates (Angstroms)
 Number     Number       Type             X           Y           Z
 ---------------------------------------------------------------------
      1          8           0        0.753972   -0.090383   -0.060976
      2          1           0        1.082711    0.722974    0.339746
      3          8           0       -0.754000   -0.090378    0.060969
      4          1           0       -1.082489    0.723112   -0.339691
 ---------------------------------------------------------------------
 Rotational constants (GHZ):    319.8873992     24.1808080     23.1513262
 Standard basis: 6-31+G(d,p) (6D, 7F)
 There are    48 symmetry adapted basis functions of A   symmetry.
 Integral buffers will be    262144 words long.
 Raffenetti 2 integral format.
 Two-electron integral symmetry is turned on.
    48 basis functions,    78 primitive gaussians,    48 cartesian basis functions
     9 alpha electrons        9 beta electrons
       nuclear repulsion energy        35.5728969380 Hartrees.
 NAtoms=    4 NActive=    4 NUniq=    4 SFac= 7.50D-01 NAtFMM=   80 NAOKFM=F Big=F
 ------------------------------------------------------------------------------
 Polarizable Continuum Model (PCM)
 =================================
 Model                : PCM.
 Atomic radii         : SMD-Coulomb.
 Polarization charges : Total charges.
 Charge compensation  : None.
 Solution method      : Matrix inversion.
 Cavity type          : VdW (van der Waals Surface) (Alpha=1.000).
 Cavity algorithm     : GePol (No added spheres)
                        Default sphere list used, NSphG=    4.
                        Lebedev-Laikov grids with approx.  5.0 points / Ang**2.
                        Smoothing algorithm: Karplus/York (Gamma=1.0000).
                        Polarization charges: spherical gaussians, with
                                              point-specific exponents (IZeta= 3).
                        Self-potential: point-specific (ISelfS= 7).
                        Self-field    : sphere-specific E.n sum rule (ISelfD= 2).
 1st derivatives      : Analytical E(r).r(x)/FMM algorithm (CHGder, D1EAlg=3).
                        Cavity 1st derivative terms included.
 Solvent              : Water, Eps=  78.355300 Eps(inf)=   1.777849
 ------------------------------------------------------------------------------
 Spheres list:
 ISph  on   Nord    Re0     Alpha      Xe            Ye            Ze
    1   O      1    1.520   1.000      0.753972     -0.090383     -0.060976
    2   H      2    1.200   1.000      1.082711      0.722974      0.339746
    3   O      3    1.520   1.000     -0.754000     -0.090378      0.060969
    4   H      4    1.200   1.000     -1.082489      0.723112     -0.339691
 ------------------------------------------------------------------------------
 ------------------------------------------------------------------------------
 Atomic radii for non-electrostatic terms: SMD-CDS.
 ------------------------------------------------------------------------------
 Nuclear repulsion after PCM non-electrostatic terms =       35.5750955944 Hartrees.
 One-electron integrals computed using PRISM.
 NBasis=    48 RedAO= T  NBF=    48
 NBsUse=    48 1.00D-06 NBFU=    48
 Initial guess read from the read-write file.
 B after Tr=     0.000000    0.000000    0.000000
         Rot=    1.000000    0.000000    0.000000    0.000000 Ang=   0.00 deg.
 Initial guess orbital symmetries:
       Occupied  (A) (A) (A) (A) (A) (A) (A) (A) (A)
       Virtual   (A) (A) (A) (A) (A) (A) (A) (A) (A) (A) (A) (A)
                 (A) (A) (A) (A) (A) (A) (A) (A) (A) (A) (A) (A)
                 (A) (A) (A) (A) (A) (A) (A) (A) (A) (A) (A) (A)
                 (A) (A) (A)
 Requested convergence on RMS density matrix=1.00D-08 within 128 cycles.
 Requested convergence on MAX density matrix=1.00D-06.
 Requested convergence on             energy=1.00D-06.
 No special actions if energy rises.
 Keep R1 ints in memory in canonical form, NReq=3734320.
 Error on total polarization charges =  0.02901
 SCF Done:  E(RM062X) =  -151.496952468     A.U. after    9 cycles
             Convg  =    0.3034D-08             -V/T =  2.0093
 SMD-CDS (non-electrostatic) energy             (kcal/mol) =       1.38
 (included in total energy above)
 D1PCM: PCM CHGder 1st derivatives, ID1Alg=3 FixD1E=F DoIter=F DoCFld=F I1PDM=0.
 Calling FoFJK, ICntrl=      2127 FMM=F ISym2X=0 I1Cent= 0 IOpClX= 0 NMat=1 NMatS=1 NMatT=0.
 ***** Axes restored to original set *****
 -------------------------------------------------------------------
 Center     Atomic                   Forces (Hartrees/Bohr)
 Number     Number              X              Y              Z
 -------------------------------------------------------------------
      1        8           0.042393568    0.005987887    0.020769959
      2        1           0.009472292    0.002877354   -0.011885663
      3        8          -0.042415960   -0.020739747   -0.006015455
      4        1          -0.009449900    0.011874507   -0.002868840
 -------------------------------------------------------------------
 Cartesian Forces:  Max     0.042415960 RMS     0.020428135

 GradGradGradGradGradGradGradGradGradGradGradGradGradGradGradGradGradGrad
 Berny optimization.
 Internal  Forces:  Max     0.052785698 RMS     0.025670132
 Search for a saddle point.
 Step number   3 out of a maximum of   20
 All quantities printed in internal units (Hartrees-Bohrs-Radians)
 Swaping is turned off.
 Update second derivatives using D2CorX and points    1    2    3
 The second derivative matrix:
                          R1        R2        R3        A1        A2
           R1           0.56992
           R2          -0.00922   0.12698
           R3           0.00199  -0.00920   0.56958
           A1          -0.00660   0.01939  -0.00249   0.16755
           A2          -0.00250   0.01945  -0.00662   0.00497   0.16753
           D1           0.00177   0.02514   0.00175   0.01158   0.01157
                          D1
           D1          -0.00084
     Eigenvalues ---   -0.00636   0.11594   0.16253   0.18843   0.56779
     Eigenvalues ---    0.57237
 Eigenvectors required to have negative eigenvalues:
                          D1        R2        A1        A2        R1
   1                    0.98280  -0.17304  -0.04517  -0.04506  -0.00648
                          R3
   1                   -0.00645
 RFO step:  Lambda0=1.075598111D-02 Lambda=-1.98740402D-02.
 Linear search not attempted -- option 19 set.
 Maximum step size (   0.030) exceeded in Quadratic search.
    -- Step size scaled by   0.035
 Iteration  1 RMS(Cart)=  0.01110520 RMS(Int)=  0.00010687
 Iteration  2 RMS(Cart)=  0.00008322 RMS(Int)=  0.00000001
 Iteration  3 RMS(Cart)=  0.00000001 RMS(Int)=  0.00000000
 Variable       Old X    -DE/DX   Delta X   Delta X   Delta X     New X
                                 (Linear)    (Quad)   (Total)
    R1        1.82258   0.00927   0.00000   0.00053   0.00053   1.82310
    R2        2.85896  -0.05279   0.00000  -0.00607  -0.00607   2.85289
    R3        1.82258   0.00927   0.00000   0.00053   0.00053   1.82311
    A1        1.88205  -0.02226   0.00000  -0.00143  -0.00143   1.88061
    A2        1.88179  -0.02221   0.00000  -0.00142  -0.00142   1.88036
    D1        0.96463   0.00259   0.00000  -0.02930  -0.02930   0.93533
         Item               Value     Threshold  Converged?
 Maximum Force            0.052786     0.000450     NO 
 RMS     Force            0.025670     0.000300     NO 
 Maximum Displacement     0.012375     0.001800     NO 
 RMS     Displacement     0.011089     0.001200     NO 
 Predicted change in Energy=-3.094311D-04
 GradGradGradGradGradGradGradGradGradGradGradGradGradGradGradGradGradGrad

                          Input orientation:                          
 ---------------------------------------------------------------------
 Center     Atomic      Atomic             Coordinates (Angstroms)
 Number     Number       Type             X           Y           Z
 ---------------------------------------------------------------------
      1          8           0       -0.882795   -0.125048    0.009967
      2          1           0       -1.133754    0.142608   -0.882285
      3          8           0        0.619206   -0.017422    0.117467
      4          1           0        0.869818    0.874960   -0.150084
 ---------------------------------------------------------------------
                    Distance matrix (angstroms):
                    1          2          3          4
     1  O    0.000000
     2  H    0.964745   0.000000
     3  O    1.509684   2.024347   0.000000
     4  H    2.024176   2.255385   0.964747   0.000000
 Stoichiometry    H2O2
 Framework group  C1[X(H2O2)]
 Deg. of freedom     6
 Full point group                 C1      NOp   1
 Largest Abelian subgroup         C1      NOp   1
 Largest concise Abelian subgroup C1      NOp   1
                         Standard orientation:                         
 ---------------------------------------------------------------------
 Center     Atomic      Atomic             Coordinates (Angstroms)
 Number     Number       Type             X           Y           Z
 ---------------------------------------------------------------------
      1          8           0        0.752502   -0.091135   -0.059220
      2          1           0        1.078232    0.728991    0.330687
      3          8           0       -0.752529   -0.091129    0.059214
      4          1           0       -1.078017    0.729121   -0.330638
 ---------------------------------------------------------------------
 Rotational constants (GHZ):    319.1870349     24.3079869     23.2267747
 Standard basis: 6-31+G(d,p) (6D, 7F)
 There are    48 symmetry adapted basis functions of A   symmetry.
 Integral buffers will be    262144 words long.
 Raffenetti 2 integral format.
 Two-electron integral symmetry is turned on.
    48 basis functions,    78 primitive gaussians,    48 cartesian basis functions
     9 alpha electrons        9 beta electrons
       nuclear repulsion energy        35.6269356635 Hartrees.
 NAtoms=    4 NActive=    4 NUniq=    4 SFac= 7.50D-01 NAtFMM=   80 NAOKFM=F Big=F
 ------------------------------------------------------------------------------
 Polarizable Continuum Model (PCM)
 =================================
 Model                : PCM.
 Atomic radii         : SMD-Coulomb.
 Polarization charges : Total charges.
 Charge compensation  : None.
 Solution method      : Matrix inversion.
 Cavity type          : VdW (van der Waals Surface) (Alpha=1.000).
 Cavity algorithm     : GePol (No added spheres)
                        Default sphere list used, NSphG=    4.
                        Lebedev-Laikov grids with approx.  5.0 points / Ang**2.
                        Smoothing algorithm: Karplus/York (Gamma=1.0000).
                        Polarization charges: spherical gaussians, with
                                              point-specific exponents (IZeta= 3).
                        Self-potential: point-specific (ISelfS= 7).
                        Self-field    : sphere-specific E.n sum rule (ISelfD= 2).
 1st derivatives      : Analytical E(r).r(x)/FMM algorithm (CHGder, D1EAlg=3).
                        Cavity 1st derivative terms included.
 Solvent              : Water, Eps=  78.355300 Eps(inf)=   1.777849
 ------------------------------------------------------------------------------
 Spheres list:
 ISph  on   Nord    Re0     Alpha      Xe            Ye            Ze
    1   O      1    1.520   1.000      0.752502     -0.091135     -0.059220
    2   H      2    1.200   1.000      1.078232      0.728991      0.330687
    3   O      3    1.520   1.000     -0.752529     -0.091129      0.059214
    4   H      4    1.200   1.000     -1.078017      0.729121     -0.330638
 ------------------------------------------------------------------------------
 ------------------------------------------------------------------------------
 Atomic radii for non-electrostatic terms: SMD-CDS.
 ------------------------------------------------------------------------------
 Nuclear repulsion after PCM non-electrostatic terms =       35.6291272674 Hartrees.
 One-electron integrals computed using PRISM.
 NBasis=    48 RedAO= T  NBF=    48
 NBsUse=    48 1.00D-06 NBFU=    48
 Initial guess read from the read-write file.
 B after Tr=     0.000000    0.000000    0.000000
         Rot=    1.000000    0.000000    0.000000    0.000000 Ang=   0.00 deg.
 Initial guess orbital symmetries:
       Occupied  (A) (A) (A) (A) (A) (A) (A) (A) (A)
       Virtual   (A) (A) (A) (A) (A) (A) (A) (A) (A) (A) (A) (A)
                 (A) (A) (A) (A) (A) (A) (A) (A) (A) (A) (A) (A)
                 (A) (A) (A) (A) (A) (A) (A) (A) (A) (A) (A) (A)
                 (A) (A) (A)
 Requested convergence on RMS density matrix=1.00D-08 within 128 cycles.
 Requested convergence on MAX density matrix=1.00D-06.
 Requested convergence on             energy=1.00D-06.
 No special actions if energy rises.
 Keep R1 ints in memory in canonical form, NReq=3734320.
 Error on total polarization charges =  0.02903
 SCF Done:  E(RM062X) =  -151.497259610     A.U. after    8 cycles
             Convg  =    0.4900D-08             -V/T =  2.0093
 SMD-CDS (non-electrostatic) energy             (kcal/mol) =       1.38
 (included in total energy above)
 D1PCM: PCM CHGder 1st derivatives, ID1Alg=3 FixD1E=F DoIter=F DoCFld=F I1PDM=0.
 Calling FoFJK, ICntrl=      2127 FMM=F ISym2X=0 I1Cent= 0 IOpClX= 0 NMat=1 NMatS=1 NMatT=0.
 ***** Axes restored to original set *****
 -------------------------------------------------------------------
 Center     Atomic                   Forces (Hartrees/Bohr)
 Number     Number              X              Y              Z
 -------------------------------------------------------------------
      1        8           0.041014379    0.005849795    0.020164243
      2        1           0.009222486    0.002859386   -0.011436537
      3        8          -0.041036269   -0.020135112   -0.005876981
      4        1          -0.009200596    0.011425930   -0.002850725
 -------------------------------------------------------------------
 Cartesian Forces:  Max     0.041036269 RMS     0.019778539

 GradGradGradGradGradGradGradGradGradGradGradGradGradGradGradGradGradGrad
 Berny optimization.
 Internal  Forces:  Max     0.051189530 RMS     0.024881723
 Search for a saddle point.
 Step number   4 out of a maximum of   20
 All quantities printed in internal units (Hartrees-Bohrs-Radians)
 Swaping is turned off.
 Update second derivatives using D2CorX and points    1    2    3    4
 The second derivative matrix:
                          R1        R2        R3        A1        A2
           R1           0.56992
           R2          -0.00927   0.12733
           R3           0.00200  -0.00925   0.56958
           A1          -0.00661   0.01945  -0.00250   0.16756
           A2          -0.00251   0.01951  -0.00663   0.00498   0.16754
           D1           0.00160   0.02587   0.00158   0.01166   0.01165
                          D1
           D1          -0.00103
     Eigenvalues ---   -0.00679   0.11629   0.16253   0.18869   0.56779
     Eigenvalues ---    0.57239
 Eigenvectors required to have negative eigenvalues:
                          D1        R2        A1        A2        R1
   1                    0.98207  -0.17729  -0.04495  -0.04484  -0.00626
                          R3
   1                   -0.00623
 RFO step:  Lambda0=1.061988929D-02 Lambda=-1.86745098D-02.
 Linear search not attempted -- option 19 set.
 Maximum step size (   0.030) exceeded in Quadratic search.
    -- Step size scaled by   0.035
 Iteration  1 RMS(Cart)=  0.01102105 RMS(Int)=  0.00010757
 Iteration  2 RMS(Cart)=  0.00008484 RMS(Int)=  0.00000001
 Iteration  3 RMS(Cart)=  0.00000001 RMS(Int)=  0.00000000
 Variable       Old X    -DE/DX   Delta X   Delta X   Delta X     New X
                                 (Linear)    (Quad)   (Total)
    R1        1.82310   0.00894   0.00000   0.00051   0.00051   1.82362
    R2        2.85289  -0.05119   0.00000  -0.00580  -0.00580   2.84709
    R3        1.82311   0.00894   0.00000   0.00051   0.00051   1.82362
    A1        1.88061  -0.02155   0.00000  -0.00140  -0.00140   1.87921
    A2        1.88036  -0.02150   0.00000  -0.00139  -0.00139   1.87897
    D1        0.93533   0.00275   0.00000  -0.02936  -0.02936   0.90597
         Item               Value     Threshold  Converged?
 Maximum Force            0.051190     0.000450     NO 
 RMS     Force            0.024882     0.000300     NO 
 Maximum Displacement     0.012268     0.001800     NO 
 RMS     Displacement     0.011004     0.001200     NO 
 Predicted change in Energy=-2.775984D-04
 GradGradGradGradGradGradGradGradGradGradGradGradGradGradGradGradGradGrad

                          Input orientation:                          
 ---------------------------------------------------------------------
 Center     Atomic      Atomic             Coordinates (Angstroms)
 Number     Number       Type             X           Y           Z
 ---------------------------------------------------------------------
      1          8           0       -0.880789   -0.130519    0.009159
      2          1           0       -1.129101    0.149100   -0.880454
      3          8           0        0.617198   -0.016614    0.122935
      4          1           0        0.865167    0.873130   -0.156575
 ---------------------------------------------------------------------
                    Distance matrix (angstroms):
                    1          2          3          4
     1  O    0.000000
     2  H    0.965016   0.000000
     3  O    1.506614   2.020844   0.000000
     4  H    2.020679   2.241724   0.965018   0.000000
 Stoichiometry    H2O2
 Framework group  C1[X(H2O2)]
 Deg. of freedom     6
 Full point group                 C1      NOp   1
 Largest Abelian subgroup         C1      NOp   1
 Largest concise Abelian subgroup C1      NOp   1
                         Standard orientation:                         
 ---------------------------------------------------------------------
 Center     Atomic      Atomic             Coordinates (Angstroms)
 Number     Number       Type             X           Y           Z
 ---------------------------------------------------------------------
      1          8           0        0.751100   -0.091868   -0.057450
      2          1           0        1.073874    0.734854    0.321502
      3          8           0       -0.751126   -0.091861    0.057445
      4          1           0       -1.073666    0.734976   -0.321458
 ---------------------------------------------------------------------
 Rotational constants (GHZ):    318.5074679     24.4313982     23.2987608
 Standard basis: 6-31+G(d,p) (6D, 7F)
 There are    48 symmetry adapted basis functions of A   symmetry.
 Integral buffers will be    262144 words long.
 Raffenetti 2 integral format.
 Two-electron integral symmetry is turned on.
    48 basis functions,    78 primitive gaussians,    48 cartesian basis functions
     9 alpha electrons        9 beta electrons
       nuclear repulsion energy        35.6788613696 Hartrees.
 NAtoms=    4 NActive=    4 NUniq=    4 SFac= 7.50D-01 NAtFMM=   80 NAOKFM=F Big=F
 ------------------------------------------------------------------------------
 Polarizable Continuum Model (PCM)
 =================================
 Model                : PCM.
 Atomic radii         : SMD-Coulomb.
 Polarization charges : Total charges.
 Charge compensation  : None.
 Solution method      : Matrix inversion.
 Cavity type          : VdW (van der Waals Surface) (Alpha=1.000).
 Cavity algorithm     : GePol (No added spheres)
                        Default sphere list used, NSphG=    4.
                        Lebedev-Laikov grids with approx.  5.0 points / Ang**2.
                        Smoothing algorithm: Karplus/York (Gamma=1.0000).
                        Polarization charges: spherical gaussians, with
                                              point-specific exponents (IZeta= 3).
                        Self-potential: point-specific (ISelfS= 7).
                        Self-field    : sphere-specific E.n sum rule (ISelfD= 2).
 1st derivatives      : Analytical E(r).r(x)/FMM algorithm (CHGder, D1EAlg=3).
                        Cavity 1st derivative terms included.
 Solvent              : Water, Eps=  78.355300 Eps(inf)=   1.777849
 ------------------------------------------------------------------------------
 Spheres list:
 ISph  on   Nord    Re0     Alpha      Xe            Ye            Ze
    1   O      1    1.520   1.000      0.751100     -0.091868     -0.057450
    2   H      2    1.200   1.000      1.073874      0.734854      0.321502
    3   O      3    1.520   1.000     -0.751126     -0.091861      0.057445
    4   H      4    1.200   1.000     -1.073666      0.734976     -0.321458
 ------------------------------------------------------------------------------
 ------------------------------------------------------------------------------
 Atomic radii for non-electrostatic terms: SMD-CDS.
 ------------------------------------------------------------------------------
 Nuclear repulsion after PCM non-electrostatic terms =       35.6810457066 Hartrees.
 One-electron integrals computed using PRISM.
 NBasis=    48 RedAO= T  NBF=    48
 NBsUse=    48 1.00D-06 NBFU=    48
 Initial guess read from the read-write file.
 B after Tr=     0.000000    0.000000    0.000000
         Rot=    1.000000    0.000000    0.000000    0.000000 Ang=   0.00 deg.
 Initial guess orbital symmetries:
       Occupied  (A) (A) (A) (A) (A) (A) (A) (A) (A)
       Virtual   (A) (A) (A) (A) (A) (A) (A) (A) (A) (A) (A) (A)
                 (A) (A) (A) (A) (A) (A) (A) (A) (A) (A) (A) (A)
                 (A) (A) (A) (A) (A) (A) (A) (A) (A) (A) (A) (A)
                 (A) (A) (A)
 Requested convergence on RMS density matrix=1.00D-08 within 128 cycles.
 Requested convergence on MAX density matrix=1.00D-06.
 Requested convergence on             energy=1.00D-06.
 No special actions if energy rises.
 Keep R1 ints in memory in canonical form, NReq=3734320.
 Error on total polarization charges =  0.02905
 SCF Done:  E(RM062X) =  -151.497534829     A.U. after    8 cycles
             Convg  =    0.6662D-08             -V/T =  2.0092
 SMD-CDS (non-electrostatic) energy             (kcal/mol) =       1.37
 (included in total energy above)
 D1PCM: PCM CHGder 1st derivatives, ID1Alg=3 FixD1E=F DoIter=F DoCFld=F I1PDM=0.
 Calling FoFJK, ICntrl=      2127 FMM=F ISym2X=0 I1Cent= 0 IOpClX= 0 NMat=1 NMatS=1 NMatT=0.
 ***** Axes restored to original set *****
 -------------------------------------------------------------------
 Center     Atomic                   Forces (Hartrees/Bohr)
 Number     Number              X              Y              Z
 -------------------------------------------------------------------
      1        8           0.039656656    0.005731620    0.019567909
      2        1           0.008973538    0.002825952   -0.010992385
      3        8          -0.039678014   -0.019539935   -0.005758522
      4        1          -0.008952180    0.010982362   -0.002817002
 -------------------------------------------------------------------
 Cartesian Forces:  Max     0.039678014 RMS     0.019139296

 GradGradGradGradGradGradGradGradGradGradGradGradGradGradGradGradGradGrad
 Berny optimization.
 Internal  Forces:  Max     0.049615415 RMS     0.024102870
 Search for a saddle point.
 Step number   5 out of a maximum of   20
 All quantities printed in internal units (Hartrees-Bohrs-Radians)
 Swaping is turned off.
 Update second derivatives using D2CorX and points    1    2    3    4    5
 The second derivative matrix:
                          R1        R2        R3        A1        A2
           R1           0.56995
           R2          -0.00940   0.12767
           R3           0.00203  -0.00939   0.56961
           A1          -0.00664   0.01953  -0.00253   0.16758
           A2          -0.00254   0.01959  -0.00666   0.00500   0.16756
           D1           0.00118   0.02620   0.00117   0.01181   0.01180
                          D1
           D1          -0.00060
     Eigenvalues ---   -0.00649   0.11652   0.16253   0.18896   0.56779
     Eigenvalues ---    0.57247
 Eigenvectors required to have negative eigenvalues:
                          D1        R2        A1        A2        R1
   1                    0.98167  -0.17926  -0.04547  -0.04537  -0.00564
                          R3
   1                   -0.00561
 RFO step:  Lambda0=1.068709036D-02 Lambda=-1.75402329D-02.
 Linear search not attempted -- option 19 set.
 Maximum step size (   0.030) exceeded in Quadratic search.
    -- Step size scaled by   0.035
 Iteration  1 RMS(Cart)=  0.01087199 RMS(Int)=  0.00010831
 Iteration  2 RMS(Cart)=  0.00008693 RMS(Int)=  0.00000001
 Iteration  3 RMS(Cart)=  0.00000001 RMS(Int)=  0.00000000
 Variable       Old X    -DE/DX   Delta X   Delta X   Delta X     New X
                                 (Linear)    (Quad)   (Total)
    R1        1.82362   0.00862   0.00000   0.00048   0.00048   1.82409
    R2        2.84709  -0.04962   0.00000  -0.00537  -0.00537   2.84172
    R3        1.82362   0.00862   0.00000   0.00048   0.00048   1.82410
    A1        1.87921  -0.02084   0.00000  -0.00128  -0.00128   1.87793
    A2        1.87897  -0.02080   0.00000  -0.00127  -0.00127   1.87770
    D1        0.90597   0.00292   0.00000  -0.02945  -0.02945   0.87652
         Item               Value     Threshold  Converged?
 Maximum Force            0.049615     0.000450     NO 
 RMS     Force            0.024103     0.000300     NO 
 Maximum Displacement     0.012103     0.001800     NO 
 RMS     Displacement     0.010853     0.001200     NO 
 Predicted change in Energy=-2.345828D-04
 GradGradGradGradGradGradGradGradGradGradGradGradGradGradGradGradGradGrad

                          Input orientation:                          
 ---------------------------------------------------------------------
 Center     Atomic      Atomic             Coordinates (Angstroms)
 Number     Number       Type             X           Y           Z
 ---------------------------------------------------------------------
      1          8           0       -0.878854   -0.136019    0.008179
      2          1           0       -1.124691    0.155504   -0.878569
      3          8           0        0.615260   -0.015634    0.128433
      4          1           0        0.860759    0.871246   -0.162979
 ---------------------------------------------------------------------
                    Distance matrix (angstroms):
                    1          2          3          4
     1  O    0.000000
     2  H    0.965269   0.000000
     3  O    1.503771   2.017615   0.000000
     4  H    2.017457   2.228535   0.965270   0.000000
 Stoichiometry    H2O2
 Framework group  C1[X(H2O2)]
 Deg. of freedom     6
 Full point group                 C1      NOp   1
 Largest Abelian subgroup         C1      NOp   1
 Largest concise Abelian subgroup C1      NOp   1
                         Standard orientation:                         
 ---------------------------------------------------------------------
 Center     Atomic      Atomic             Coordinates (Angstroms)
 Number     Number       Type             X           Y           Z
 ---------------------------------------------------------------------
      1          8           0        0.749810   -0.092578   -0.055663
      2          1           0        1.069753    0.740539    0.312163
      3          8           0       -0.749835   -0.092571    0.055658
      4          1           0       -1.069553    0.740653   -0.312124
 ---------------------------------------------------------------------
 Rotational constants (GHZ):    317.8737220     24.5478647     23.3645439
 Standard basis: 6-31+G(d,p) (6D, 7F)
 There are    48 symmetry adapted basis functions of A   symmetry.
 Integral buffers will be    262144 words long.
 Raffenetti 2 integral format.
 Two-electron integral symmetry is turned on.
    48 basis functions,    78 primitive gaussians,    48 cartesian basis functions
     9 alpha electrons        9 beta electrons
       nuclear repulsion energy        35.7271530586 Hartrees.
 NAtoms=    4 NActive=    4 NUniq=    4 SFac= 7.50D-01 NAtFMM=   80 NAOKFM=F Big=F
 ------------------------------------------------------------------------------
 Polarizable Continuum Model (PCM)
 =================================
 Model                : PCM.
 Atomic radii         : SMD-Coulomb.
 Polarization charges : Total charges.
 Charge compensation  : None.
 Solution method      : Matrix inversion.
 Cavity type          : VdW (van der Waals Surface) (Alpha=1.000).
 Cavity algorithm     : GePol (No added spheres)
                        Default sphere list used, NSphG=    4.
                        Lebedev-Laikov grids with approx.  5.0 points / Ang**2.
                        Smoothing algorithm: Karplus/York (Gamma=1.0000).
                        Polarization charges: spherical gaussians, with
                                              point-specific exponents (IZeta= 3).
                        Self-potential: point-specific (ISelfS= 7).
                        Self-field    : sphere-specific E.n sum rule (ISelfD= 2).
 1st derivatives      : Analytical E(r).r(x)/FMM algorithm (CHGder, D1EAlg=3).
                        Cavity 1st derivative terms included.
 Solvent              : Water, Eps=  78.355300 Eps(inf)=   1.777849
 ------------------------------------------------------------------------------
 Spheres list:
 ISph  on   Nord    Re0     Alpha      Xe            Ye            Ze
    1   O      1    1.520   1.000      0.749810     -0.092578     -0.055663
    2   H      2    1.200   1.000      1.069753      0.740539      0.312163
    3   O      3    1.520   1.000     -0.749835     -0.092571      0.055658
    4   H      4    1.200   1.000     -1.069553      0.740653     -0.312124
 ------------------------------------------------------------------------------
 ------------------------------------------------------------------------------
 Atomic radii for non-electrostatic terms: SMD-CDS.
 ------------------------------------------------------------------------------
 Nuclear repulsion after PCM non-electrostatic terms =       35.7293301978 Hartrees.
 One-electron integrals computed using PRISM.
 NBasis=    48 RedAO= T  NBF=    48
 NBsUse=    48 1.00D-06 NBFU=    48
 Initial guess read from the read-write file.
 B after Tr=     0.000000    0.000000    0.000000
         Rot=    1.000000    0.000000    0.000000    0.000000 Ang=   0.00 deg.
 Initial guess orbital symmetries:
       Occupied  (A) (A) (A) (A) (A) (A) (A) (A) (A)
       Virtual   (A) (A) (A) (A) (A) (A) (A) (A) (A) (A) (A) (A)
                 (A) (A) (A) (A) (A) (A) (A) (A) (A) (A) (A) (A)
                 (A) (A) (A) (A) (A) (A) (A) (A) (A) (A) (A) (A)
                 (A) (A) (A)
 Requested convergence on RMS density matrix=1.00D-08 within 128 cycles.
 Requested convergence on MAX density matrix=1.00D-06.
 Requested convergence on             energy=1.00D-06.
 No special actions if energy rises.
 Keep R1 ints in memory in canonical form, NReq=3732751.
 Error on total polarization charges =  0.02906
 SCF Done:  E(RM062X) =  -151.497767069     A.U. after    8 cycles
             Convg  =    0.6935D-08             -V/T =  2.0092
 SMD-CDS (non-electrostatic) energy             (kcal/mol) =       1.37
 (included in total energy above)
 D1PCM: PCM CHGder 1st derivatives, ID1Alg=3 FixD1E=F DoIter=F DoCFld=F I1PDM=0.
 Calling FoFJK, ICntrl=      2127 FMM=F ISym2X=0 I1Cent= 0 IOpClX= 0 NMat=1 NMatS=1 NMatT=0.
 ***** Axes restored to original set *****
 -------------------------------------------------------------------
 Center     Atomic                   Forces (Hartrees/Bohr)
 Number     Number              X              Y              Z
 -------------------------------------------------------------------
      1        8           0.038358107    0.005638860    0.018999873
      2        1           0.008734951    0.002781474   -0.010562200
      3        8          -0.038378839   -0.018973097   -0.005665294
      4        1          -0.008714218    0.010552762   -0.002772379
 -------------------------------------------------------------------
 Cartesian Forces:  Max     0.038378839 RMS     0.018528640

 GradGradGradGradGradGradGradGradGradGradGradGradGradGradGradGradGradGrad
 Berny optimization.
 Internal  Forces:  Max     0.048112256 RMS     0.023357495
 Search for a saddle point.
 Step number   6 out of a maximum of   20
 All quantities printed in internal units (Hartrees-Bohrs-Radians)
 Swaping is turned off.
 Update second derivatives using D2CorX and points    1    2    3    4    5
                                                      6
 The second derivative matrix:
                          R1        R2        R3        A1        A2
           R1           0.57011
           R2          -0.00955   0.12738
           R3           0.00218  -0.00953   0.56977
           A1          -0.00669   0.01949  -0.00259   0.16758
           A2          -0.00259   0.01955  -0.00671   0.00500   0.16756
           D1           0.00048   0.02581   0.00047   0.01184   0.01183
                          D1
           D1           0.00020
     Eigenvalues ---   -0.00559   0.11625   0.16253   0.18882   0.56779
     Eigenvalues ---    0.57279
 Eigenvectors required to have negative eigenvalues:
                          D1        R2        A1        A2        R1
   1                    0.98191  -0.17773  -0.04604  -0.04591  -0.00450
                          R3
   1                   -0.00447
 RFO step:  Lambda0=1.085705601D-02 Lambda=-1.65814545D-02.
 Linear search not attempted -- option 19 set.
 Maximum step size (   0.030) exceeded in Quadratic search.
    -- Step size scaled by   0.035
 Iteration  1 RMS(Cart)=  0.01070115 RMS(Int)=  0.00010894
 Iteration  2 RMS(Cart)=  0.00008920 RMS(Int)=  0.00000001
 Iteration  3 RMS(Cart)=  0.00000001 RMS(Int)=  0.00000000
 Variable       Old X    -DE/DX   Delta X   Delta X   Delta X     New X
                                 (Linear)    (Quad)   (Total)
    R1        1.82409   0.00830   0.00000   0.00042   0.00042   1.82451
    R2        2.84172  -0.04811   0.00000  -0.00493  -0.00493   2.83679
    R3        1.82410   0.00830   0.00000   0.00042   0.00042   1.82451
    A1        1.87793  -0.02017   0.00000  -0.00111  -0.00111   1.87682
    A2        1.87770  -0.02012   0.00000  -0.00111  -0.00111   1.87660
    D1        0.87652   0.00309   0.00000  -0.02954  -0.02954   0.84698
         Item               Value     Threshold  Converged?
 Maximum Force            0.048112     0.000450     NO 
 RMS     Force            0.023357     0.000300     NO 
 Maximum Displacement     0.011903     0.001800     NO 
 RMS     Displacement     0.010681     0.001200     NO 
 Predicted change in Energy=-1.907874D-04
 GradGradGradGradGradGradGradGradGradGradGradGradGradGradGradGradGradGrad

                          Input orientation:                          
 ---------------------------------------------------------------------
 Center     Atomic      Atomic             Coordinates (Angstroms)
 Number     Number       Type             X           Y           Z
 ---------------------------------------------------------------------
      1          8           0       -0.876987   -0.141547    0.007012
      2          1           0       -1.120565    0.161803   -0.876628
      3          8           0        0.613392   -0.014466    0.133958
      4          1           0        0.856635    0.869307   -0.169277
 ---------------------------------------------------------------------
                    Distance matrix (angstroms):
                    1          2          3          4
     1  O    0.000000
     2  H    0.965490   0.000000
     3  O    1.501163   2.014686   0.000000
     4  H    2.014533   2.215903   0.965491   0.000000
 Stoichiometry    H2O2
 Framework group  C1[X(H2O2)]
 Deg. of freedom     6
 Full point group                 C1      NOp   1
 Largest Abelian subgroup         C1      NOp   1
 Largest concise Abelian subgroup C1      NOp   1
                         Standard orientation:                         
 ---------------------------------------------------------------------
 Center     Atomic      Atomic             Coordinates (Angstroms)
 Number     Number       Type             X           Y           Z
 ---------------------------------------------------------------------
      1          8           0        0.748635   -0.093263   -0.053860
      2          1           0        1.065912    0.746022    0.302661
      3          8           0       -0.748659   -0.093255    0.053855
      4          1           0       -1.065719    0.746130   -0.302626
 ---------------------------------------------------------------------
 Rotational constants (GHZ):    317.3022780     24.6568128     23.4238144
 Standard basis: 6-31+G(d,p) (6D, 7F)
 There are    48 symmetry adapted basis functions of A   symmetry.
 Integral buffers will be    262144 words long.
 Raffenetti 2 integral format.
 Two-electron integral symmetry is turned on.
    48 basis functions,    78 primitive gaussians,    48 cartesian basis functions
     9 alpha electrons        9 beta electrons
       nuclear repulsion energy        35.7717172656 Hartrees.
 NAtoms=    4 NActive=    4 NUniq=    4 SFac= 7.50D-01 NAtFMM=   80 NAOKFM=F Big=F
 ------------------------------------------------------------------------------
 Polarizable Continuum Model (PCM)
 =================================
 Model                : PCM.
 Atomic radii         : SMD-Coulomb.
 Polarization charges : Total charges.
 Charge compensation  : None.
 Solution method      : Matrix inversion.
 Cavity type          : VdW (van der Waals Surface) (Alpha=1.000).
 Cavity algorithm     : GePol (No added spheres)
                        Default sphere list used, NSphG=    4.
                        Lebedev-Laikov grids with approx.  5.0 points / Ang**2.
                        Smoothing algorithm: Karplus/York (Gamma=1.0000).
                        Polarization charges: spherical gaussians, with
                                              point-specific exponents (IZeta= 3).
                        Self-potential: point-specific (ISelfS= 7).
                        Self-field    : sphere-specific E.n sum rule (ISelfD= 2).
 1st derivatives      : Analytical E(r).r(x)/FMM algorithm (CHGder, D1EAlg=3).
                        Cavity 1st derivative terms included.
 Solvent              : Water, Eps=  78.355300 Eps(inf)=   1.777849
 ------------------------------------------------------------------------------
 Spheres list:
 ISph  on   Nord    Re0     Alpha      Xe            Ye            Ze
    1   O      1    1.520   1.000      0.748635     -0.093263     -0.053860
    2   H      2    1.200   1.000      1.065912      0.746022      0.302661
    3   O      3    1.520   1.000     -0.748659     -0.093255      0.053855
    4   H      4    1.200   1.000     -1.065719      0.746130     -0.302626
 ------------------------------------------------------------------------------
 ------------------------------------------------------------------------------
 Atomic radii for non-electrostatic terms: SMD-CDS.
 ------------------------------------------------------------------------------
 Nuclear repulsion after PCM non-electrostatic terms =       35.7738873979 Hartrees.
 One-electron integrals computed using PRISM.
 NBasis=    48 RedAO= T  NBF=    48
 NBsUse=    48 1.00D-06 NBFU=    48
 Initial guess read from the read-write file.
 B after Tr=     0.000000    0.000000    0.000000
         Rot=    1.000000    0.000000    0.000000    0.000000 Ang=   0.00 deg.
 Initial guess orbital symmetries:
       Occupied  (A) (A) (A) (A) (A) (A) (A) (A) (A)
       Virtual   (A) (A) (A) (A) (A) (A) (A) (A) (A) (A) (A) (A)
                 (A) (A) (A) (A) (A) (A) (A) (A) (A) (A) (A) (A)
                 (A) (A) (A) (A) (A) (A) (A) (A) (A) (A) (A) (A)
                 (A) (A) (A)
 Requested convergence on RMS density matrix=1.00D-08 within 128 cycles.
 Requested convergence on MAX density matrix=1.00D-06.
 Requested convergence on             energy=1.00D-06.
 No special actions if energy rises.
 Keep R1 ints in memory in canonical form, NReq=3734320.
 Error on total polarization charges =  0.02907
 SCF Done:  E(RM062X) =  -151.497955972     A.U. after    8 cycles
             Convg  =    0.5505D-08             -V/T =  2.0092
 SMD-CDS (non-electrostatic) energy             (kcal/mol) =       1.36
 (included in total energy above)
 D1PCM: PCM CHGder 1st derivatives, ID1Alg=3 FixD1E=F DoIter=F DoCFld=F I1PDM=0.
 Calling FoFJK, ICntrl=      2127 FMM=F ISym2X=0 I1Cent= 0 IOpClX= 0 NMat=1 NMatS=1 NMatT=0.
 ***** Axes restored to original set *****
 -------------------------------------------------------------------
 Center     Atomic                   Forces (Hartrees/Bohr)
 Number     Number              X              Y              Z
 -------------------------------------------------------------------
      1        8           0.037125734    0.005555725    0.018470920
      2        1           0.008512083    0.002744054   -0.010154286
      3        8          -0.037145893   -0.018445189   -0.005581664
      4        1          -0.008491924    0.010145409   -0.002734970
 -------------------------------------------------------------------
 Cartesian Forces:  Max     0.037145893 RMS     0.017951730

 GradGradGradGradGradGradGradGradGradGradGradGradGradGradGradGradGradGrad
 Berny optimization.
 Internal  Forces:  Max     0.046693031 RMS     0.022656162
 Search for a saddle point.
 Step number   7 out of a maximum of   20
 All quantities printed in internal units (Hartrees-Bohrs-Radians)
 Swaping is turned off.
 Update second derivatives using D2CorX and points    1    2    3    4    5
                                                      6    7
 The second derivative matrix:
                          R1        R2        R3        A1        A2
           R1           0.57017
           R2          -0.00956   0.12721
           R3           0.00225  -0.00954   0.56983
           A1          -0.00667   0.01940  -0.00256   0.16754
           A2          -0.00257   0.01946  -0.00668   0.00496   0.16752
           D1          -0.00033   0.02509  -0.00034   0.01154   0.01152
                          D1
           D1           0.00036
     Eigenvalues ---   -0.00513   0.11609   0.16253   0.18843   0.56779
     Eigenvalues ---    0.57293
 Eigenvectors required to have negative eigenvalues:
                          D1        R2        A1        A2        R1
   1                    0.98277  -0.17352  -0.04503  -0.04488  -0.00304
                          R3
   1                   -0.00301
 RFO step:  Lambda0=1.068844417D-02 Lambda=-1.57353140D-02.
 Linear search not attempted -- option 19 set.
 Maximum step size (   0.030) exceeded in Quadratic search.
    -- Step size scaled by   0.034
 Iteration  1 RMS(Cart)=  0.01061479 RMS(Int)=  0.00010940
 Iteration  2 RMS(Cart)=  0.00009097 RMS(Int)=  0.00000001
 Iteration  3 RMS(Cart)=  0.00000001 RMS(Int)=  0.00000000
 Variable       Old X    -DE/DX   Delta X   Delta X   Delta X     New X
                                 (Linear)    (Quad)   (Total)
    R1        1.82451   0.00799   0.00000   0.00036   0.00036   1.82487
    R2        2.83679  -0.04669   0.00000  -0.00476  -0.00476   2.83203
    R3        1.82451   0.00799   0.00000   0.00036   0.00036   1.82487
    A1        1.87682  -0.01953   0.00000  -0.00106  -0.00106   1.87577
    A2        1.87660  -0.01949   0.00000  -0.00105  -0.00105   1.87555
    D1        0.84698   0.00325   0.00000  -0.02958  -0.02958   0.81740
         Item               Value     Threshold  Converged?
 Maximum Force            0.046693     0.000450     NO 
 RMS     Force            0.022656     0.000300     NO 
 Maximum Displacement     0.011759     0.001800     NO 
 RMS     Displacement     0.010594     0.001200     NO 
 Predicted change in Energy=-1.664708D-04
 GradGradGradGradGradGradGradGradGradGradGradGradGradGradGradGradGradGrad

                          Input orientation:                          
 ---------------------------------------------------------------------
 Center     Atomic      Atomic             Coordinates (Angstroms)
 Number     Number       Type             X           Y           Z
 ---------------------------------------------------------------------
      1          8           0       -0.875120   -0.147067    0.005699
      2          1           0       -1.116586    0.168025   -0.874613
      3          8           0        0.611524   -0.013153    0.139477
      4          1           0        0.852657    0.867292   -0.175499
 ---------------------------------------------------------------------
                    Distance matrix (angstroms):
                    1          2          3          4
     1  O    0.000000
     2  H    0.965680   0.000000
     3  O    1.498646   2.011857   0.000000
     4  H    2.011709   2.203555   0.965681   0.000000
 Stoichiometry    H2O2
 Framework group  C1[X(H2O2)]
 Deg. of freedom     6
 Full point group                 C1      NOp   1
 Largest Abelian subgroup         C1      NOp   1
 Largest concise Abelian subgroup C1      NOp   1
                         Standard orientation:                         
 ---------------------------------------------------------------------
 Center     Atomic      Atomic             Coordinates (Angstroms)
 Number     Number       Type             X           Y           Z
 ---------------------------------------------------------------------
      1          8           0        0.747502   -0.093925   -0.052044
      2          1           0        1.062192    0.751313    0.293038
      3          8           0       -0.747525   -0.093916    0.052040
      4          1           0       -1.062004    0.751415   -0.293007
 ---------------------------------------------------------------------
 Rotational constants (GHZ):    316.7717500     24.7630131     23.4810173
 Standard basis: 6-31+G(d,p) (6D, 7F)
 There are    48 symmetry adapted basis functions of A   symmetry.
 Integral buffers will be    262144 words long.
 Raffenetti 2 integral format.
 Two-electron integral symmetry is turned on.
    48 basis functions,    78 primitive gaussians,    48 cartesian basis functions
     9 alpha electrons        9 beta electrons
       nuclear repulsion energy        35.8151416573 Hartrees.
 NAtoms=    4 NActive=    4 NUniq=    4 SFac= 7.50D-01 NAtFMM=   80 NAOKFM=F Big=F
 ------------------------------------------------------------------------------
 Polarizable Continuum Model (PCM)
 =================================
 Model                : PCM.
 Atomic radii         : SMD-Coulomb.
 Polarization charges : Total charges.
 Charge compensation  : None.
 Solution method      : Matrix inversion.
 Cavity type          : VdW (van der Waals Surface) (Alpha=1.000).
 Cavity algorithm     : GePol (No added spheres)
                        Default sphere list used, NSphG=    4.
                        Lebedev-Laikov grids with approx.  5.0 points / Ang**2.
                        Smoothing algorithm: Karplus/York (Gamma=1.0000).
                        Polarization charges: spherical gaussians, with
                                              point-specific exponents (IZeta= 3).
                        Self-potential: point-specific (ISelfS= 7).
                        Self-field    : sphere-specific E.n sum rule (ISelfD= 2).
 1st derivatives      : Analytical E(r).r(x)/FMM algorithm (CHGder, D1EAlg=3).
                        Cavity 1st derivative terms included.
 Solvent              : Water, Eps=  78.355300 Eps(inf)=   1.777849
 ------------------------------------------------------------------------------
 Spheres list:
 ISph  on   Nord    Re0     Alpha      Xe            Ye            Ze
    1   O      1    1.520   1.000      0.747502     -0.093925     -0.052044
    2   H      2    1.200   1.000      1.062192      0.751313      0.293038
    3   O      3    1.520   1.000     -0.747525     -0.093916      0.052040
    4   H      4    1.200   1.000     -1.062004      0.751415     -0.293007
 ------------------------------------------------------------------------------
 ------------------------------------------------------------------------------
 Atomic radii for non-electrostatic terms: SMD-CDS.
 ------------------------------------------------------------------------------
 Nuclear repulsion after PCM non-electrostatic terms =       35.8173049158 Hartrees.
 One-electron integrals computed using PRISM.
 NBasis=    48 RedAO= T  NBF=    48
 NBsUse=    48 1.00D-06 NBFU=    48
 Initial guess read from the read-write file.
 B after Tr=     0.000000    0.000000    0.000000
         Rot=    1.000000    0.000000    0.000000    0.000000 Ang=   0.00 deg.
 Initial guess orbital symmetries:
       Occupied  (A) (A) (A) (A) (A) (A) (A) (A) (A)
       Virtual   (A) (A) (A) (A) (A) (A) (A) (A) (A) (A) (A) (A)
                 (A) (A) (A) (A) (A) (A) (A) (A) (A) (A) (A) (A)
                 (A) (A) (A) (A) (A) (A) (A) (A) (A) (A) (A) (A)
                 (A) (A) (A)
 Requested convergence on RMS density matrix=1.00D-08 within 128 cycles.
 Requested convergence on MAX density matrix=1.00D-06.
 Requested convergence on             energy=1.00D-06.
 No special actions if energy rises.
 Keep R1 ints in memory in canonical form, NReq=3735897.
 Error on total polarization charges =  0.02908
 SCF Done:  E(RM062X) =  -151.498121128     A.U. after    8 cycles
             Convg  =    0.6723D-08             -V/T =  2.0092
 SMD-CDS (non-electrostatic) energy             (kcal/mol) =       1.36
 (included in total energy above)
 D1PCM: PCM CHGder 1st derivatives, ID1Alg=3 FixD1E=F DoIter=F DoCFld=F I1PDM=0.
[...]
 Keep R1 ints in memory in canonical form, NReq=3734396.
 Error on total polarization charges =  0.02916
 SCF Done:  E(RM062X) =  -151.498854534     A.U. after    8 cycles
             Convg  =    0.8351D-08             -V/T =  2.0090
 SMD-CDS (non-electrostatic) energy             (kcal/mol) =       1.34
 (included in total energy above)
 D1PCM: PCM CHGder 1st derivatives, ID1Alg=3 FixD1E=F DoIter=F DoCFld=F I1PDM=0.
 Calling FoFJK, ICntrl=      2127 FMM=F ISym2X=0 I1Cent= 0 IOpClX= 0 NMat=1 NMatS=1 NMatT=0.
 ***** Axes restored to original set *****
 -------------------------------------------------------------------
 Center     Atomic                   Forces (Hartrees/Bohr)
 Number     Number              X              Y              Z
 -------------------------------------------------------------------
      1        8           0.022681796    0.004156378    0.012488804
      2        1           0.005463586    0.002340891   -0.005979959
      3        8          -0.022694925   -0.012473671   -0.004175593
      4        1          -0.005450458    0.005976402   -0.002333252
 -------------------------------------------------------------------
 Cartesian Forces:  Max     0.022694925 RMS     0.011246320

 GradGradGradGradGradGradGradGradGradGradGradGradGradGradGradGradGradGrad
 Berny optimization.
 Internal  Forces:  Max     0.029469019 RMS     0.014262405
 Search for a saddle point.
 Step number  19 out of a maximum of   20
 All quantities printed in internal units (Hartrees-Bohrs-Radians)
 Swaping is turned off.
 Update second derivatives using D2CorX and points   13   14   15   16   17
                                                     18   19
 The second derivative matrix:
                          R1        R2        R3        A1        A2
           R1           0.56992
           R2          -0.00944   0.12890
           R3           0.00200  -0.00942   0.56958
           A1          -0.00657   0.02040  -0.00246   0.16810
           A2          -0.00247   0.02046  -0.00659   0.00552   0.16808
           D1           0.00154   0.03196   0.00154   0.01748   0.01747
                          D1
           D1          -0.00609
     Eigenvalues ---   -0.01507   0.11686   0.16253   0.19399   0.56779
     Eigenvalues ---    0.57241
 Eigenvectors required to have negative eigenvalues:
                          D1        R2        A1        A2        R1
   1                    0.97530  -0.19776  -0.06930  -0.06917  -0.00681
                          R3
   1                   -0.00680
 RFO step:  Lambda0=5.990067727D-03 Lambda=-6.09453864D-03.
 Linear search not attempted -- option 19 set.
 Maximum step size (   0.030) exceeded in Quadratic search.
    -- Step size scaled by   0.053
 Iteration  1 RMS(Cart)=  0.00951465 RMS(Int)=  0.00011255
 Iteration  2 RMS(Cart)=  0.00011019 RMS(Int)=  0.00000001
 Iteration  3 RMS(Cart)=  0.00000001 RMS(Int)=  0.00000000
 Variable       Old X    -DE/DX   Delta X   Delta X   Delta X     New X
                                 (Linear)    (Quad)   (Total)
    R1        1.82922   0.00490   0.00000   0.00047   0.00047   1.82969
    R2        2.78619  -0.02947   0.00000  -0.00393  -0.00393   2.78226
    R3        1.82922   0.00490   0.00000   0.00047   0.00047   1.82969
    A1        1.87070  -0.01203   0.00000  -0.00005  -0.00005   1.87065
    A2        1.87056  -0.01200   0.00000  -0.00004  -0.00004   1.87052
    D1        0.49090   0.00390   0.00000  -0.02973  -0.02973   0.46117
         Item               Value     Threshold  Converged?
 Maximum Force            0.029469     0.000450     NO 
 RMS     Force            0.014262     0.000300     NO 
 Maximum Displacement     0.009905     0.001800     NO 
 RMS     Displacement     0.009490     0.001200     NO 
 Predicted change in Energy=-3.311923D-06
 GradGradGradGradGradGradGradGradGradGradGradGradGradGradGradGradGradGrad

                          Input orientation:                          
 ---------------------------------------------------------------------
 Center     Atomic      Atomic             Coordinates (Angstroms)
 Number     Number       Type             X           Y           Z
 ---------------------------------------------------------------------
      1          8           0       -0.850614   -0.212034   -0.020175
      2          1           0       -1.084336    0.235221   -0.846495
      3          8           0        0.587000    0.012716    0.204427
      4          1           0        0.820425    0.839194   -0.242693
 ---------------------------------------------------------------------
                    Distance matrix (angstroms):
                    1          2          3          4
     1  O    0.000000
     2  H    0.968229   0.000000
     3  O    1.472309   1.986784   0.000000
     4  H    1.986697   2.087457   0.968230   0.000000
 Stoichiometry    H2O2
 Framework group  C1[X(H2O2)]
 Deg. of freedom     6
 Full point group                 C1      NOp   1
 Largest Abelian subgroup         C1      NOp   1
 Largest concise Abelian subgroup C1      NOp   1
                         Standard orientation:                         
 ---------------------------------------------------------------------
 Center     Atomic      Atomic             Coordinates (Angstroms)
 Number     Number       Type             X           Y           Z
 ---------------------------------------------------------------------
      1          8           0        0.735546   -0.100066   -0.029742
      2          1           0        1.029856    0.800472    0.169954
      3          8           0       -0.735560   -0.100058    0.029741
      4          1           0       -1.029742    0.800526   -0.169946
 ---------------------------------------------------------------------
 Rotational constants (GHZ):    312.3262249     25.8746504     24.0778871
 Standard basis: 6-31+G(d,p) (6D, 7F)
 There are    48 symmetry adapted basis functions of A   symmetry.
 Integral buffers will be    262144 words long.
 Raffenetti 2 integral format.
 Two-electron integral symmetry is turned on.
    48 basis functions,    78 primitive gaussians,    48 cartesian basis functions
     9 alpha electrons        9 beta electrons
       nuclear repulsion energy        36.2627133024 Hartrees.
 NAtoms=    4 NActive=    4 NUniq=    4 SFac= 7.50D-01 NAtFMM=   80 NAOKFM=F Big=F
 ------------------------------------------------------------------------------
 Polarizable Continuum Model (PCM)
 =================================
 Model                : PCM.
 Atomic radii         : SMD-Coulomb.
 Polarization charges : Total charges.
 Charge compensation  : None.
 Solution method      : Matrix inversion.
 Cavity type          : VdW (van der Waals Surface) (Alpha=1.000).
 Cavity algorithm     : GePol (No added spheres)
                        Default sphere list used, NSphG=    4.
                        Lebedev-Laikov grids with approx.  5.0 points / Ang**2.
                        Smoothing algorithm: Karplus/York (Gamma=1.0000).
                        Polarization charges: spherical gaussians, with
                                              point-specific exponents (IZeta= 3).
                        Self-potential: point-specific (ISelfS= 7).
                        Self-field    : sphere-specific E.n sum rule (ISelfD= 2).
 1st derivatives      : Analytical E(r).r(x)/FMM algorithm (CHGder, D1EAlg=3).
                        Cavity 1st derivative terms included.
 Solvent              : Water, Eps=  78.355300 Eps(inf)=   1.777849
 ------------------------------------------------------------------------------
 Spheres list:
 ISph  on   Nord    Re0     Alpha      Xe            Ye            Ze
    1   O      1    1.520   1.000      0.735546     -0.100066     -0.029742
    2   H      2    1.200   1.000      1.029856      0.800472      0.169954
    3   O      3    1.520   1.000     -0.735560     -0.100058      0.029741
    4   H      4    1.200   1.000     -1.029742      0.800526     -0.169946
 ------------------------------------------------------------------------------
 ------------------------------------------------------------------------------
 Atomic radii for non-electrostatic terms: SMD-CDS.
 ------------------------------------------------------------------------------
 Nuclear repulsion after PCM non-electrostatic terms =       36.2648458732 Hartrees.
 One-electron integrals computed using PRISM.
 NBasis=    48 RedAO= T  NBF=    48
 NBsUse=    48 1.00D-06 NBFU=    48
 Initial guess read from the read-write file.
 B after Tr=     0.000000    0.000000    0.000000
         Rot=    1.000000    0.000000    0.000000    0.000000 Ang=   0.00 deg.
 Initial guess orbital symmetries:
       Occupied  (A) (A) (A) (A) (A) (A) (A) (A) (A)
       Virtual   (A) (A) (A) (A) (A) (A) (A) (A) (A) (A) (A) (A)
                 (A) (A) (A) (A) (A) (A) (A) (A) (A) (A) (A) (A)
                 (A) (A) (A) (A) (A) (A) (A) (A) (A) (A) (A) (A)
                 (A) (A) (A)
 Requested convergence on RMS density matrix=1.00D-08 within 128 cycles.
 Requested convergence on MAX density matrix=1.00D-06.
 Requested convergence on             energy=1.00D-06.
 No special actions if energy rises.
 Keep R1 ints in memory in canonical form, NReq=3735973.
 Error on total polarization charges =  0.02918
 SCF Done:  E(RM062X) =  -151.498862503     A.U. after    8 cycles
             Convg  =    0.7642D-08             -V/T =  2.0089
 SMD-CDS (non-electrostatic) energy             (kcal/mol) =       1.34
 (included in total energy above)
 D1PCM: PCM CHGder 1st derivatives, ID1Alg=3 FixD1E=F DoIter=F DoCFld=F I1PDM=0.
 Calling FoFJK, ICntrl=      2127 FMM=F ISym2X=0 I1Cent= 0 IOpClX= 0 NMat=1 NMatS=1 NMatT=0.
 ***** Axes restored to original set *****
 -------------------------------------------------------------------
 Center     Atomic                   Forces (Hartrees/Bohr)
 Number     Number              X              Y              Z
 -------------------------------------------------------------------
      1        8           0.021479108    0.004016373    0.011942872
      2        1           0.005208391    0.002290039   -0.005625409
      3        8          -0.021491509   -0.011928596   -0.004034848
      4        1          -0.005195990    0.005622184   -0.002282616
 -------------------------------------------------------------------
 Cartesian Forces:  Max     0.021491509 RMS     0.010678664

 GradGradGradGradGradGradGradGradGradGradGradGradGradGradGradGradGradGrad
 Berny optimization.
 Internal  Forces:  Max     0.028014890 RMS     0.013561062
 Search for a saddle point.
 Step number  20 out of a maximum of   20
 All quantities printed in internal units (Hartrees-Bohrs-Radians)
 Swaping is turned off.
 Update second derivatives using D2CorX and points   14   15   16   17   18
                                                     19   20
 The second derivative matrix:
                          R1        R2        R3        A1        A2
           R1           0.56987
           R2          -0.00944   0.12890
           R3           0.00195  -0.00942   0.56953
           A1          -0.00658   0.02044  -0.00247   0.16814
           A2          -0.00248   0.02049  -0.00659   0.00556   0.16812
           D1           0.00099   0.03150   0.00098   0.01683   0.01681
                          D1
           D1          -0.00618
     Eigenvalues ---   -0.01479   0.11685   0.16253   0.19370   0.56779
     Eigenvalues ---    0.57231
 Eigenvectors required to have negative eigenvalues:
                          D1        R2        A1        A2        R1
   1                    0.97612  -0.19588  -0.06621  -0.06606  -0.00581
                          R3
   1                   -0.00580
 RFO step:  Lambda0=5.608638696D-03 Lambda=-5.53625431D-03.
 Linear search not attempted -- option 19 set.
 Maximum step size (   0.030) exceeded in Quadratic search.
    -- Step size scaled by   0.054
 Iteration  1 RMS(Cart)=  0.00946375 RMS(Int)=  0.00011325
 Iteration  2 RMS(Cart)=  0.00011183 RMS(Int)=  0.00000001
 Iteration  3 RMS(Cart)=  0.00000001 RMS(Int)=  0.00000000
 Variable       Old X    -DE/DX   Delta X   Delta X   Delta X     New X
                                 (Linear)    (Quad)   (Total)
    R1        1.82969   0.00462   0.00000   0.00042   0.00042   1.83011
    R2        2.78226  -0.02801   0.00000  -0.00373  -0.00373   2.77853
    R3        1.82969   0.00462   0.00000   0.00042   0.00042   1.83011
    A1        1.87065  -0.01144   0.00000  -0.00009  -0.00009   1.87056
    A2        1.87052  -0.01141   0.00000  -0.00008  -0.00008   1.87044
    D1        0.46117   0.00384   0.00000  -0.02976  -0.02976   0.43141
         Item               Value     Threshold  Converged?
 Maximum Force            0.028015     0.000450     NO 
 RMS     Force            0.013561     0.000300     NO 
 Maximum Displacement     0.009834     0.001800     NO 
 RMS     Displacement     0.009440     0.001200     NO 
 Predicted change in Energy= 5.777879D-06
 Optimization stopped.
    -- Number of steps exceeded,  NStep=  20
    -- Flag reset to prevent archiving.
                           ----------------------------
                           ! Non-Optimized Parameters !
                           ! (Angstroms and Degrees)  !
 --------------------------                            --------------------------
 ! Name  Definition              Value          Derivative Info.                !
 --------------------------------------------------------------------------------
 ! R1    R(1,2)                  0.9685         -DE/DX =    0.0046              !
 ! R2    R(1,3)                  1.4703         -DE/DX =   -0.028               !
 ! R3    R(3,4)                  0.9685         -DE/DX =    0.0046              !
 ! A1    A(2,1,3)              107.1754         -DE/DX =   -0.0114              !
 ! A2    A(1,3,4)              107.1684         -DE/DX =   -0.0114              !
 ! D1    D(2,1,3,4)             24.718          -DE/DX =    0.0038              !
 --------------------------------------------------------------------------------
 GradGradGradGradGradGradGradGradGradGradGradGradGradGradGradGradGradGrad

                          Input orientation:                          
 ---------------------------------------------------------------------
 Center     Atomic      Atomic             Coordinates (Angstroms)
 Number     Number       Type             X           Y           Z
 ---------------------------------------------------------------------
      1          8           0       -0.850614   -0.212034   -0.020175
      2          1           0       -1.084336    0.235221   -0.846495
      3          8           0        0.587000    0.012716    0.204427
      4          1           0        0.820425    0.839194   -0.242693
 ---------------------------------------------------------------------
                    Distance matrix (angstroms):
                    1          2          3          4
     1  O    0.000000
     2  H    0.968229   0.000000
     3  O    1.472309   1.986784   0.000000
     4  H    1.986697   2.087457   0.968230   0.000000
 Stoichiometry    H2O2
 Framework group  C1[X(H2O2)]
 Deg. of freedom     6
 Full point group                 C1      NOp   1
 Largest Abelian subgroup         C1      NOp   1
 Largest concise Abelian subgroup C1      NOp   1
                         Standard orientation:                         
 ---------------------------------------------------------------------
 Center     Atomic      Atomic             Coordinates (Angstroms)
 Number     Number       Type             X           Y           Z
 ---------------------------------------------------------------------
      1          8           0        0.735546   -0.100066   -0.029742
      2          1           0        1.029856    0.800472    0.169954
      3          8           0       -0.735560   -0.100058    0.029741
      4          1           0       -1.029742    0.800526   -0.169946
 ---------------------------------------------------------------------
 Rotational constants (GHZ):    312.3262249     25.8746504     24.0778871

 **********************************************************************

            Population analysis using the SCF density.

 **********************************************************************

 Orbital symmetries:
       Occupied  (A) (A) (A) (A) (A) (A) (A) (A) (A)
       Virtual   (A) (A) (A) (A) (A) (A) (A) (A) (A) (A) (A) (A)
                 (A) (A) (A) (A) (A) (A) (A) (A) (A) (A) (A) (A)
                 (A) (A) (A) (A) (A) (A) (A) (A) (A) (A) (A) (A)
                 (A) (A) (A)
 The electronic state is 1-A.
 Alpha  occ. eigenvalues --  -19.71360 -19.71344  -1.24205  -1.02486  -0.64969
 Alpha  occ. eigenvalues --   -0.51525  -0.51210  -0.45729  -0.35755
 Alpha virt. eigenvalues --    0.03651   0.08755   0.15341   0.16402   0.17587
 Alpha virt. eigenvalues --    0.20036   0.20263   0.22458   0.28284   0.29993
 Alpha virt. eigenvalues --    0.36255   1.00338   1.04240   1.08102   1.10638
 Alpha virt. eigenvalues --    1.14146   1.19731   1.23176   1.29781   1.31298
 Alpha virt. eigenvalues --    1.50821   1.55297   1.62455   1.64750   1.66437
 Alpha virt. eigenvalues --    1.95938   1.97874   2.31907   2.36746   2.51979
 Alpha virt. eigenvalues --    2.64855   2.65552   2.71867   2.98386   3.11431
 Alpha virt. eigenvalues --    3.37056   3.49300   3.84206   4.20906
          Condensed to atoms (all electrons):
              1          2          3          4
     1  O    8.125291   0.268955   0.046442  -0.007680
     2  H    0.268955   0.312319  -0.007680  -0.006591
     3  O    0.046442  -0.007680   8.125261   0.268955
     4  H   -0.007680  -0.006591   0.268955   0.312324
 Mulliken atomic charges:
              1
     1  O   -0.433009
     2  H    0.432996
     3  O   -0.432979
     4  H    0.432991
 Sum of Mulliken atomic charges =   0.00000
 Mulliken charges with hydrogens summed into heavy atoms:
              1
     1  O   -0.000013
     3  O    0.000013
 Sum of Mulliken charges with hydrogens summed into heavy atoms =   0.00000
 Electronic spatial extent (au):  <R**2>=             68.3831
 Charge=              0.0000 electrons
 Dipole moment (field-independent basis, Debye):
    X=              0.0002    Y=              4.2737    Z=              0.0000  Tot=              4.2737
 Quadrupole moment (field-independent basis, Debye-Ang):
   XX=            -10.4544   YY=             -9.3269   ZZ=            -13.1586
   XY=              0.0002   XZ=              1.0231   YZ=              0.0000
 Traceless Quadrupole moment (field-independent basis, Debye-Ang):
   XX=              0.5256   YY=              1.6530   ZZ=             -2.1787
   XY=              0.0002   XZ=              1.0231   YZ=              0.0000
 Octapole moment (field-independent basis, Debye-Ang**2):
  XXX=              0.0009  YYY=              4.8340  ZZZ=              0.0000  XYY=             -0.0001
  XXY=              5.6060  XXZ=              0.0001  XZZ=              0.0000  YZZ=              0.9765
  YYZ=              0.0000  XYZ=              0.8348
 Hexadecapole moment (field-independent basis, Debye-Ang**3):
 XXXX=            -45.8203 YYYY=            -10.4714 ZZZZ=            -11.6249 XXXY=              0.0008
 XXXZ=              1.4975 YYYX=              0.0000 YYYZ=              0.0000 ZZZX=              0.7279
 ZZZY=              0.0000 XXYY=             -7.9547 XXZZ=            -11.5099 YYZZ=             -3.9862
 XXYZ=              0.0001 YYXZ=              0.7225 ZZXY=              0.0001
 N-N= 3.626484587322D+01 E-N=-4.302725731747D+02  KE= 1.501574575499D+02


 NOTHING MAKES A PERSON MORE PRODUCTIVE THAN THE LAST MINUTE.
 Error termination request processed by link 9999.
 Error termination via Lnk1e in C:\G09W\l9999.exe at Fri Feb 05 13:11:00 2021.
 Job cpu time:  0 days  0 hours  1 minutes 11.0 seconds.
 File lengths (MBytes):  RWF=     10 Int=      0 D2E=      0 Chk=      2 Scr=      1
