 Entering Link 1 = C:\G09W\l1.exe PID=      1364.
  
 Copyright (c) 1988,1990,1992,1993,1995,1998,2003,2009, Gaussian, Inc.
                  All Rights Reserved.
  
 This is part of the Gaussian(R) 09 program.  It is based on
 the Gaussian(R) 03 system (copyright 2003, Gaussian, Inc.),
 the Gaussian(R) 98 system (copyright 1998, Gaussian, Inc.),
 the Gaussian(R) 94 system (copyright 1995, Gaussian, Inc.),
 the Gaussian 92(TM) system (copyright 1992, Gaussian, Inc.),
 the Gaussian 90(TM) system (copyright 1990, Gaussian, Inc.),
 the Gaussian 88(TM) system (copyright 1988, Gaussian, Inc.),
 the Gaussian 86(TM) system (copyright 1986, Carnegie Mellon
 University), and the Gaussian 82(TM) system (copyright 1983,
 Carnegie Mellon University). Gaussian is a federally registered
 trademark of Gaussian, Inc.
  
 This software contains proprietary and confidential information,
 including trade secrets, belonging to Gaussian, Inc.
  
 This software is provided under written license and may be
 used, copied, transmitted, or stored only in accord with that
 written license.
  
 The following legend is applicable only to US Government
 contracts under FAR:
  
                    RESTRICTED RIGHTS LEGEND
  
 Use, reproduction and disclosure by the US Government is
 subject to restrictions as set forth in subparagraphs (a)
 and (c) of the Commercial Computer Software - Restricted
 Rights clause in FAR 52.227-19.
  
 Gaussian, Inc.
 340 Quinnipiac St., Bldg. 40, Wallingford CT 06492
  
  
 ---------------------------------------------------------------
 Warning -- This program may not be used in any manner that
 competes with the business of Gaussian, Inc. or will provide
 assistance to any competitor of Gaussian, Inc.  The licensee
 of this program is prohibited from giving any competitor of
 Gaussian, Inc. access to this program.  By using this program,
 the user acknowledges that Gaussian, Inc. is engaged in the
 business of creating and licensing software in the field of
 computational chemistry and represents and warrants to the
 licensee that it is not a competitor of Gaussian, Inc. and that
 it will not use this program in any manner prohibited above.
 ---------------------------------------------------------------
  

 Cite this work as:
 Gaussian 09, Revision A.02,
 M. J. Frisch, G. W. Trucks, H. B. Schlegel, G. E. Scuseria, 
 M. A. Robb, J. R. Cheeseman, G. Scalmani, V. Barone, B. Mennucci, 
 G. A. Petersson, H. Nakatsuji, M. Caricato, X. Li, H. P. Hratchian, 
 A. F. Izmaylov, J. Bloino, G. Zheng, J. L. Sonnenberg, M. Hada, 
 M. Ehara, K. Toyota, R. Fukuda, J. Hasegawa, M. Ishida, T. Nakajima, 
 Y. Honda, O. Kitao, H. Nakai, T. Vreven, J. A. Montgomery, Jr., 
 J. E. Peralta, F. Ogliaro, M. Bearpark, J. J. Heyd, E. Brothers, 
 K. N. Kudin, V. N. Staroverov, R. Kobayashi, J. Normand, 
 K. Raghavachari, A. Rendell, J. C. Burant, S. S. Iyengar, J. Tomasi, 
 M. Cossi, N. Rega, J. M. Millam, M. Klene, J. E. Knox, J. B. Cross, 
 V. Bakken, C. Adamo, J. Jaramillo, R. Gomperts, R. E. Stratmann, 
 O. Yazyev, A. J. Austin, R. Cammi, C. Pomelli, J. W. Ochterski, 
 R. L. Martin, K. Morokuma, V. G. Zakrzewski, G. A. Voth, 
 P. Salvador, J. J. Dannenberg, S. Dapprich, A. D. Daniels, 
 O. Farkas, J. B. Foresman, J. V. Ortiz, J. Cioslowski, 
 and D. J. Fox, Gaussian, Inc., Wallingford CT, 2009.
 
 ******************************************
 Gaussian 09:  IA32W-G09RevA.02 11-Jun-2009
                05-Feb-2021 
 ******************************************
 %chk=D:\Documents\rayGit\FQ\quimicaComputacional\proyecto\decompositionHydrogenP
 eroxide\descompositionByRadicals\solvated\step1\ts\ts1M062X.chk
 %mem=1500MB
 %nprocshared=4
 Will use up to    4 processors via shared memory.
 ----------------------------------------------------------------------
 # opt(calcfc,ts,noeigen) freq=noraman 6-31+g(d,p) scrf=smd m062x iop(1
 /8=3)
 ----------------------------------------------------------------------
 1/5=1,8=3,10=4,11=1,14=-1,18=20,26=3,38=1/1,3;
 2/9=110,12=2,17=6,18=5,40=1/2;
 3/5=1,6=6,7=111,11=2,16=1,25=1,30=1,70=32201,71=2,72=1,74=-55/1,2,3;
 4//1;
 5/5=2,38=5/2;
 8/6=4,10=90,11=11/1;
 11/6=1,8=1,9=11,15=111,16=1/1,2,10;
 10/6=1,7=6,13=1/2;
 6/7=2,8=2,9=2,10=2,28=1/1;
 7/10=1,18=20,25=1/1,2,3,16;
 1/5=1,8=3,10=4,11=1,14=-1,18=20/3(2);
 2/9=110/2;
 99//99;
 2/9=110/2;
 3/5=1,6=6,7=111,11=2,16=1,25=1,30=1,70=32205,71=1,74=-55/1,2,3;
 4/5=5,16=3/1;
 5/5=2,38=5/2;
 7//1,2,3,16;
 1/5=1,8=3,11=1,14=-1,18=20/3(-5);
 2/9=110/2;
 6/7=2,8=2,9=2,10=2,19=2,28=1/1;
 99/9=1/99;
 ------------------------------------
 transition state solvated with m062x
 ------------------------------------
 Symbolic Z-matrix:
 Charge =  0 Multiplicity = 1
 O                    -0.93177  -0.0075    0. 
 H                    -1.25222  -0.0075   -0.90494 
 O                     0.66823  -0.0075    0. 
 H                     0.98823   0.8976    0. 
 

 GradGradGradGradGradGradGradGradGradGradGradGradGradGradGradGradGradGrad
 Berny optimization.
 Initialization pass.
                           ----------------------------
                           !    Initial Parameters    !
                           ! (Angstroms and Degrees)  !
 --------------------------                            --------------------------
 ! Name  Definition              Value          Derivative Info.                !
 --------------------------------------------------------------------------------
 ! R1    R(1,2)                  0.96           calculate D2E/DX2 analytically  !
 ! R2    R(1,3)                  1.6            calculate D2E/DX2 analytically  !
 ! R3    R(3,4)                  0.96           calculate D2E/DX2 analytically  !
 ! A1    A(2,1,3)              109.5            calculate D2E/DX2 analytically  !
 ! A2    A(1,3,4)              109.4712         calculate D2E/DX2 analytically  !
 ! D1    D(2,1,3,4)             90.0            calculate D2E/DX2 analytically  !
 --------------------------------------------------------------------------------
 Trust Radius=3.00D-02 FncErr=1.00D-07 GrdErr=1.00D-06
 Number of steps in this run=  20 maximum allowed number of steps= 100.
 Search for a saddle point of order  1.
 GradGradGradGradGradGradGradGradGradGradGradGradGradGradGradGradGradGrad

                          Input orientation:                          
 ---------------------------------------------------------------------
 Center     Atomic      Atomic             Coordinates (Angstroms)
 Number     Number       Type             X           Y           Z
 ---------------------------------------------------------------------
      1          8           0       -0.931768   -0.007500    0.000000
      2          1           0       -1.252222   -0.007500   -0.904936
      3          8           0        0.668232   -0.007500    0.000000
      4          1           0        0.988232    0.897597    0.000000
 ---------------------------------------------------------------------
                    Distance matrix (angstroms):
                    1          2          3          4
     1  O    0.000000
     2  H    0.960000   0.000000
     3  O    1.600000   2.122982   0.000000
     4  H    2.122640   2.580261   0.960000   0.000000
 Stoichiometry    H2O2
 Framework group  C1[X(H2O2)]
 Deg. of freedom     6
 Full point group                 C1      NOp   1
 Largest Abelian subgroup         C1      NOp   1
 Largest concise Abelian subgroup C1      NOp   1
                         Standard orientation:                         
 ---------------------------------------------------------------------
 Center     Atomic      Atomic             Coordinates (Angstroms)
 Number     Number       Type             X           Y           Z
 ---------------------------------------------------------------------
      1          8           0        0.794418   -0.070931   -0.094258
      2          1           0        1.187944    0.567799    0.504709
      3          8           0       -0.794468   -0.071279    0.094003
      4          1           0       -1.187544    0.569876   -0.502665
 ---------------------------------------------------------------------
 Rotational constants (GHZ):    335.0772450     21.2090932     21.1692711
 Standard basis: 6-31+G(d,p) (6D, 7F)
 There are    48 symmetry adapted basis functions of A   symmetry.
 Integral buffers will be    262144 words long.
 Raffenetti 2 integral format.
 Two-electron integral symmetry is turned on.
    48 basis functions,    78 primitive gaussians,    48 cartesian basis functions
     9 alpha electrons        9 beta electrons
       nuclear repulsion energy        34.1802966111 Hartrees.
 NAtoms=    4 NActive=    4 NUniq=    4 SFac= 7.50D-01 NAtFMM=   80 NAOKFM=F Big=F
 ------------------------------------------------------------------------------
 Polarizable Continuum Model (PCM)
 =================================
 Model                : PCM.
 Atomic radii         : SMD-Coulomb.
 Polarization charges : Total charges.
 Charge compensation  : None.
 Solution method      : Matrix inversion.
 Cavity type          : VdW (van der Waals Surface) (Alpha=1.000).
 Cavity algorithm     : GePol (No added spheres)
                        Default sphere list used, NSphG=    4.
                        Lebedev-Laikov grids with approx.  5.0 points / Ang**2.
                        Smoothing algorithm: Karplus/York (Gamma=1.0000).
                        Polarization charges: spherical gaussians, with
                                              point-specific exponents (IZeta= 3).
                        Self-potential: point-specific (ISelfS= 7).
                        Self-field    : sphere-specific E.n sum rule (ISelfD= 2).
 1st derivatives      : Analytical E(r).r(x)/FMM algorithm (CHGder, D1EAlg=3).
                        Cavity 1st derivative terms included.
 2nd derivatives      : Analytical E(r).r(xy)/FMM algorithm (CHGder, D2EAlg=3).
                        Cavity 2nd derivative terms included.
 Solvent              : Water, Eps=  78.355300 Eps(inf)=   1.777849
 ------------------------------------------------------------------------------
 Spheres list:
 ISph  on   Nord    Re0     Alpha      Xe            Ye            Ze
    1   O      1    1.520   1.000      0.794418     -0.070931     -0.094258
    2   H      2    1.200   1.000      1.187944      0.567799      0.504709
    3   O      3    1.520   1.000     -0.794468     -0.071279      0.094003
    4   H      4    1.200   1.000     -1.187544      0.569876     -0.502665
 ------------------------------------------------------------------------------
 ------------------------------------------------------------------------------
 Atomic radii for non-electrostatic terms: SMD-CDS.
 ------------------------------------------------------------------------------
 Nuclear repulsion after PCM non-electrostatic terms =       34.1825441167 Hartrees.
 One-electron integrals computed using PRISM.
 NBasis=    48 RedAO= T  NBF=    48
 NBsUse=    48 1.00D-06 NBFU=    48
 Harris functional with IExCor= 1009 diagonalized for initial guess.
 ExpMin= 8.45D-02 ExpMax= 5.48D+03 ExpMxC= 8.25D+02 IAcc=2 IRadAn=         0 AccDes= 0.00D+00
 HarFok:  IExCor= 1009 AccDes= 0.00D+00 IRadAn=         0 IDoV= 1
 ScaDFX=  1.000000  1.000000  1.000000  1.000000
 FoFCou: FMM=F IPFlag=           0 FMFlag=      100000 FMFlg1=           0
         NFxFlg=           0 DoJE=T BraDBF=F KetDBF=T FulRan=T
         Omega=  0.000000  0.000000  1.000000  0.000000  0.000000 ICntrl=     500 IOpCl=  0
         NMat0=    1 NMatS0=    1 NMatT0=    0 NMatD0=    1 NMtDS0=    0 NMtDT0=    0
         I1Cent=           4 NGrid=           0.
 Petite list used in FoFCou.
 Initial guess orbital symmetries:
       Occupied  (A) (A) (A) (A) (A) (A) (A) (A) (A)
       Virtual   (A) (A) (A) (A) (A) (A) (A) (A) (A) (A) (A) (A)
                 (A) (A) (A) (A) (A) (A) (A) (A) (A) (A) (A) (A)
                 (A) (A) (A) (A) (A) (A) (A) (A) (A) (A) (A) (A)
                 (A) (A) (A)
 The electronic state of the initial guess is 1-A.
 Requested convergence on RMS density matrix=1.00D-08 within 128 cycles.
 Requested convergence on MAX density matrix=1.00D-06.
 Requested convergence on             energy=1.00D-06.
 No special actions if energy rises.
 Keep R1 ints in memory in canonical form, NReq=3734449.
 Error on total polarization charges =  0.02908
 SCF Done:  E(RM062X) =  -151.483976782     A.U. after   12 cycles
             Convg  =    0.9396D-09             -V/T =  2.0099
 SMD-CDS (non-electrostatic) energy             (kcal/mol) =       1.41
 (included in total energy above)
 Range of M.O.s used for correlation:     1    48
 NBasis=    48 NAE=     9 NBE=     9 NFC=     0 NFV=     0
 NROrb=     48 NOA=     9 NOB=     9 NVA=    39 NVB=    39

 **** Warning!!: The largest alpha MO coefficient is  0.10662989D+02

 Symmetrizing basis deriv contribution to polar:
 IMax=3 JMax=2 DiffMx= 0.00D+00
 G2DrvN: will do     5 centers at a time, making    1 passes doing MaxLOS=2.
 Calling FoFCou, ICntrl=  3107 FMM=F I1Cent=   0 AccDes= 0.00D+00.
 FoFDir/FoFCou used for L=0 through L=2.
 G2PCM: DoFxE=T DoFxN=T DoGrad=T DoPD/DQ/DG=FFF NFrqRd=   0 IEInf=0 DoCFld=F IF1Alg=4.
 End of G2Drv Frequency-dependent properties file   721 does not exist.
 End of G2Drv Frequency-dependent properties file   722 does not exist.
          IDoAtm=1111
 NEqPCM:  Using equilibrium solvation (IEInf=0, Eps=  78.3553, EpsInf=   1.7778)
          Differentiating once with respect to nuclear coordinates.
          Keep R1 ints in memory in canonical form, NReq=1513001.
          There are    15 degrees of freedom in the 1st order CPHF.  IDoFFX=5.
      9 vectors produced by pass  0 Test12= 2.34D-11 6.67D-07 XBig12= 3.85D-02 1.21D-01.
 AX will form     9 AO Fock derivatives at one time.
      9 vectors produced by pass  1 Test12= 2.34D-11 6.67D-07 XBig12= 4.67D-03 2.40D-02.
      9 vectors produced by pass  2 Test12= 2.34D-11 6.67D-07 XBig12= 2.17D-04 4.41D-03.
      9 vectors produced by pass  3 Test12= 2.34D-11 6.67D-07 XBig12= 3.29D-06 4.82D-04.
      9 vectors produced by pass  4 Test12= 2.34D-11 6.67D-07 XBig12= 1.25D-08 3.79D-05.
      2 vectors produced by pass  5 Test12= 2.34D-11 6.67D-07 XBig12= 5.95D-11 3.86D-06.
 Inverted reduced A of dimension    47 with in-core refinement.
 End of Minotr Frequency-dependent properties file   721 does not exist.
 End of Minotr Frequency-dependent properties file   722 does not exist.

 **********************************************************************

            Population analysis using the SCF density.

 **********************************************************************

 Orbital symmetries:
       Occupied  (A) (A) (A) (A) (A) (A) (A) (A) (A)
       Virtual   (A) (A) (A) (A) (A) (A) (A) (A) (A) (A) (A) (A)
                 (A) (A) (A) (A) (A) (A) (A) (A) (A) (A) (A) (A)
                 (A) (A) (A) (A) (A) (A) (A) (A) (A) (A) (A) (A)
                 (A) (A) (A)
 The electronic state is 1-A.
 Alpha  occ. eigenvalues --  -19.72323 -19.72311  -1.20297  -1.05236  -0.61578
 Alpha  occ. eigenvalues --   -0.55101  -0.48828  -0.41115  -0.40507
 Alpha virt. eigenvalues --   -0.02404   0.08964   0.14446   0.16042   0.16281
 Alpha virt. eigenvalues --    0.20974   0.21202   0.21450   0.26652   0.33406
 Alpha virt. eigenvalues --    0.34057   1.01182   1.06189   1.08874   1.09265
 Alpha virt. eigenvalues --    1.13422   1.20427   1.25991   1.26620   1.34192
 Alpha virt. eigenvalues --    1.50347   1.54976   1.61753   1.63044   1.68689
 Alpha virt. eigenvalues --    1.81010   2.02713   2.03888   2.41558   2.46983
 Alpha virt. eigenvalues --    2.64097   2.72170   2.80131   2.80812   3.04487
 Alpha virt. eigenvalues --    3.39631   3.44866   3.88413   4.16084
          Condensed to atoms (all electrons):
              1          2          3          4
     1  O    8.073534   0.263294   0.112988  -0.009997
     2  H    0.263294   0.308025  -0.009980  -0.001111
     3  O    0.112988  -0.009980   8.073399   0.263309
     4  H   -0.009997  -0.001111   0.263309   0.308037
 Mulliken atomic charges:
              1
     1  O   -0.439819
     2  H    0.439772
     3  O   -0.439716
     4  H    0.439762
 Sum of Mulliken atomic charges =   0.00000
 Mulliken charges with hydrogens summed into heavy atoms:
              1
     1  O   -0.000046
     3  O    0.000046
 Sum of Mulliken charges with hydrogens summed into heavy atoms =   0.00000
 APT atomic charges:
              1
     1  O   -0.641606
     2  H    0.641584
     3  O   -0.641456
     4  H    0.641478
 Sum of APT charges=   0.00000
 APT Atomic charges with hydrogens summed into heavy atoms:
              1
     1  O   -0.000023
     2  H    0.000000
     3  O    0.000023
     4  H    0.000000
 Sum of APT charges=   0.00000
 Electronic spatial extent (au):  <R**2>=             74.8994
 Charge=              0.0000 electrons
 Dipole moment (field-independent basis, Debye):
    X=              0.0006    Y=              3.0723    Z=              0.0057  Tot=              3.0723
 Quadrupole moment (field-independent basis, Debye-Ang):
   XX=             -8.8327   YY=            -11.4156   ZZ=            -11.8230
   XY=             -0.0063   XZ=              3.4580   YZ=              0.0003
 Traceless Quadrupole moment (field-independent basis, Debye-Ang):
   XX=              1.8578   YY=             -0.7252   ZZ=             -1.1326
   XY=             -0.0063   XZ=              3.4580   YZ=              0.0003
 Octapole moment (field-independent basis, Debye-Ang**2):
  XXX=              0.0041  YYY=              2.6913  ZZZ=              0.0065  XYY=             -0.0081
  XXY=              4.9981  XXZ=              0.0102  XZZ=              0.0076  YZZ=              1.1891
  YYZ=              0.0003  XYZ=              2.0360
 Hexadecapole moment (field-independent basis, Debye-Ang**3):
 XXXX=            -48.1991 YYYY=            -11.8255 ZZZZ=            -12.1853 XXXY=             -0.0097
 XXXZ=              6.2285 YYYX=             -0.0094 YYYZ=             -0.0019 ZZZX=              2.9374
 ZZZY=              0.0021 XXYY=            -10.4011 XXZZ=            -10.9157 YYZZ=             -3.6522
 XXYZ=              0.0011 YYXZ=              1.6340 ZZXY=              0.0006
 N-N= 3.418254411671D+01 E-N=-4.260176751390D+02  KE= 1.500044218601D+02
  Exact polarizability:   0.000   0.000   0.000   0.000   0.000   0.000
 Approx polarizability:  24.673   0.001  10.122  -0.150   0.000   9.921
 D2PCM: PCM CHGder 2nd derivatives, FixD1E=F FixD2E=F DoIter=F DoCFld=F I1PDM=0
 Calling FoFJK, ICntrl=    100147 FMM=F ISym2X=0 I1Cent= 0 IOpClX= 0 NMat=1 NMatS=1 NMatT=0.
 ***** Axes restored to original set *****
 -------------------------------------------------------------------
 Center     Atomic                   Forces (Hartrees/Bohr)
 Number     Number              X              Y              Z
 -------------------------------------------------------------------
      1        8           0.068908486    0.010895765    0.033308906
      2        1           0.013484687    0.000896756   -0.021487331
      3        8          -0.068934441   -0.033254146   -0.010923331
      4        1          -0.013458731    0.021461625   -0.000898244
 -------------------------------------------------------------------
 Cartesian Forces:  Max     0.068934441 RMS     0.033217198

 GradGradGradGradGradGradGradGradGradGradGradGradGradGradGradGradGradGrad
 Berny optimization.
 Internal  Forces:  Max     0.082414743 RMS     0.040612791
 Search for a saddle point.
 Step number   1 out of a maximum of   20
 All quantities printed in internal units (Hartrees-Bohrs-Radians)
 Swaping is turned off.
 Second derivative matrix not updated -- analytic derivatives used.
 The second derivative matrix:
                          R1        R2        R3        A1        A2
           R1           0.56965
           R2          -0.00977   0.11032
           R3           0.00173  -0.00978   0.56932
           A1          -0.00686   0.01667  -0.00275   0.16700
           A2          -0.00275   0.01673  -0.00687   0.00442   0.16698
           D1           0.00032   0.00197   0.00019   0.00869   0.00862
                          D1
           D1           0.00520
     Eigenvalues ---    0.00430   0.10208   0.16253   0.17987   0.56779
     Eigenvalues ---    0.57190
 Eigenvectors required to have negative eigenvalues:
                          D1        A1        A2        R2        R1
   1                    0.99734  -0.05169  -0.05124  -0.00253  -0.00148
                          R3
   1                   -0.00125
 RFO step:  Lambda0=5.372060133D-03 Lambda=-4.96522727D-02.
 Linear search not attempted -- option 19 set.
 Maximum step size (   0.030) exceeded in Quadratic search.
    -- Step size scaled by   0.013
 Iteration  1 RMS(Cart)=  0.01087912 RMS(Int)=  0.00009912
 Iteration  2 RMS(Cart)=  0.00007017 RMS(Int)=  0.00000000
 Iteration  3 RMS(Cart)=  0.00000000 RMS(Int)=  0.00000000
 Variable       Old X    -DE/DX   Delta X   Delta X   Delta X     New X
                                 (Linear)    (Quad)   (Total)
    R1        1.81414   0.01577   0.00000   0.00025   0.00025   1.81439
    R2        3.02356  -0.08241   0.00000  -0.00627  -0.00627   3.01729
    R3        1.81414   0.01577   0.00000   0.00024   0.00024   1.81438
    A1        1.91114  -0.03613   0.00000  -0.00012  -0.00012   1.91102
    A2        1.91063  -0.03605   0.00000  -0.00012  -0.00012   1.91051
    D1        1.57080  -0.00149   0.00000  -0.02933  -0.02933   1.54146
         Item               Value     Threshold  Converged?
 Maximum Force            0.082415     0.000450     NO 
 RMS     Force            0.040613     0.000300     NO 
 Maximum Displacement     0.012698     0.001800     NO 
 RMS     Displacement     0.010872     0.001200     NO 
 Predicted change in Energy=-5.720052D-04
 GradGradGradGradGradGradGradGradGradGradGradGradGradGradGradGradGradGrad

                          Input orientation:                          
 ---------------------------------------------------------------------
 Center     Atomic      Atomic             Coordinates (Angstroms)
 Number     Number       Type             X           Y           Z
 ---------------------------------------------------------------------
      1          8           0       -0.930099   -0.013138    0.001033
      2          1           0       -1.247919   -0.000781   -0.904888
      3          8           0        0.666569   -0.008532    0.005637
      4          1           0        0.983924    0.897547   -0.006718
 ---------------------------------------------------------------------
                    Distance matrix (angstroms):
                    1          2          3          4
     1  O    0.000000
     2  H    0.960132   0.000000
     3  O    1.596681   2.119995   0.000000
     4  H    2.119645   2.568039   0.960128   0.000000
 Stoichiometry    H2O2
 Framework group  C1[X(H2O2)]
 Deg. of freedom     6
 Full point group                 C1      NOp   1
 Largest Abelian subgroup         C1      NOp   1
 Largest concise Abelian subgroup C1      NOp   1
                         Standard orientation:                         
 ---------------------------------------------------------------------
 Center     Atomic      Atomic             Coordinates (Angstroms)
 Number     Number       Type             X           Y           Z
 ---------------------------------------------------------------------
      1          8           0        0.792917   -0.072043   -0.092762
      2          1           0        1.184351    0.576523    0.497150
      3          8           0       -0.792968   -0.072263    0.092597
      4          1           0       -1.183943    0.577922   -0.495829
 ---------------------------------------------------------------------
 Rotational constants (GHZ):    334.6689346     21.3133386     21.2335467
 Standard basis: 6-31+G(d,p) (6D, 7F)
 There are    48 symmetry adapted basis functions of A   symmetry.
 Integral buffers will be    262144 words long.
 Raffenetti 2 integral format.
 Two-electron integral symmetry is turned on.
    48 basis functions,    78 primitive gaussians,    48 cartesian basis functions
     9 alpha electrons        9 beta electrons
       nuclear repulsion energy        34.2296994089 Hartrees.
 NAtoms=    4 NActive=    4 NUniq=    4 SFac= 7.50D-01 NAtFMM=   80 NAOKFM=F Big=F
 ------------------------------------------------------------------------------
 Polarizable Continuum Model (PCM)
 =================================
 Model                : PCM.
 Atomic radii         : SMD-Coulomb.
 Polarization charges : Total charges.
 Charge compensation  : None.
 Solution method      : Matrix inversion.
 Cavity type          : VdW (van der Waals Surface) (Alpha=1.000).
 Cavity algorithm     : GePol (No added spheres)
                        Default sphere list used, NSphG=    4.
                        Lebedev-Laikov grids with approx.  5.0 points / Ang**2.
                        Smoothing algorithm: Karplus/York (Gamma=1.0000).
                        Polarization charges: spherical gaussians, with
                                              point-specific exponents (IZeta= 3).
                        Self-potential: point-specific (ISelfS= 7).
                        Self-field    : sphere-specific E.n sum rule (ISelfD= 2).
 1st derivatives      : Analytical E(r).r(x)/FMM algorithm (CHGder, D1EAlg=3).
                        Cavity 1st derivative terms included.
 Solvent              : Water, Eps=  78.355300 Eps(inf)=   1.777849
 ------------------------------------------------------------------------------
 Spheres list:
 ISph  on   Nord    Re0     Alpha      Xe            Ye            Ze
    1   O      1    1.520   1.000      0.792917     -0.072043     -0.092762
    2   H      2    1.200   1.000      1.184351      0.576523      0.497150
    3   O      3    1.520   1.000     -0.792968     -0.072263      0.092597
    4   H      4    1.200   1.000     -1.183943      0.577922     -0.495829
 ------------------------------------------------------------------------------
 ------------------------------------------------------------------------------
 Atomic radii for non-electrostatic terms: SMD-CDS.
 ------------------------------------------------------------------------------
 Nuclear repulsion after PCM non-electrostatic terms =       34.2319471013 Hartrees.
 One-electron integrals computed using PRISM.
 NBasis=    48 RedAO= T  NBF=    48
 NBsUse=    48 1.00D-06 NBFU=    48
 Initial guess read from the read-write file.
 B after Tr=     0.000000    0.000000    0.000000
         Rot=    1.000000    0.000000    0.000000    0.000000 Ang=   0.00 deg.
 Initial guess orbital symmetries:
       Occupied  (A) (A) (A) (A) (A) (A) (A) (A) (A)
       Virtual   (A) (A) (A) (A) (A) (A) (A) (A) (A) (A) (A) (A)
                 (A) (A) (A) (A) (A) (A) (A) (A) (A) (A) (A) (A)
                 (A) (A) (A) (A) (A) (A) (A) (A) (A) (A) (A) (A)
                 (A) (A) (A)
 Requested convergence on RMS density matrix=1.00D-08 within 128 cycles.
 Requested convergence on MAX density matrix=1.00D-06.
 Requested convergence on             energy=1.00D-06.
 No special actions if energy rises.
 Keep R1 ints in memory in canonical form, NReq=3737611.
 Error on total polarization charges =  0.02907
 SCF Done:  E(RM062X) =  -151.484549773     A.U. after   10 cycles
             Convg  =    0.3645D-08             -V/T =  2.0098
 SMD-CDS (non-electrostatic) energy             (kcal/mol) =       1.41
 (included in total energy above)
 D1PCM: PCM CHGder 1st derivatives, ID1Alg=3 FixD1E=F DoIter=F DoCFld=F I1PDM=0.
 Calling FoFJK, ICntrl=      2127 FMM=F ISym2X=0 I1Cent= 0 IOpClX= 0 NMat=1 NMatS=1 NMatT=0.
 ***** Axes restored to original set *****
 -------------------------------------------------------------------
 Center     Atomic                   Forces (Hartrees/Bohr)
 Number     Number              X              Y              Z
 -------------------------------------------------------------------
      1        8           0.068142590    0.010607936    0.032966309
      2        1           0.013420067    0.001159881   -0.021169276
      3        8          -0.068170844   -0.032913169   -0.010635013
      4        1          -0.013391813    0.021145353   -0.001162020
 -------------------------------------------------------------------
 Cartesian Forces:  Max     0.068170844 RMS     0.032842758

 GradGradGradGradGradGradGradGradGradGradGradGradGradGradGradGradGradGrad
 Berny optimization.
 Internal  Forces:  Max     0.081650676 RMS     0.040216647
 Search for a saddle point.
 Step number   2 out of a maximum of   20
 All quantities printed in internal units (Hartrees-Bohrs-Radians)
 Swaping is turned off.
 Update second derivatives using D2CorX and points    1    2
 The second derivative matrix:
                          R1        R2        R3        A1        A2
           R1           0.56966
           R2          -0.00986   0.11043
           R3           0.00174  -0.00985   0.56932
           A1          -0.00685   0.01660  -0.00275   0.16700
           A2          -0.00275   0.01668  -0.00687   0.00442   0.16698
           D1          -0.00008   0.00214  -0.00012   0.00834   0.00834
                          D1
           D1           0.00447
     Eigenvalues ---    0.00364   0.10222   0.16253   0.17977   0.56779
     Eigenvalues ---    0.57192
 Eigenvectors required to have negative eigenvalues:
                          D1        A2        A1        R2        R1
   1                    0.99757  -0.04917  -0.04917  -0.00478  -0.00078
                          R3
   1                   -0.00070
 RFO step:  Lambda0=4.941231445D-03 Lambda=-4.88956963D-02.
 Linear search not attempted -- option 19 set.
 Maximum step size (   0.030) exceeded in Quadratic search.
    -- Step size scaled by   0.015
 Iteration  1 RMS(Cart)=  0.01108061 RMS(Int)=  0.00009840
 Iteration  2 RMS(Cart)=  0.00006955 RMS(Int)=  0.00000000
 Iteration  3 RMS(Cart)=  0.00000000 RMS(Int)=  0.00000000
 Variable       Old X    -DE/DX   Delta X   Delta X   Delta X     New X
                                 (Linear)    (Quad)   (Total)
    R1        1.81439   0.01556   0.00000   0.00025   0.00025   1.81464
    R2        3.01729  -0.08165   0.00000  -0.00708  -0.00708   3.01021
    R3        1.81438   0.01556   0.00000   0.00025   0.00025   1.81463
    A1        1.91102  -0.03576   0.00000  -0.00042  -0.00042   1.91060
    A2        1.91051  -0.03568   0.00000  -0.00041  -0.00041   1.91010
    D1        1.54146  -0.00134   0.00000  -0.02914  -0.02914   1.51232
         Item               Value     Threshold  Converged?
 Maximum Force            0.081651     0.000450     NO 
 RMS     Force            0.040217     0.000300     NO 
 Maximum Displacement     0.012807     0.001800     NO 
 RMS     Displacement     0.011075     0.001200     NO 
 Predicted change in Energy=-6.497497D-04
 GradGradGradGradGradGradGradGradGradGradGradGradGradGradGradGradGradGrad

                          Input orientation:                          
 ---------------------------------------------------------------------
 Center     Atomic      Atomic             Coordinates (Angstroms)
 Number     Number       Type             X           Y           Z
 ---------------------------------------------------------------------
      1          8           0       -0.928207   -0.018669    0.002088
      2          1           0       -1.243246    0.005996   -0.904694
      3          8           0        0.664675   -0.009584    0.011164
      4          1           0        0.979253    0.897353   -0.013494
 ---------------------------------------------------------------------
                    Distance matrix (angstroms):
                    1          2          3          4
     1  O    0.000000
     2  H    0.960266   0.000000
     3  O    1.592933   2.116412   0.000000
     4  H    2.116067   2.555045   0.960261   0.000000
 Stoichiometry    H2O2
 Framework group  C1[X(H2O2)]
 Deg. of freedom     6
 Full point group                 C1      NOp   1
 Largest Abelian subgroup         C1      NOp   1
 Largest concise Abelian subgroup C1      NOp   1
                         Standard orientation:                         
 ---------------------------------------------------------------------
 Center     Atomic      Atomic             Coordinates (Angstroms)
 Number     Number       Type             X           Y           Z
 ---------------------------------------------------------------------
      1          8           0        0.791200   -0.073111   -0.091283
      2          1           0        1.180305    0.584974    0.489779
      3          8           0       -0.791250   -0.073264    0.091165
      4          1           0       -1.179902    0.586021   -0.488831
 ---------------------------------------------------------------------
 Rotational constants (GHZ):    334.1852861     21.4300707     21.3098020
 Standard basis: 6-31+G(d,p) (6D, 7F)
 There are    48 symmetry adapted basis functions of A   symmetry.
 Integral buffers will be    262144 words long.
 Raffenetti 2 integral format.
 Two-electron integral symmetry is turned on.
    48 basis functions,    78 primitive gaussians,    48 cartesian basis functions
     9 alpha electrons        9 beta electrons
       nuclear repulsion energy        34.2861913549 Hartrees.
 NAtoms=    4 NActive=    4 NUniq=    4 SFac= 7.50D-01 NAtFMM=   80 NAOKFM=F Big=F
 ------------------------------------------------------------------------------
 Polarizable Continuum Model (PCM)
 =================================
 Model                : PCM.
 Atomic radii         : SMD-Coulomb.
 Polarization charges : Total charges.
 Charge compensation  : None.
 Solution method      : Matrix inversion.
 Cavity type          : VdW (van der Waals Surface) (Alpha=1.000).
 Cavity algorithm     : GePol (No added spheres)
                        Default sphere list used, NSphG=    4.
                        Lebedev-Laikov grids with approx.  5.0 points / Ang**2.
                        Smoothing algorithm: Karplus/York (Gamma=1.0000).
                        Polarization charges: spherical gaussians, with
                                              point-specific exponents (IZeta= 3).
                        Self-potential: point-specific (ISelfS= 7).
                        Self-field    : sphere-specific E.n sum rule (ISelfD= 2).
 1st derivatives      : Analytical E(r).r(x)/FMM algorithm (CHGder, D1EAlg=3).
                        Cavity 1st derivative terms included.
 Solvent              : Water, Eps=  78.355300 Eps(inf)=   1.777849
 ------------------------------------------------------------------------------
 Spheres list:
 ISph  on   Nord    Re0     Alpha      Xe            Ye            Ze
    1   O      1    1.520   1.000      0.791200     -0.073111     -0.091283
    2   H      2    1.200   1.000      1.180305      0.584974      0.489779
    3   O      3    1.520   1.000     -0.791250     -0.073264      0.091165
    4   H      4    1.200   1.000     -1.179902      0.586021     -0.488831
 ------------------------------------------------------------------------------
 ------------------------------------------------------------------------------
 Atomic radii for non-electrostatic terms: SMD-CDS.
 ------------------------------------------------------------------------------
 Nuclear repulsion after PCM non-electrostatic terms =       34.2884391094 Hartrees.
 One-electron integrals computed using PRISM.
 NBasis=    48 RedAO= T  NBF=    48
 NBsUse=    48 1.00D-06 NBFU=    48
 Initial guess read from the read-write file.
 B after Tr=     0.000000    0.000000    0.000000
         Rot=    1.000000    0.000000    0.000000    0.000000 Ang=   0.00 deg.
 Initial guess orbital symmetries:
       Occupied  (A) (A) (A) (A) (A) (A) (A) (A) (A)
       Virtual   (A) (A) (A) (A) (A) (A) (A) (A) (A) (A) (A) (A)
                 (A) (A) (A) (A) (A) (A) (A) (A) (A) (A) (A) (A)
                 (A) (A) (A) (A) (A) (A) (A) (A) (A) (A) (A) (A)
                 (A) (A) (A)
 Requested convergence on RMS density matrix=1.00D-08 within 128 cycles.
 Requested convergence on MAX density matrix=1.00D-06.
 Requested convergence on             energy=1.00D-06.
 No special actions if energy rises.
 Keep R1 ints in memory in canonical form, NReq=3737867.
 Error on total polarization charges =  0.02905
 SCF Done:  E(RM062X) =  -151.485200244     A.U. after   10 cycles
             Convg  =    0.3895D-08             -V/T =  2.0098
 SMD-CDS (non-electrostatic) energy             (kcal/mol) =       1.41
 (included in total energy above)
 D1PCM: PCM CHGder 1st derivatives, ID1Alg=3 FixD1E=F DoIter=F DoCFld=F I1PDM=0.
 Calling FoFJK, ICntrl=      2127 FMM=F ISym2X=0 I1Cent= 0 IOpClX= 0 NMat=1 NMatS=1 NMatT=0.
 ***** Axes restored to original set *****
 -------------------------------------------------------------------
 Center     Atomic                   Forces (Hartrees/Bohr)
 Number     Number              X              Y              Z
 -------------------------------------------------------------------
      1        8           0.067267799    0.010305454    0.032555546
      2        1           0.013338561    0.001412843   -0.020808470
      3        8          -0.067296411   -0.032503694   -0.010332869
      4        1          -0.013309949    0.020785397   -0.001414206
 -------------------------------------------------------------------
 Cartesian Forces:  Max     0.067296411 RMS     0.032412936

 GradGradGradGradGradGradGradGradGradGradGradGradGradGradGradGradGradGrad
 Berny optimization.
 Internal  Forces:  Max     0.080756913 RMS     0.039756528
 Search for a saddle point.
 Step number   3 out of a maximum of   20
 All quantities printed in internal units (Hartrees-Bohrs-Radians)
 Swaping is turned off.
 Update second derivatives using D2CorX and points    1    2    3
 The second derivative matrix:
                          R1        R2        R3        A1        A2
           R1           0.56966
           R2          -0.00999   0.11087
           R3           0.00174  -0.00997   0.56932
           A1          -0.00686   0.01655  -0.00275   0.16699
           A2          -0.00276   0.01663  -0.00688   0.00441   0.16697
           D1          -0.00064   0.00307  -0.00066   0.00805   0.00806
                          D1
           D1           0.00389
     Eigenvalues ---    0.00309   0.10262   0.16253   0.17973   0.56779
     Eigenvalues ---    0.57194
 Eigenvectors required to have negative eigenvalues:
                          D1        A2        A1        R2        R3
   1                    0.99775  -0.04639  -0.04635  -0.01413   0.00013
                          R1
   1                    0.00009
 RFO step:  Lambda0=5.117954980D-03 Lambda=-4.79293268D-02.
 Linear search not attempted -- option 19 set.
 Maximum step size (   0.030) exceeded in Quadratic search.
    -- Step size scaled by   0.018
 Iteration  1 RMS(Cart)=  0.01140579 RMS(Int)=  0.00009736
 Iteration  2 RMS(Cart)=  0.00006857 RMS(Int)=  0.00000000
 Iteration  3 RMS(Cart)=  0.00000000 RMS(Int)=  0.00000000
 Variable       Old X    -DE/DX   Delta X   Delta X   Delta X     New X
                                 (Linear)    (Quad)   (Total)
    R1        1.81464   0.01533   0.00000   0.00027   0.00027   1.81491
    R2        3.01021  -0.08076   0.00000  -0.00823  -0.00823   3.00198
    R3        1.81463   0.01532   0.00000   0.00027   0.00027   1.81490
    A1        1.91060  -0.03533   0.00000  -0.00088  -0.00088   1.90971
    A2        1.91010  -0.03525   0.00000  -0.00087  -0.00087   1.90922
    D1        1.51232  -0.00120   0.00000  -0.02882  -0.02882   1.48350
         Item               Value     Threshold  Converged?
 Maximum Force            0.080757     0.000450     NO 
 RMS     Force            0.039757     0.000300     NO 
 Maximum Displacement     0.012967     0.001800     NO 
 RMS     Displacement     0.011403     0.001200     NO 
 Predicted change in Energy=-7.620898D-04
 GradGradGradGradGradGradGradGradGradGradGradGradGradGradGradGradGradGrad

                          Input orientation:                          
 ---------------------------------------------------------------------
 Center     Atomic      Atomic             Coordinates (Angstroms)
 Number     Number       Type             X           Y           Z
 ---------------------------------------------------------------------
      1          8           0       -0.926001   -0.024033    0.003224
      2          1           0       -1.238037    0.012858   -0.904331
      3          8           0        0.662467   -0.010717    0.016525
      4          1           0        0.974047    0.896989   -0.020354
 ---------------------------------------------------------------------
                    Distance matrix (angstroms):
                    1          2          3          4
     1  O    0.000000
     2  H    0.960408   0.000000
     3  O    1.588580   2.111977   0.000000
     4  H    2.111639   2.540948   0.960403   0.000000
 Stoichiometry    H2O2
 Framework group  C1[X(H2O2)]
 Deg. of freedom     6
 Full point group                 C1      NOp   1
 Largest Abelian subgroup         C1      NOp   1
 Largest concise Abelian subgroup C1      NOp   1
                         Standard orientation:                         
 ---------------------------------------------------------------------
 Center     Atomic      Atomic             Coordinates (Angstroms)
 Number     Number       Type             X           Y           Z
 ---------------------------------------------------------------------
      1          8           0        0.789176   -0.074151   -0.089819
      2          1           0        1.175602    0.593248    0.482577
      3          8           0       -0.789225   -0.074265    0.089728
      4          1           0       -1.175206    0.594083   -0.481851
 ---------------------------------------------------------------------
 Rotational constants (GHZ):    333.5850846     21.5644566     21.4031705
 Standard basis: 6-31+G(d,p) (6D, 7F)
 There are    48 symmetry adapted basis functions of A   symmetry.
 Integral buffers will be    262144 words long.
 Raffenetti 2 integral format.
 Two-electron integral symmetry is turned on.
    48 basis functions,    78 primitive gaussians,    48 cartesian basis functions
     9 alpha electrons        9 beta electrons
       nuclear repulsion energy        34.3526971418 Hartrees.
 NAtoms=    4 NActive=    4 NUniq=    4 SFac= 7.50D-01 NAtFMM=   80 NAOKFM=F Big=F
 ------------------------------------------------------------------------------
 Polarizable Continuum Model (PCM)
 =================================
 Model                : PCM.
 Atomic radii         : SMD-Coulomb.
 Polarization charges : Total charges.
 Charge compensation  : None.
 Solution method      : Matrix inversion.
 Cavity type          : VdW (van der Waals Surface) (Alpha=1.000).
 Cavity algorithm     : GePol (No added spheres)
                        Default sphere list used, NSphG=    4.
                        Lebedev-Laikov grids with approx.  5.0 points / Ang**2.
                        Smoothing algorithm: Karplus/York (Gamma=1.0000).
                        Polarization charges: spherical gaussians, with
                                              point-specific exponents (IZeta= 3).
                        Self-potential: point-specific (ISelfS= 7).
                        Self-field    : sphere-specific E.n sum rule (ISelfD= 2).
 1st derivatives      : Analytical E(r).r(x)/FMM algorithm (CHGder, D1EAlg=3).
                        Cavity 1st derivative terms included.
 Solvent              : Water, Eps=  78.355300 Eps(inf)=   1.777849
 ------------------------------------------------------------------------------
 Spheres list:
 ISph  on   Nord    Re0     Alpha      Xe            Ye            Ze
    1   O      1    1.520   1.000      0.789176     -0.074151     -0.089819
    2   H      2    1.200   1.000      1.175602      0.593248      0.482577
    3   O      3    1.520   1.000     -0.789225     -0.074265      0.089728
    4   H      4    1.200   1.000     -1.175206      0.594083     -0.481851
 ------------------------------------------------------------------------------
 ------------------------------------------------------------------------------
 Atomic radii for non-electrostatic terms: SMD-CDS.
 ------------------------------------------------------------------------------
 Nuclear repulsion after PCM non-electrostatic terms =       34.3549447542 Hartrees.
 One-electron integrals computed using PRISM.
 NBasis=    48 RedAO= T  NBF=    48
 NBsUse=    48 1.00D-06 NBFU=    48
 Initial guess read from the read-write file.
 B after Tr=     0.000000    0.000000    0.000000
         Rot=    1.000000    0.000000    0.000000    0.000000 Ang=   0.00 deg.
 Initial guess orbital symmetries:
       Occupied  (A) (A) (A) (A) (A) (A) (A) (A) (A)
       Virtual   (A) (A) (A) (A) (A) (A) (A) (A) (A) (A) (A) (A)
                 (A) (A) (A) (A) (A) (A) (A) (A) (A) (A) (A) (A)
                 (A) (A) (A) (A) (A) (A) (A) (A) (A) (A) (A) (A)
                 (A) (A) (A)
 Requested convergence on RMS density matrix=1.00D-08 within 128 cycles.
 Requested convergence on MAX density matrix=1.00D-06.
 Requested convergence on             energy=1.00D-06.
 No special actions if energy rises.
 Keep R1 ints in memory in canonical form, NReq=3739460.
 Error on total polarization charges =  0.02904
 SCF Done:  E(RM062X) =  -151.485962702     A.U. after   10 cycles
             Convg  =    0.4601D-08             -V/T =  2.0098
 SMD-CDS (non-electrostatic) energy             (kcal/mol) =       1.41
 (included in total energy above)
 D1PCM: PCM CHGder 1st derivatives, ID1Alg=3 FixD1E=F DoIter=F DoCFld=F I1PDM=0.
 Calling FoFJK, ICntrl=      2127 FMM=F ISym2X=0 I1Cent= 0 IOpClX= 0 NMat=1 NMatS=1 NMatT=0.
 ***** Axes restored to original set *****
 -------------------------------------------------------------------
 Center     Atomic                   Forces (Hartrees/Bohr)
 Number     Number              X              Y              Z
 -------------------------------------------------------------------
      1        8           0.066247731    0.009990962    0.032050384
      2        1           0.013223998    0.001638287   -0.020392758
      3        8          -0.066276845   -0.032000320   -0.010019755
      4        1          -0.013194884    0.020371071   -0.001637871
 -------------------------------------------------------------------
 Cartesian Forces:  Max     0.066276845 RMS     0.031908770

 GradGradGradGradGradGradGradGradGradGradGradGradGradGradGradGradGradGrad
 Berny optimization.
 Internal  Forces:  Max     0.079678788 RMS     0.039201732
 Search for a saddle point.
 Step number   4 out of a maximum of   20
 All quantities printed in internal units (Hartrees-Bohrs-Radians)
 Swaping is turned off.
 Update second derivatives using D2CorX and points    1    2    3    4
 The second derivative matrix:
                          R1        R2        R3        A1        A2
           R1           0.56968
           R2          -0.01011   0.11165
           R3           0.00176  -0.01008   0.56935
           A1          -0.00686   0.01658  -0.00275   0.16700
           A2          -0.00276   0.01666  -0.00687   0.00443   0.16699
           D1          -0.00103   0.00434  -0.00101   0.00798   0.00801
                          D1
           D1           0.00375
     Eigenvalues ---    0.00292   0.10328   0.16253   0.17990   0.56779
     Eigenvalues ---    0.57200
 Eigenvectors required to have negative eigenvalues:
                          D1        A2        A1        R2        R1
   1                    0.99766  -0.04482  -0.04466  -0.02605   0.00058
                          R3
   1                    0.00056
 RFO step:  Lambda0=5.871647108D-03 Lambda=-4.66916661D-02.
 Linear search not attempted -- option 19 set.
 Maximum step size (   0.030) exceeded in Quadratic search.
    -- Step size scaled by   0.020
 Iteration  1 RMS(Cart)=  0.01159675 RMS(Int)=  0.00009703
 Iteration  2 RMS(Cart)=  0.00006824 RMS(Int)=  0.00000000
 Iteration  3 RMS(Cart)=  0.00000000 RMS(Int)=  0.00000000
 Variable       Old X    -DE/DX   Delta X   Delta X   Delta X     New X
                                 (Linear)    (Quad)   (Total)
    R1        1.81491   0.01505   0.00000   0.00028   0.00028   1.81519
    R2        3.00198  -0.07968   0.00000  -0.00877  -0.00877   2.99321
    R3        1.81490   0.01505   0.00000   0.00028   0.00028   1.81518
    A1        1.90971  -0.03481   0.00000  -0.00117  -0.00117   1.90855
    A2        1.90922  -0.03473   0.00000  -0.00115  -0.00115   1.90807
    D1        1.48350  -0.00104   0.00000  -0.02864  -0.02864   1.45486
         Item               Value     Threshold  Converged?
 Maximum Force            0.079679     0.000450     NO 
 RMS     Force            0.039202     0.000300     NO 
 Maximum Displacement     0.013051     0.001800     NO 
 RMS     Displacement     0.011595     0.001200     NO 
 Predicted change in Energy=-8.093255D-04
 GradGradGradGradGradGradGradGradGradGradGradGradGradGradGradGradGradGrad

                          Input orientation:                          
 ---------------------------------------------------------------------
 Center     Atomic      Atomic             Coordinates (Angstroms)
 Number     Number       Type             X           Y           Z
 ---------------------------------------------------------------------
      1          8           0       -0.923643   -0.029307    0.004371
      2          1           0       -1.232527    0.019764   -0.903841
      3          8           0        0.660104   -0.011860    0.021794
      4          1           0        0.968540    0.896500   -0.027259
 ---------------------------------------------------------------------
                    Distance matrix (angstroms):
                    1          2          3          4
     1  O    0.000000
     2  H    0.960555   0.000000
     3  O    1.583939   2.107096   0.000000
     4  H    2.106769   2.526214   0.960550   0.000000
 Stoichiometry    H2O2
 Framework group  C1[X(H2O2)]
 Deg. of freedom     6
 Full point group                 C1      NOp   1
 Largest Abelian subgroup         C1      NOp   1
 Largest concise Abelian subgroup C1      NOp   1
                         Standard orientation:                         
 ---------------------------------------------------------------------
 Center     Atomic      Atomic             Coordinates (Angstroms)
 Number     Number       Type             X           Y           Z
 ---------------------------------------------------------------------
      1          8           0        0.787006   -0.075173   -0.088354
      2          1           0        1.170527    0.601386    0.475424
      3          8           0       -0.787054   -0.075260    0.088282
      4          1           0       -1.170143    0.602076   -0.474849
 ---------------------------------------------------------------------
 Rotational constants (GHZ):    332.9153488     21.7083720     21.5053022
 Standard basis: 6-31+G(d,p) (6D, 7F)
 There are    48 symmetry adapted basis functions of A   symmetry.
 Integral buffers will be    262144 words long.
 Raffenetti 2 integral format.
 Two-electron integral symmetry is turned on.
    48 basis functions,    78 primitive gaussians,    48 cartesian basis functions
     9 alpha electrons        9 beta electrons
       nuclear repulsion energy        34.4243023311 Hartrees.
 NAtoms=    4 NActive=    4 NUniq=    4 SFac= 7.50D-01 NAtFMM=   80 NAOKFM=F Big=F
 ------------------------------------------------------------------------------
 Polarizable Continuum Model (PCM)
 =================================
 Model                : PCM.
 Atomic radii         : SMD-Coulomb.
 Polarization charges : Total charges.
 Charge compensation  : None.
 Solution method      : Matrix inversion.
 Cavity type          : VdW (van der Waals Surface) (Alpha=1.000).
 Cavity algorithm     : GePol (No added spheres)
                        Default sphere list used, NSphG=    4.
                        Lebedev-Laikov grids with approx.  5.0 points / Ang**2.
                        Smoothing algorithm: Karplus/York (Gamma=1.0000).
                        Polarization charges: spherical gaussians, with
                                              point-specific exponents (IZeta= 3).
                        Self-potential: point-specific (ISelfS= 7).
                        Self-field    : sphere-specific E.n sum rule (ISelfD= 2).
 1st derivatives      : Analytical E(r).r(x)/FMM algorithm (CHGder, D1EAlg=3).
                        Cavity 1st derivative terms included.
 Solvent              : Water, Eps=  78.355300 Eps(inf)=   1.777849
 ------------------------------------------------------------------------------
 Spheres list:
 ISph  on   Nord    Re0     Alpha      Xe            Ye            Ze
    1   O      1    1.520   1.000      0.787006     -0.075173     -0.088354
    2   H      2    1.200   1.000      1.170527      0.601386      0.475424
    3   O      3    1.520   1.000     -0.787054     -0.075260      0.088282
    4   H      4    1.200   1.000     -1.170143      0.602076     -0.474849
 ------------------------------------------------------------------------------
 ------------------------------------------------------------------------------
 Atomic radii for non-electrostatic terms: SMD-CDS.
 ------------------------------------------------------------------------------
 Nuclear repulsion after PCM non-electrostatic terms =       34.4265497082 Hartrees.
 One-electron integrals computed using PRISM.
 NBasis=    48 RedAO= T  NBF=    48
 NBsUse=    48 1.00D-06 NBFU=    48
 Initial guess read from the read-write file.
 B after Tr=     0.000000    0.000000    0.000000
         Rot=    1.000000    0.000000    0.000000    0.000000 Ang=   0.00 deg.
 Initial guess orbital symmetries:
       Occupied  (A) (A) (A) (A) (A) (A) (A) (A) (A)
       Virtual   (A) (A) (A) (A) (A) (A) (A) (A) (A) (A) (A) (A)
                 (A) (A) (A) (A) (A) (A) (A) (A) (A) (A) (A) (A)
                 (A) (A) (A) (A) (A) (A) (A) (A) (A) (A) (A) (A)
                 (A) (A) (A)
 Requested convergence on RMS density matrix=1.00D-08 within 128 cycles.
 Requested convergence on MAX density matrix=1.00D-06.
 Requested convergence on             energy=1.00D-06.
 No special actions if energy rises.
 Keep R1 ints in memory in canonical form, NReq=3739461.
 Error on total polarization charges =  0.02902
 SCF Done:  E(RM062X) =  -151.486772150     A.U. after    9 cycles
             Convg  =    0.8652D-08             -V/T =  2.0098
 SMD-CDS (non-electrostatic) energy             (kcal/mol) =       1.41
 (included in total energy above)
 D1PCM: PCM CHGder 1st derivatives, ID1Alg=3 FixD1E=F DoIter=F DoCFld=F I1PDM=0.
 Calling FoFJK, ICntrl=      2127 FMM=F ISym2X=0 I1Cent= 0 IOpClX= 0 NMat=1 NMatS=1 NMatT=0.
 ***** Axes restored to original set *****
 -------------------------------------------------------------------
 Center     Atomic                   Forces (Hartrees/Bohr)
 Number     Number              X              Y              Z
 -------------------------------------------------------------------
      1        8           0.065136584    0.009683533    0.031495862
      2        1           0.013086025    0.001833257   -0.019951380
      3        8          -0.065165899   -0.031447630   -0.009713439
      4        1          -0.013056710    0.019930840   -0.001831042
 -------------------------------------------------------------------
 Cartesian Forces:  Max     0.065165899 RMS     0.031361022

 GradGradGradGradGradGradGradGradGradGradGradGradGradGradGradGradGradGrad
 Berny optimization.
 Internal  Forces:  Max     0.078481751 RMS     0.038587514
 Search for a saddle point.
 Step number   5 out of a maximum of   20
 All quantities printed in internal units (Hartrees-Bohrs-Radians)
 Swaping is turned off.
 Update second derivatives using D2CorX and points    1    2    3    4    5
 The second derivative matrix:
                          R1        R2        R3        A1        A2
           R1           0.56971
           R2          -0.01024   0.11288
           R3           0.00179  -0.01020   0.56937
           A1          -0.00686   0.01663  -0.00274   0.16700
           A2          -0.00275   0.01672  -0.00686   0.00443   0.16699
           D1          -0.00106   0.00569  -0.00102   0.00805   0.00808
                          D1
           D1           0.00392
     Eigenvalues ---    0.00299   0.10435   0.16253   0.18015   0.56779
     Eigenvalues ---    0.57207
 Eigenvectors required to have negative eigenvalues:
                          D1        A2        A1        R2        R1
   1                    0.99733  -0.04405  -0.04386  -0.03821   0.00042
                          R3
   1                    0.00036
 RFO step:  Lambda0=6.866701580D-03 Lambda=-4.52499823D-02.
 Linear search not attempted -- option 19 set.
 Maximum step size (   0.030) exceeded in Quadratic search.
    -- Step size scaled by   0.021
 Iteration  1 RMS(Cart)=  0.01165348 RMS(Int)=  0.00009744
 Iteration  2 RMS(Cart)=  0.00006856 RMS(Int)=  0.00000000
 Iteration  3 RMS(Cart)=  0.00000000 RMS(Int)=  0.00000000
 Variable       Old X    -DE/DX   Delta X   Delta X   Delta X     New X
                                 (Linear)    (Quad)   (Total)
    R1        1.81519   0.01476   0.00000   0.00029   0.00029   1.81547
    R2        2.99321  -0.07848   0.00000  -0.00878  -0.00878   2.98443
    R3        1.81518   0.01476   0.00000   0.00029   0.00029   1.81547
    A1        1.90855  -0.03423   0.00000  -0.00129  -0.00129   1.90726
    A2        1.90807  -0.03415   0.00000  -0.00127  -0.00127   1.90680
    D1        1.45486  -0.00086   0.00000  -0.02863  -0.02863   1.42623
         Item               Value     Threshold  Converged?
 Maximum Force            0.078482     0.000450     NO 
 RMS     Force            0.038588     0.000300     NO 
 Maximum Displacement     0.013080     0.001800     NO 
 RMS     Displacement     0.011652     0.001200     NO 
 Predicted change in Energy=-8.013372D-04
 GradGradGradGradGradGradGradGradGradGradGradGradGradGradGradGradGradGrad

                          Input orientation:                          
 ---------------------------------------------------------------------
 Center     Atomic      Atomic             Coordinates (Angstroms)
 Number     Number       Type             X           Y           Z
 ---------------------------------------------------------------------
      1          8           0       -0.921269   -0.034566    0.005461
      2          1           0       -1.226924    0.026686   -0.903264
      3          8           0        0.657726   -0.012947    0.027047
      4          1           0        0.962942    0.895924   -0.034180
 ---------------------------------------------------------------------
                    Distance matrix (angstroms):
                    1          2          3          4
     1  O    0.000000
     2  H    0.960708   0.000000
     3  O    1.579291   2.102131   0.000000
     4  H    2.101817   2.511254   0.960705   0.000000
 Stoichiometry    H2O2
 Framework group  C1[X(H2O2)]
 Deg. of freedom     6
 Full point group                 C1      NOp   1
 Largest Abelian subgroup         C1      NOp   1
 Largest concise Abelian subgroup C1      NOp   1
                         Standard orientation:                         
 ---------------------------------------------------------------------
 Center     Atomic      Atomic             Coordinates (Angstroms)
 Number     Number       Type             X           Y           Z
 ---------------------------------------------------------------------
      1          8           0        0.784832   -0.076179   -0.086874
      2          1           0        1.165339    0.609415    0.468225
      3          8           0       -0.784878   -0.076247    0.086815
      4          1           0       -1.164969    0.609999   -0.467757
 ---------------------------------------------------------------------
 Rotational constants (GHZ):    332.2143645     21.8544153     21.6086530
 Standard basis: 6-31+G(d,p) (6D, 7F)
 There are    48 symmetry adapted basis functions of A   symmetry.
 Integral buffers will be    262144 words long.
 Raffenetti 2 integral format.
 Two-electron integral symmetry is turned on.
    48 basis functions,    78 primitive gaussians,    48 cartesian basis functions
     9 alpha electrons        9 beta electrons
       nuclear repulsion energy        34.4965540116 Hartrees.
 NAtoms=    4 NActive=    4 NUniq=    4 SFac= 7.50D-01 NAtFMM=   80 NAOKFM=F Big=F
 ------------------------------------------------------------------------------
 Polarizable Continuum Model (PCM)
 =================================
 Model                : PCM.
 Atomic radii         : SMD-Coulomb.
 Polarization charges : Total charges.
 Charge compensation  : None.
 Solution method      : Matrix inversion.
 Cavity type          : VdW (van der Waals Surface) (Alpha=1.000).
 Cavity algorithm     : GePol (No added spheres)
                        Default sphere list used, NSphG=    4.
                        Lebedev-Laikov grids with approx.  5.0 points / Ang**2.
                        Smoothing algorithm: Karplus/York (Gamma=1.0000).
                        Polarization charges: spherical gaussians, with
                                              point-specific exponents (IZeta= 3).
                        Self-potential: point-specific (ISelfS= 7).
                        Self-field    : sphere-specific E.n sum rule (ISelfD= 2).
 1st derivatives      : Analytical E(r).r(x)/FMM algorithm (CHGder, D1EAlg=3).
                        Cavity 1st derivative terms included.
 Solvent              : Water, Eps=  78.355300 Eps(inf)=   1.777849
 ------------------------------------------------------------------------------
 Spheres list:
 ISph  on   Nord    Re0     Alpha      Xe            Ye            Ze
    1   O      1    1.520   1.000      0.784832     -0.076179     -0.086874
    2   H      2    1.200   1.000      1.165339      0.609415      0.468225
    3   O      3    1.520   1.000     -0.784878     -0.076247      0.086815
    4   H      4    1.200   1.000     -1.164969      0.609999     -0.467757
 ------------------------------------------------------------------------------
 ------------------------------------------------------------------------------
 Atomic radii for non-electrostatic terms: SMD-CDS.
 ------------------------------------------------------------------------------
 Nuclear repulsion after PCM non-electrostatic terms =       34.4988011181 Hartrees.
 One-electron integrals computed using PRISM.
 NBasis=    48 RedAO= T  NBF=    48
 NBsUse=    48 1.00D-06 NBFU=    48
 Initial guess read from the read-write file.
 B after Tr=     0.000000    0.000000    0.000000
         Rot=    1.000000    0.000000    0.000000    0.000000 Ang=   0.00 deg.
 Initial guess orbital symmetries:
       Occupied  (A) (A) (A) (A) (A) (A) (A) (A) (A)
       Virtual   (A) (A) (A) (A) (A) (A) (A) (A) (A) (A) (A) (A)
                 (A) (A) (A) (A) (A) (A) (A) (A) (A) (A) (A) (A)
                 (A) (A) (A) (A) (A) (A) (A) (A) (A) (A) (A) (A)
                 (A) (A) (A)
 Requested convergence on RMS density matrix=1.00D-08 within 128 cycles.
 Requested convergence on MAX density matrix=1.00D-06.
 Requested convergence on             energy=1.00D-06.
 No special actions if energy rises.
 Keep R1 ints in memory in canonical form, NReq=3736283.
 Error on total polarization charges =  0.02900
 SCF Done:  E(RM062X) =  -151.487573416     A.U. after    9 cycles
             Convg  =    0.5320D-08             -V/T =  2.0098
 SMD-CDS (non-electrostatic) energy             (kcal/mol) =       1.41
 (included in total energy above)
 D1PCM: PCM CHGder 1st derivatives, ID1Alg=3 FixD1E=F DoIter=F DoCFld=F I1PDM=0.
 Calling FoFJK, ICntrl=      2127 FMM=F ISym2X=0 I1Cent= 0 IOpClX= 0 NMat=1 NMatS=1 NMatT=0.
 ***** Axes restored to original set *****
 -------------------------------------------------------------------
 Center     Atomic                   Forces (Hartrees/Bohr)
 Number     Number              X              Y              Z
 -------------------------------------------------------------------
      1        8           0.063990355    0.009396109    0.030926875
      2        1           0.012931911    0.001999215   -0.019504647
      3        8          -0.064019848   -0.030879921   -0.009426600
      4        1          -0.012902419    0.019484597   -0.001995628
 -------------------------------------------------------------------
 Cartesian Forces:  Max     0.064019848 RMS     0.030798082

 GradGradGradGradGradGradGradGradGradGradGradGradGradGradGradGradGradGrad
 Berny optimization.
 Internal  Forces:  Max     0.077231494 RMS     0.037946005
 Search for a saddle point.
 Step number   6 out of a maximum of   20
 All quantities printed in internal units (Hartrees-Bohrs-Radians)
 Swaping is turned off.
 Update second derivatives using D2CorX and points    1    2    3    4    5
                                                      6
 The second derivative matrix:
                          R1        R2        R3        A1        A2
           R1           0.56970
           R2          -0.01016   0.11411
           R3           0.00178  -0.01011   0.56936
           A1          -0.00686   0.01683  -0.00274   0.16703
           A2          -0.00276   0.01693  -0.00686   0.00446   0.16702
           D1          -0.00082   0.00694  -0.00078   0.00833   0.00838
                          D1
           D1           0.00438
     Eigenvalues ---    0.00329   0.10531   0.16253   0.18064   0.56779
     Eigenvalues ---    0.57203
 Eigenvectors required to have negative eigenvalues:
                          D1        R2        A2        A1        R3
   1                    0.99681  -0.04891  -0.04474  -0.04450  -0.00026
                          R1
   1                   -0.00020
 RFO step:  Lambda0=7.978644062D-03 Lambda=-4.37363888D-02.
 Linear search not attempted -- option 19 set.
 Maximum step size (   0.030) exceeded in Quadratic search.
    -- Step size scaled by   0.022
 Iteration  1 RMS(Cart)=  0.01160712 RMS(Int)=  0.00009809
 Iteration  2 RMS(Cart)=  0.00006917 RMS(Int)=  0.00000000
 Iteration  3 RMS(Cart)=  0.00000000 RMS(Int)=  0.00000000
 Variable       Old X    -DE/DX   Delta X   Delta X   Delta X     New X
                                 (Linear)    (Quad)   (Total)
    R1        1.81547   0.01447   0.00000   0.00031   0.00031   1.81578
    R2        2.98443  -0.07723   0.00000  -0.00851  -0.00851   2.97591
    R3        1.81547   0.01447   0.00000   0.00031   0.00031   1.81578
    A1        1.90726  -0.03362   0.00000  -0.00127  -0.00127   1.90599
    A2        1.90680  -0.03354   0.00000  -0.00125  -0.00125   1.90555
    D1        1.42623  -0.00065   0.00000  -0.02871  -0.02871   1.39752
         Item               Value     Threshold  Converged?
 Maximum Force            0.077231     0.000450     NO 
 RMS     Force            0.037946     0.000300     NO 
 Maximum Displacement     0.013057     0.001800     NO 
 RMS     Displacement     0.011604     0.001200     NO 
 Predicted change in Energy=-7.609647D-04
 GradGradGradGradGradGradGradGradGradGradGradGradGradGradGradGradGradGrad

                          Input orientation:                          
 ---------------------------------------------------------------------
 Center     Atomic      Atomic             Coordinates (Angstroms)
 Number     Number       Type             X           Y           Z
 ---------------------------------------------------------------------
      1          8           0       -0.918954   -0.039857    0.006447
      2          1           0       -1.221382    0.033595   -0.902627
      3          8           0        0.655405   -0.013929    0.032332
      4          1           0        0.957406    0.895288   -0.041088
 ---------------------------------------------------------------------
                    Distance matrix (angstroms):
                    1          2          3          4
     1  O    0.000000
     2  H    0.960871   0.000000
     3  O    1.574786   2.097316   0.000000
     4  H    2.097017   2.496373   0.960870   0.000000
 Stoichiometry    H2O2
 Framework group  C1[X(H2O2)]
 Deg. of freedom     6
 Full point group                 C1      NOp   1
 Largest Abelian subgroup         C1      NOp   1
 Largest concise Abelian subgroup C1      NOp   1
                         Standard orientation:                         
 ---------------------------------------------------------------------
 Center     Atomic      Atomic             Coordinates (Angstroms)
 Number     Number       Type             X           Y           Z
 ---------------------------------------------------------------------
      1          8           0        0.782731   -0.077172   -0.085372
      2          1           0        1.160224    0.617340    0.460911
      3          8           0       -0.782776   -0.077226    0.085324
      4          1           0       -1.159869    0.617842   -0.460525
 ---------------------------------------------------------------------
 Rotational constants (GHZ):    331.5139657     21.9982329     21.7088570
 Standard basis: 6-31+G(d,p) (6D, 7F)
 There are    48 symmetry adapted basis functions of A   symmetry.
 Integral buffers will be    262144 words long.
 Raffenetti 2 integral format.
 Two-electron integral symmetry is turned on.
    48 basis functions,    78 primitive gaussians,    48 cartesian basis functions
     9 alpha electrons        9 beta electrons
       nuclear repulsion energy        34.5668824973 Hartrees.
 NAtoms=    4 NActive=    4 NUniq=    4 SFac= 7.50D-01 NAtFMM=   80 NAOKFM=F Big=F
 ------------------------------------------------------------------------------
 Polarizable Continuum Model (PCM)
 =================================
 Model                : PCM.
 Atomic radii         : SMD-Coulomb.
 Polarization charges : Total charges.
 Charge compensation  : None.
 Solution method      : Matrix inversion.
 Cavity type          : VdW (van der Waals Surface) (Alpha=1.000).
 Cavity algorithm     : GePol (No added spheres)
                        Default sphere list used, NSphG=    4.
                        Lebedev-Laikov grids with approx.  5.0 points / Ang**2.
                        Smoothing algorithm: Karplus/York (Gamma=1.0000).
                        Polarization charges: spherical gaussians, with
                                              point-specific exponents (IZeta= 3).
                        Self-potential: point-specific (ISelfS= 7).
                        Self-field    : sphere-specific E.n sum rule (ISelfD= 2).
 1st derivatives      : Analytical E(r).r(x)/FMM algorithm (CHGder, D1EAlg=3).
                        Cavity 1st derivative terms included.
 Solvent              : Water, Eps=  78.355300 Eps(inf)=   1.777849
 ------------------------------------------------------------------------------
 Spheres list:
 ISph  on   Nord    Re0     Alpha      Xe            Ye            Ze
    1   O      1    1.520   1.000      0.782731     -0.077172     -0.085372
    2   H      2    1.200   1.000      1.160224      0.617340      0.460911
    3   O      3    1.520   1.000     -0.782776     -0.077226      0.085324
    4   H      4    1.200   1.000     -1.159869      0.617842     -0.460525
 ------------------------------------------------------------------------------
 ------------------------------------------------------------------------------
 Atomic radii for non-electrostatic terms: SMD-CDS.
 ------------------------------------------------------------------------------
 Nuclear repulsion after PCM non-electrostatic terms =       34.5691293281 Hartrees.
 One-electron integrals computed using PRISM.
 NBasis=    48 RedAO= T  NBF=    48
 NBsUse=    48 1.00D-06 NBFU=    48
 Initial guess read from the read-write file.
 B after Tr=     0.000000    0.000000    0.000000
         Rot=    1.000000    0.000000    0.000000    0.000000 Ang=   0.00 deg.
 Initial guess orbital symmetries:
       Occupied  (A) (A) (A) (A) (A) (A) (A) (A) (A)
       Virtual   (A) (A) (A) (A) (A) (A) (A) (A) (A) (A) (A) (A)
                 (A) (A) (A) (A) (A) (A) (A) (A) (A) (A) (A) (A)
                 (A) (A) (A) (A) (A) (A) (A) (A) (A) (A) (A) (A)
                 (A) (A) (A)
 Requested convergence on RMS density matrix=1.00D-08 within 128 cycles.
 Requested convergence on MAX density matrix=1.00D-06.
 Requested convergence on             energy=1.00D-06.
 No special actions if energy rises.
 Keep R1 ints in memory in canonical form, NReq=3733751.
 Error on total polarization charges =  0.02899
 SCF Done:  E(RM062X) =  -151.488334444     A.U. after    9 cycles
             Convg  =    0.5460D-08             -V/T =  2.0097
 SMD-CDS (non-electrostatic) energy             (kcal/mol) =       1.41
 (included in total energy above)
 D1PCM: PCM CHGder 1st derivatives, ID1Alg=3 FixD1E=F DoIter=F DoCFld=F I1PDM=0.
 Calling FoFJK, ICntrl=      2127 FMM=F ISym2X=0 I1Cent= 0 IOpClX= 0 NMat=1 NMatS=1 NMatT=0.
 ***** Axes restored to original set *****
 -------------------------------------------------------------------
 Center     Atomic                   Forces (Hartrees/Bohr)
 Number     Number              X              Y              Z
 -------------------------------------------------------------------
      1        8           0.062841951    0.009124335    0.030367488
      2        1           0.012769276    0.002152192   -0.019064994
      3        8          -0.062871136   -0.030322009   -0.009154203
      4        1          -0.012740092    0.019045482   -0.002148291
 -------------------------------------------------------------------
 Cartesian Forces:  Max     0.062871136 RMS     0.030237074

 GradGradGradGradGradGradGradGradGradGradGradGradGradGradGradGradGradGrad
 Berny optimization.
 Internal  Forces:  Max     0.075971073 RMS     0.037300866
 Search for a saddle point.
 Step number   7 out of a maximum of   20
 All quantities printed in internal units (Hartrees-Bohrs-Radians)
 Swaping is turned off.
 Update second derivatives using D2CorX and points    1    2    3    4    5
                                                      6    7
 The second derivative matrix:
                          R1        R2        R3        A1        A2
           R1           0.56971
           R2          -0.00989   0.11507
           R3           0.00179  -0.00984   0.56938
           A1          -0.00681   0.01709  -0.00270   0.16708
           A2          -0.00271   0.01717  -0.00682   0.00451   0.16707
           D1          -0.00033   0.00806  -0.00029   0.00866   0.00868
                          D1
           D1           0.00429
     Eigenvalues ---    0.00303   0.10601   0.16253   0.18121   0.56779
     Eigenvalues ---    0.57204
 Eigenvectors required to have negative eigenvalues:
                          D1        R2        A2        A1        R3
   1                    0.99624  -0.05803  -0.04549  -0.04539  -0.00126
                          R1
   1                   -0.00120
 RFO step:  Lambda0=8.613318781D-03 Lambda=-4.22758755D-02.
 Linear search not attempted -- option 19 set.
 Maximum step size (   0.030) exceeded in Quadratic search.
    -- Step size scaled by   0.023
 Iteration  1 RMS(Cart)=  0.01162188 RMS(Int)=  0.00009823
 Iteration  2 RMS(Cart)=  0.00006937 RMS(Int)=  0.00000000
 Iteration  3 RMS(Cart)=  0.00000000 RMS(Int)=  0.00000000
 Variable       Old X    -DE/DX   Delta X   Delta X   Delta X     New X
                                 (Linear)    (Quad)   (Total)
    R1        1.81578   0.01419   0.00000   0.00035   0.00035   1.81613
    R2        2.97591  -0.07597   0.00000  -0.00855  -0.00855   2.96737
    R3        1.81578   0.01419   0.00000   0.00035   0.00035   1.81613
    A1        1.90599  -0.03300   0.00000  -0.00131  -0.00131   1.90468
    A2        1.90555  -0.03293   0.00000  -0.00130  -0.00130   1.90425
    D1        1.39752  -0.00044   0.00000  -0.02869  -0.02869   1.36883
         Item               Value     Threshold  Converged?
 Maximum Force            0.075971     0.000450     NO 
 RMS     Force            0.037301     0.000300     NO 
 Maximum Displacement     0.013051     0.001800     NO 
 RMS     Displacement     0.011619     0.001200     NO 
 Predicted change in Energy=-7.484384D-04
 GradGradGradGradGradGradGradGradGradGradGradGradGradGradGradGradGradGrad

                          Input orientation:                          
 ---------------------------------------------------------------------
 Center     Atomic      Atomic             Coordinates (Angstroms)
 Number     Number       Type             X           Y           Z
 ---------------------------------------------------------------------
      1          8           0       -0.916616   -0.045141    0.007359
      2          1           0       -1.215811    0.040502   -0.901913
      3          8           0        0.653063   -0.014839    0.037611
      4          1           0        0.951839    0.894575   -0.047993
 ---------------------------------------------------------------------
                    Distance matrix (angstroms):
                    1          2          3          4
     1  O    0.000000
     2  H    0.961056   0.000000
     3  O    1.570263   2.092477   0.000000
     4  H    2.092190   2.481397   0.961056   0.000000
 Stoichiometry    H2O2
 Framework group  C1[X(H2O2)]
 Deg. of freedom     6
 Full point group                 C1      NOp   1
 Largest Abelian subgroup         C1      NOp   1
 Largest concise Abelian subgroup C1      NOp   1
                         Standard orientation:                         
 ---------------------------------------------------------------------
 Center     Atomic      Atomic             Coordinates (Angstroms)
 Number     Number       Type             X           Y           Z
 ---------------------------------------------------------------------
      1          8           0        0.780621   -0.078150   -0.083859
      2          1           0        1.155074    0.625154    0.453520
      3          8           0       -0.780664   -0.078194    0.083818
      4          1           0       -1.154731    0.625597   -0.453193
 ---------------------------------------------------------------------
 Rotational constants (GHZ):    330.7938106     22.1440904     21.8102245
 Standard basis: 6-31+G(d,p) (6D, 7F)
 There are    48 symmetry adapted basis functions of A   symmetry.
 Integral buffers will be    262144 words long.
 Raffenetti 2 integral format.
 Two-electron integral symmetry is turned on.
    48 basis functions,    78 primitive gaussians,    48 cartesian basis functions
     9 alpha electrons        9 beta electrons
       nuclear repulsion energy        34.6377246288 Hartrees.
 NAtoms=    4 NActive=    4 NUniq=    4 SFac= 7.50D-01 NAtFMM=   80 NAOKFM=F Big=F
 ------------------------------------------------------------------------------
 Polarizable Continuum Model (PCM)
 =================================
 Model                : PCM.
 Atomic radii         : SMD-Coulomb.
 Polarization charges : Total charges.
 Charge compensation  : None.
 Solution method      : Matrix inversion.
 Cavity type          : VdW (van der Waals Surface) (Alpha=1.000).
 Cavity algorithm     : GePol (No added spheres)
                        Default sphere list used, NSphG=    4.
                        Lebedev-Laikov grids with approx.  5.0 points / Ang**2.
                        Smoothing algorithm: Karplus/York (Gamma=1.0000).
[...]
             Convg  =    0.5904D-08             -V/T =  2.0094
 SMD-CDS (non-electrostatic) energy             (kcal/mol) =       1.39
 (included in total energy above)
 D1PCM: PCM CHGder 1st derivatives, ID1Alg=3 FixD1E=F DoIter=F DoCFld=F I1PDM=0.
 Calling FoFJK, ICntrl=      2127 FMM=F ISym2X=0 I1Cent= 0 IOpClX= 0 NMat=1 NMatS=1 NMatT=0.
 ***** Axes restored to original set *****
 -------------------------------------------------------------------
 Center     Atomic                   Forces (Hartrees/Bohr)
 Number     Number              X              Y              Z
 -------------------------------------------------------------------
      1        8           0.046573399    0.006459262    0.022629913
      2        1           0.010227757    0.002901855   -0.013248068
      3        8          -0.046597522   -0.022596714   -0.006488079
      4        1          -0.010203635    0.013235597   -0.002893766
 -------------------------------------------------------------------
 Cartesian Forces:  Max     0.046597522 RMS     0.022403795

 GradGradGradGradGradGradGradGradGradGradGradGradGradGradGradGradGradGrad
 Berny optimization.
 Internal  Forces:  Max     0.057624963 RMS     0.028071604
 Search for a saddle point.
 Step number  19 out of a maximum of   20
 All quantities printed in internal units (Hartrees-Bohrs-Radians)
 Swaping is turned off.
 Update second derivatives using D2CorX and points   13   14   15   16   17
                                                     18   19
 The second derivative matrix:
                          R1        R2        R3        A1        A2
           R1           0.56988
           R2          -0.00943   0.12613
           R3           0.00196  -0.00941   0.56954
           A1          -0.00667   0.01910  -0.00256   0.16745
           A2          -0.00257   0.01916  -0.00669   0.00487   0.16743
           D1           0.00096   0.02330   0.00096   0.01089   0.01089
                          D1
           D1          -0.00067
     Eigenvalues ---   -0.00548   0.11527   0.16253   0.18733   0.56779
     Eigenvalues ---    0.57233
 Eigenvectors required to have negative eigenvalues:
                          D1        R2        A1        A2        R1
   1                    0.98479  -0.16255  -0.04314  -0.04306  -0.00498
                          R3
   1                   -0.00498
 RFO step:  Lambda0=1.094042200D-02 Lambda=-2.36722034D-02.
 Linear search not attempted -- option 19 set.
 Maximum step size (   0.030) exceeded in Quadratic search.
    -- Step size scaled by   0.034
 Iteration  1 RMS(Cart)=  0.01141899 RMS(Int)=  0.00010526
 Iteration  2 RMS(Cart)=  0.00007892 RMS(Int)=  0.00000001
 Iteration  3 RMS(Cart)=  0.00000001 RMS(Int)=  0.00000000
 Variable       Old X    -DE/DX   Delta X   Delta X   Delta X     New X
                                 (Linear)    (Quad)   (Total)
    R1        1.82104   0.01023   0.00000   0.00050   0.00050   1.82154
    R2        2.87859  -0.05762   0.00000  -0.00687  -0.00687   2.87172
    R3        1.82104   0.01023   0.00000   0.00050   0.00050   1.82154
    A1        1.88673  -0.02446   0.00000  -0.00167  -0.00167   1.88506
    A2        1.88643  -0.02441   0.00000  -0.00166  -0.00166   1.88477
    D1        1.05219   0.00206   0.00000  -0.02910  -0.02910   1.02309
         Item               Value     Threshold  Converged?
 Maximum Force            0.057625     0.000450     NO 
 RMS     Force            0.028072     0.000300     NO 
 Maximum Displacement     0.012712     0.001800     NO 
 RMS     Displacement     0.011407     0.001200     NO 
 Predicted change in Energy=-4.178409D-04
 GradGradGradGradGradGradGradGradGradGradGradGradGradGradGradGradGradGrad

                          Input orientation:                          
 ---------------------------------------------------------------------
 Center     Atomic      Atomic             Coordinates (Angstroms)
 Number     Number       Type             X           Y           Z
 ---------------------------------------------------------------------
      1          8           0       -0.888970   -0.108720    0.011590
      2          1           0       -1.148515    0.122801   -0.887392
      3          8           0        0.625386   -0.019048    0.101146
      4          1           0        0.884574    0.880064   -0.130280
 ---------------------------------------------------------------------
                    Distance matrix (angstroms):
                    1          2          3          4
     1  O    0.000000
     2  H    0.963916   0.000000
     3  O    1.519650   2.035695   0.000000
     4  H    2.035504   2.297850   0.963918   0.000000
 Stoichiometry    H2O2
 Framework group  C1[X(H2O2)]
 Deg. of freedom     6
 Full point group                 C1      NOp   1
 Largest Abelian subgroup         C1      NOp   1
 Largest concise Abelian subgroup C1      NOp   1
                         Standard orientation:                         
 ---------------------------------------------------------------------
 Center     Atomic      Atomic             Coordinates (Angstroms)
 Number     Number       Type             X           Y           Z
 ---------------------------------------------------------------------
      1          8           0        0.757073   -0.088824   -0.064446
      2          1           0        1.092024    0.710497    0.357488
      3          8           0       -0.757102   -0.088821    0.064438
      4          1           0       -1.091786    0.710656   -0.357419
 ---------------------------------------------------------------------
 Rotational constants (GHZ):    321.3408119     23.9181293     22.9923909
 Standard basis: 6-31+G(d,p) (6D, 7F)
 There are    48 symmetry adapted basis functions of A   symmetry.
 Integral buffers will be    262144 words long.
 Raffenetti 2 integral format.
 Two-electron integral symmetry is turned on.
    48 basis functions,    78 primitive gaussians,    48 cartesian basis functions
     9 alpha electrons        9 beta electrons
       nuclear repulsion energy        35.4597287813 Hartrees.
 NAtoms=    4 NActive=    4 NUniq=    4 SFac= 7.50D-01 NAtFMM=   80 NAOKFM=F Big=F
 ------------------------------------------------------------------------------
 Polarizable Continuum Model (PCM)
 =================================
 Model                : PCM.
 Atomic radii         : SMD-Coulomb.
 Polarization charges : Total charges.
 Charge compensation  : None.
 Solution method      : Matrix inversion.
 Cavity type          : VdW (van der Waals Surface) (Alpha=1.000).
 Cavity algorithm     : GePol (No added spheres)
                        Default sphere list used, NSphG=    4.
                        Lebedev-Laikov grids with approx.  5.0 points / Ang**2.
                        Smoothing algorithm: Karplus/York (Gamma=1.0000).
                        Polarization charges: spherical gaussians, with
                                              point-specific exponents (IZeta= 3).
                        Self-potential: point-specific (ISelfS= 7).
                        Self-field    : sphere-specific E.n sum rule (ISelfD= 2).
 1st derivatives      : Analytical E(r).r(x)/FMM algorithm (CHGder, D1EAlg=3).
                        Cavity 1st derivative terms included.
 Solvent              : Water, Eps=  78.355300 Eps(inf)=   1.777849
 ------------------------------------------------------------------------------
 Spheres list:
 ISph  on   Nord    Re0     Alpha      Xe            Ye            Ze
    1   O      1    1.520   1.000      0.757073     -0.088824     -0.064446
    2   H      2    1.200   1.000      1.092024      0.710497      0.357488
    3   O      3    1.520   1.000     -0.757102     -0.088821      0.064438
    4   H      4    1.200   1.000     -1.091786      0.710656     -0.357419
 ------------------------------------------------------------------------------
 ------------------------------------------------------------------------------
 Atomic radii for non-electrostatic terms: SMD-CDS.
 ------------------------------------------------------------------------------
 Nuclear repulsion after PCM non-electrostatic terms =       35.4619401792 Hartrees.
 One-electron integrals computed using PRISM.
 NBasis=    48 RedAO= T  NBF=    48
 NBsUse=    48 1.00D-06 NBFU=    48
 Initial guess read from the read-write file.
 B after Tr=     0.000000    0.000000    0.000000
         Rot=    1.000000    0.000000    0.000000    0.000000 Ang=   0.00 deg.
 Initial guess orbital symmetries:
       Occupied  (A) (A) (A) (A) (A) (A) (A) (A) (A)
       Virtual   (A) (A) (A) (A) (A) (A) (A) (A) (A) (A) (A) (A)
                 (A) (A) (A) (A) (A) (A) (A) (A) (A) (A) (A) (A)
                 (A) (A) (A) (A) (A) (A) (A) (A) (A) (A) (A) (A)
                 (A) (A) (A)
 Requested convergence on RMS density matrix=1.00D-08 within 128 cycles.
 Requested convergence on MAX density matrix=1.00D-06.
 Requested convergence on             energy=1.00D-06.
 No special actions if energy rises.
 Keep R1 ints in memory in canonical form, NReq=3735897.
 Error on total polarization charges =  0.02897
 SCF Done:  E(RM062X) =  -151.496246412     A.U. after    9 cycles
             Convg  =    0.4487D-08             -V/T =  2.0094
 SMD-CDS (non-electrostatic) energy             (kcal/mol) =       1.39
 (included in total energy above)
 D1PCM: PCM CHGder 1st derivatives, ID1Alg=3 FixD1E=F DoIter=F DoCFld=F I1PDM=0.
 Calling FoFJK, ICntrl=      2127 FMM=F ISym2X=0 I1Cent= 0 IOpClX= 0 NMat=1 NMatS=1 NMatT=0.
 ***** Axes restored to original set *****
 -------------------------------------------------------------------
 Center     Atomic                   Forces (Hartrees/Bohr)
 Number     Number              X              Y              Z
 -------------------------------------------------------------------
      1        8           0.045160740    0.006291503    0.021994907
      2        1           0.009973131    0.002895168   -0.012788084
      3        8          -0.045184257   -0.021962735   -0.006319979
      4        1          -0.009949614    0.012776064   -0.002886844
 -------------------------------------------------------------------
 Cartesian Forces:  Max     0.045184257 RMS     0.021734591

 GradGradGradGradGradGradGradGradGradGradGradGradGradGradGradGradGradGrad
 Berny optimization.
 Internal  Forces:  Max     0.055988181 RMS     0.027257377
 Search for a saddle point.
 Step number  20 out of a maximum of   20
 All quantities printed in internal units (Hartrees-Bohrs-Radians)
 Swaping is turned off.
 Update second derivatives using D2CorX and points   14   15   16   17   18
                                                     19   20
 The second derivative matrix:
                          R1        R2        R3        A1        A2
           R1           0.56993
           R2          -0.00927   0.12640
           R3           0.00200  -0.00925   0.56959
           A1          -0.00661   0.01924  -0.00250   0.16751
           A2          -0.00251   0.01930  -0.00663   0.00493   0.16749
           D1           0.00142   0.02389   0.00141   0.01121   0.01120
                          D1
           D1          -0.00044
     Eigenvalues ---   -0.00550   0.11544   0.16253   0.18782   0.56779
     Eigenvalues ---    0.57240
 Eigenvectors required to have negative eigenvalues:
                          D1        R2        A1        A2        R1
   1                    0.98408  -0.16612  -0.04434  -0.04425  -0.00578
                          R3
   1                   -0.00577
 RFO step:  Lambda0=1.102535890D-02 Lambda=-2.23511592D-02.
 Linear search not attempted -- option 19 set.
 Maximum step size (   0.030) exceeded in Quadratic search.
    -- Step size scaled by   0.034
 Iteration  1 RMS(Cart)=  0.01127848 RMS(Int)=  0.00010584
 Iteration  2 RMS(Cart)=  0.00008043 RMS(Int)=  0.00000001
 Iteration  3 RMS(Cart)=  0.00000001 RMS(Int)=  0.00000000
 Variable       Old X    -DE/DX   Delta X   Delta X   Delta X     New X
                                 (Linear)    (Quad)   (Total)
    R1        1.82154   0.00991   0.00000   0.00052   0.00052   1.82205
    R2        2.87172  -0.05599   0.00000  -0.00650  -0.00650   2.86522
    R3        1.82154   0.00990   0.00000   0.00052   0.00052   1.82206
    A1        1.88506  -0.02371   0.00000  -0.00155  -0.00155   1.88351
    A2        1.88477  -0.02366   0.00000  -0.00153  -0.00153   1.88324
    D1        1.02309   0.00225   0.00000  -0.02920  -0.02920   0.99389
         Item               Value     Threshold  Converged?
 Maximum Force            0.055988     0.000450     NO 
 RMS     Force            0.027257     0.000300     NO 
 Maximum Displacement     0.012583     0.001800     NO 
 RMS     Displacement     0.011265     0.001200     NO 
 Predicted change in Energy=-3.725681D-04
 Optimization stopped.
    -- Number of steps exceeded,  NStep=  20
    -- Flag reset to prevent archiving.
                           ----------------------------
                           ! Non-Optimized Parameters !
                           ! (Angstroms and Degrees)  !
 --------------------------                            --------------------------
 ! Name  Definition              Value          Derivative Info.                !
 --------------------------------------------------------------------------------
 ! R1    R(1,2)                  0.9642         -DE/DX =    0.0099              !
 ! R2    R(1,3)                  1.5162         -DE/DX =   -0.056               !
 ! R3    R(3,4)                  0.9642         -DE/DX =    0.0099              !
 ! A1    A(2,1,3)              107.9172         -DE/DX =   -0.0237              !
 ! A2    A(1,3,4)              107.9017         -DE/DX =   -0.0237              !
 ! D1    D(2,1,3,4)             56.9457         -DE/DX =    0.0022              !
 --------------------------------------------------------------------------------
 GradGradGradGradGradGradGradGradGradGradGradGradGradGradGradGradGradGrad

                          Input orientation:                          
 ---------------------------------------------------------------------
 Center     Atomic      Atomic             Coordinates (Angstroms)
 Number     Number       Type             X           Y           Z
 ---------------------------------------------------------------------
      1          8           0       -0.888970   -0.108720    0.011590
      2          1           0       -1.148515    0.122801   -0.887392
      3          8           0        0.625386   -0.019048    0.101146
      4          1           0        0.884574    0.880064   -0.130280
 ---------------------------------------------------------------------
                    Distance matrix (angstroms):
                    1          2          3          4
     1  O    0.000000
     2  H    0.963916   0.000000
     3  O    1.519650   2.035695   0.000000
     4  H    2.035504   2.297850   0.963918   0.000000
 Stoichiometry    H2O2
 Framework group  C1[X(H2O2)]
 Deg. of freedom     6
 Full point group                 C1      NOp   1
 Largest Abelian subgroup         C1      NOp   1
 Largest concise Abelian subgroup C1      NOp   1
                         Standard orientation:                         
 ---------------------------------------------------------------------
 Center     Atomic      Atomic             Coordinates (Angstroms)
 Number     Number       Type             X           Y           Z
 ---------------------------------------------------------------------
      1          8           0        0.757073   -0.088824   -0.064446
      2          1           0        1.092024    0.710497    0.357488
      3          8           0       -0.757102   -0.088821    0.064438
      4          1           0       -1.091786    0.710656   -0.357419
 ---------------------------------------------------------------------
 Rotational constants (GHZ):    321.3408119     23.9181293     22.9923909

 **********************************************************************

            Population analysis using the SCF density.

 **********************************************************************

 Orbital symmetries:
       Occupied  (A) (A) (A) (A) (A) (A) (A) (A) (A)
       Virtual   (A) (A) (A) (A) (A) (A) (A) (A) (A) (A) (A) (A)
                 (A) (A) (A) (A) (A) (A) (A) (A) (A) (A) (A) (A)
                 (A) (A) (A) (A) (A) (A) (A) (A) (A) (A) (A) (A)
                 (A) (A) (A)
 The electronic state is 1-A.
 Alpha  occ. eigenvalues --  -19.71770 -19.71755  -1.22563  -1.03633  -0.63494
 Alpha  occ. eigenvalues --   -0.53719  -0.50300  -0.43087  -0.37856
 Alpha virt. eigenvalues --    0.01420   0.08870   0.15555   0.15616   0.16808
 Alpha virt. eigenvalues --    0.20590   0.20697   0.22036   0.27639   0.31983
 Alpha virt. eigenvalues --    0.33918   1.01402   1.03578   1.08720   1.10967
 Alpha virt. eigenvalues --    1.12959   1.20096   1.24106   1.29220   1.31813
 Alpha virt. eigenvalues --    1.50909   1.57285   1.60736   1.63997   1.66305
 Alpha virt. eigenvalues --    1.91762   1.99045   2.18935   2.42212   2.44989
 Alpha virt. eigenvalues --    2.66807   2.71241   2.74205   2.91548   3.09214
 Alpha virt. eigenvalues --    3.40310   3.44819   3.87116   4.19003
          Condensed to atoms (all electrons):
              1          2          3          4
     1  O    8.097605   0.265425   0.081553  -0.009219
     2  H    0.265425   0.312392  -0.009212  -0.003942
     3  O    0.081553  -0.009212   8.097528   0.265432
     4  H   -0.009219  -0.003942   0.265432   0.312399
 Mulliken atomic charges:
              1
     1  O   -0.435365
     2  H    0.435336
     3  O   -0.435301
     4  H    0.435330
 Sum of Mulliken atomic charges =   0.00000
 Mulliken charges with hydrogens summed into heavy atoms:
              1
     1  O   -0.000028
     3  O    0.000028
 Sum of Mulliken charges with hydrogens summed into heavy atoms =   0.00000
 Electronic spatial extent (au):  <R**2>=             70.7217
 Charge=              0.0000 electrons
 Dipole moment (field-independent basis, Debye):
    X=              0.0003    Y=              3.8090    Z=              0.0003  Tot=              3.8090
 Quadrupole moment (field-independent basis, Debye-Ang):
   XX=             -9.8263   YY=            -10.2145   ZZ=            -12.5760
   XY=              0.0001   XZ=              2.2642   YZ=              0.0000
 Traceless Quadrupole moment (field-independent basis, Debye-Ang):
   XX=              1.0460   YY=              0.6578   ZZ=             -1.7038
   XY=              0.0001   XZ=              2.2642   YZ=              0.0000
 Octapole moment (field-independent basis, Debye-Ang**2):
  XXX=              0.0020  YYY=              3.8968  ZZZ=              0.0002  XYY=             -0.0004
  XXY=              5.4550  XXZ=              0.0007  XZZ=              0.0003  YZZ=              1.1413
  YYZ=             -0.0001  XYZ=              1.6507
 Hexadecapole moment (field-independent basis, Debye-Ang**3):
 XXXX=            -46.6866 YYYY=            -11.1846 ZZZZ=            -11.9498 XXXY=              0.0012
 XXXZ=              3.6026 YYYX=             -0.0003 YYYZ=             -0.0002 ZZZX=              1.7402
 ZZZY=              0.0000 XXYY=             -8.8116 XXZZ=            -11.2605 YYZZ=             -3.7217
 XXYZ=              0.0003 YYXZ=              1.3817 ZZXY=              0.0001
 N-N= 3.546194017919D+01 E-N=-4.286292802947D+02  KE= 1.500926050291D+02


 NO SCIENCE HAS EVER MADE MORE RAPID PROGRESS IN A
 SHORTER TIME THAN CHEMISTRY.
   -- MARTIN HEINRICH KLOPROTH, 1791
 (FIRST PROFESSOR OF CHEMISTRY AT THE UNIVERSITY OF BERLIN)
 Error termination request processed by link 9999.
 Error termination via Lnk1e in C:\G09W\l9999.exe at Fri Feb 05 12:50:16 2021.
 Job cpu time:  0 days  0 hours  1 minutes 24.0 seconds.
 File lengths (MBytes):  RWF=      6 Int=      0 D2E=      0 Chk=      2 Scr=      1
