 Entering Link 1 = C:\G09W\l1.exe PID=      7180.
  
 Copyright (c) 1988,1990,1992,1993,1995,1998,2003,2009, Gaussian, Inc.
                  All Rights Reserved.
  
 This is part of the Gaussian(R) 09 program.  It is based on
 the Gaussian(R) 03 system (copyright 2003, Gaussian, Inc.),
 the Gaussian(R) 98 system (copyright 1998, Gaussian, Inc.),
 the Gaussian(R) 94 system (copyright 1995, Gaussian, Inc.),
 the Gaussian 92(TM) system (copyright 1992, Gaussian, Inc.),
 the Gaussian 90(TM) system (copyright 1990, Gaussian, Inc.),
 the Gaussian 88(TM) system (copyright 1988, Gaussian, Inc.),
 the Gaussian 86(TM) system (copyright 1986, Carnegie Mellon
 University), and the Gaussian 82(TM) system (copyright 1983,
 Carnegie Mellon University). Gaussian is a federally registered
 trademark of Gaussian, Inc.
  
 This software contains proprietary and confidential information,
 including trade secrets, belonging to Gaussian, Inc.
  
 This software is provided under written license and may be
 used, copied, transmitted, or stored only in accord with that
 written license.
  
 The following legend is applicable only to US Government
 contracts under FAR:
  
                    RESTRICTED RIGHTS LEGEND
  
 Use, reproduction and disclosure by the US Government is
 subject to restrictions as set forth in subparagraphs (a)
 and (c) of the Commercial Computer Software - Restricted
 Rights clause in FAR 52.227-19.
  
 Gaussian, Inc.
 340 Quinnipiac St., Bldg. 40, Wallingford CT 06492
  
  
 ---------------------------------------------------------------
 Warning -- This program may not be used in any manner that
 competes with the business of Gaussian, Inc. or will provide
 assistance to any competitor of Gaussian, Inc.  The licensee
 of this program is prohibited from giving any competitor of
 Gaussian, Inc. access to this program.  By using this program,
 the user acknowledges that Gaussian, Inc. is engaged in the
 business of creating and licensing software in the field of
 computational chemistry and represents and warrants to the
 licensee that it is not a competitor of Gaussian, Inc. and that
 it will not use this program in any manner prohibited above.
 ---------------------------------------------------------------
  

 Cite this work as:
 Gaussian 09, Revision A.02,
 M. J. Frisch, G. W. Trucks, H. B. Schlegel, G. E. Scuseria, 
 M. A. Robb, J. R. Cheeseman, G. Scalmani, V. Barone, B. Mennucci, 
 G. A. Petersson, H. Nakatsuji, M. Caricato, X. Li, H. P. Hratchian, 
 A. F. Izmaylov, J. Bloino, G. Zheng, J. L. Sonnenberg, M. Hada, 
 M. Ehara, K. Toyota, R. Fukuda, J. Hasegawa, M. Ishida, T. Nakajima, 
 Y. Honda, O. Kitao, H. Nakai, T. Vreven, J. A. Montgomery, Jr., 
 J. E. Peralta, F. Ogliaro, M. Bearpark, J. J. Heyd, E. Brothers, 
 K. N. Kudin, V. N. Staroverov, R. Kobayashi, J. Normand, 
 K. Raghavachari, A. Rendell, J. C. Burant, S. S. Iyengar, J. Tomasi, 
 M. Cossi, N. Rega, J. M. Millam, M. Klene, J. E. Knox, J. B. Cross, 
 V. Bakken, C. Adamo, J. Jaramillo, R. Gomperts, R. E. Stratmann, 
 O. Yazyev, A. J. Austin, R. Cammi, C. Pomelli, J. W. Ochterski, 
 R. L. Martin, K. Morokuma, V. G. Zakrzewski, G. A. Voth, 
 P. Salvador, J. J. Dannenberg, S. Dapprich, A. D. Daniels, 
 O. Farkas, J. B. Foresman, J. V. Ortiz, J. Cioslowski, 
 and D. J. Fox, Gaussian, Inc., Wallingford CT, 2009.
 
 ******************************************
 Gaussian 09:  IA32W-G09RevA.02 11-Jun-2009
                09-Feb-2021 
 ******************************************
 %chk=D:\Documents\rayGit\FQ\quimicaComputacional\proyecto\decompositionHydrogenP
 eroxide\descompositionByRadicals\gasPhase\step4\ts\Q2ST\ts\martes\top\backup\r\r
 2\ts.chk
 %mem=1500MB
 %nprocshared=4
 Will use up to    4 processors via shared memory.
 ----------------------------------------------------------------------
 # opt=(calcfc,ts,noeigen,maxcycles=100) freq=noraman 6-31+g(d,p) m062x
 ----------------------------------------------------------------------
 1/5=1,6=100,10=4,11=1,14=-1,18=20,26=3,38=1/1,3;
 2/9=110,12=2,17=6,18=5,40=1/2;
 3/5=1,6=6,7=111,11=2,16=1,25=1,30=1,71=2,74=-55/1,2,3;
 4//1;
 5/5=2,38=5/2;
 8/6=4,10=90,11=11/1;
 11/6=1,8=1,9=11,15=111,16=1/1,2,10;
 10/6=1,7=6,13=1/2;
 6/7=2,8=2,9=2,10=2,28=1/1;
 7/10=1,18=20,25=1/1,2,3,16;
 1/5=1,6=100,10=4,11=1,14=-1,18=20/3(2);
 2/9=110/2;
 99//99;
 2/9=110/2;
 3/5=1,6=6,7=111,11=2,16=1,25=1,30=1,71=1,74=-55/1,2,3;
 4/5=5,16=3/1;
 5/5=2,38=5/2;
 7//1,2,3,16;
 1/5=1,6=100,11=1,14=-1,18=20/3(-5);
 2/9=110/2;
 6/7=2,8=2,9=2,10=2,19=2,28=1/1;
 99/9=1/99;
 ------------
 ts OOH vs OH
 ------------
 Symbolic Z-matrix:
 Charge =  0 Multiplicity = 1
 O                    -2.42784   1.18873   0. 
 O                    -1.16932   0.7906    0. 
 H                     0.01113   0.85092   0. 
 O                     0.60383  -0.13458   0. 
 H                     0.78176  -1.04797   0. 
 

 GradGradGradGradGradGradGradGradGradGradGradGradGradGradGradGradGradGrad
 Berny optimization.
 Initialization pass.
                           ----------------------------
                           !    Initial Parameters    !
                           ! (Angstroms and Degrees)  !
 --------------------------                            --------------------------
 ! Name  Definition              Value          Derivative Info.                !
 --------------------------------------------------------------------------------
 ! R1    R(1,2)                  1.32           calculate D2E/DX2 analytically  !
 ! R2    R(2,3)                  1.182          calculate D2E/DX2 analytically  !
 ! R3    R(3,4)                  1.15           calculate D2E/DX2 analytically  !
 ! R4    R(4,5)                  0.9306         calculate D2E/DX2 analytically  !
 ! A1    A(1,2,3)              159.5204         calculate D2E/DX2 analytically  !
 ! A2    A(2,3,4)              118.0982         calculate D2E/DX2 analytically  !
 ! A3    A(3,4,5)              160.0            calculate D2E/DX2 analytically  !
 ! D1    D(1,2,3,4)            180.0            calculate D2E/DX2 analytically  !
 ! D2    D(2,3,4,5)              0.0            calculate D2E/DX2 analytically  !
 --------------------------------------------------------------------------------
 Trust Radius=3.00D-01 FncErr=1.00D-07 GrdErr=1.00D-06
 Number of steps in this run= 100 maximum allowed number of steps= 100.
 Search for a saddle point of order  1.
 GradGradGradGradGradGradGradGradGradGradGradGradGradGradGradGradGradGrad

                          Input orientation:                          
 ---------------------------------------------------------------------
 Center     Atomic      Atomic             Coordinates (Angstroms)
 Number     Number       Type             X           Y           Z
 ---------------------------------------------------------------------
      1          8           0       -2.427845    1.188726    0.000000
      2          8           0       -1.169316    0.790598    0.000000
      3          1           0        0.011132    0.850916    0.000000
      4          8           0        0.603827   -0.134585    0.000000
      5          1           0        0.781756   -1.047968    0.000000
 ---------------------------------------------------------------------
                    Distance matrix (angstroms):
                    1          2          3          4          5
     1  O    0.000000
     2  O    1.320000   0.000000
     3  H    2.462260   1.181988   0.000000
     4  O    3.307897   2.000000   1.150000   0.000000
     5  H    3.912076   2.680860   2.049299   0.930553   0.000000
 Stoichiometry    H2O3
 Framework group  CS[SG(H2O3)]
 Deg. of freedom     7
 Full point group                 CS      NOp   2
 Largest Abelian subgroup         CS      NOp   2
 Largest concise Abelian subgroup C1      NOp   1
                         Standard orientation:                         
 ---------------------------------------------------------------------
 Center     Atomic      Atomic             Coordinates (Angstroms)
 Number     Number       Type             X           Y           Z
 ---------------------------------------------------------------------
      1          8           0       -0.495279    1.585336    0.000000
      2          8           0        0.000000    0.361776    0.000000
      3          1           0        0.798798   -0.509441    0.000000
      4          8           0        0.417099   -1.594248    0.000000
      5          1           0       -0.173361   -2.313473    0.000000
 ---------------------------------------------------------------------
 Rotational constants (GHZ):    414.4901785      5.3423905      5.2744083
 Standard basis: 6-31+G(d,p) (6D, 7F)
 There are    50 symmetry adapted basis functions of A'  symmetry.
 There are    17 symmetry adapted basis functions of A"  symmetry.
 Integral buffers will be    262144 words long.
 Raffenetti 2 integral format.
 Two-electron integral symmetry is turned on.
    67 basis functions,   110 primitive gaussians,    67 cartesian basis functions
    13 alpha electrons       13 beta electrons
       nuclear repulsion energy        69.2800885006 Hartrees.
 NAtoms=    5 NActive=    5 NUniq=    5 SFac= 7.50D-01 NAtFMM=   80 NAOKFM=F Big=F
 One-electron integrals computed using PRISM.
 NBasis=    67 RedAO= T  NBF=    50    17
 NBsUse=    67 1.00D-06 NBFU=    50    17
 Harris functional with IExCor= 1009 diagonalized for initial guess.
 ExpMin= 8.45D-02 ExpMax= 5.48D+03 ExpMxC= 8.25D+02 IAcc=2 IRadAn=         0 AccDes= 0.00D+00
 HarFok:  IExCor= 1009 AccDes= 0.00D+00 IRadAn=         0 IDoV= 1
 ScaDFX=  1.000000  1.000000  1.000000  1.000000
 FoFCou: FMM=F IPFlag=           0 FMFlag=      100000 FMFlg1=           0
         NFxFlg=           0 DoJE=T BraDBF=F KetDBF=T FulRan=T
         Omega=  0.000000  0.000000  1.000000  0.000000  0.000000 ICntrl=     500 IOpCl=  0
         NMat0=    1 NMatS0=    1 NMatT0=    0 NMatD0=    1 NMtDS0=    0 NMtDT0=    0
         I1Cent=           4 NGrid=           0.
 Petite list used in FoFCou.
 Initial guess orbital symmetries:
       Occupied  (A') (A') (A') (A') (A') (A') (A') (A') (A') (A")
                 (A") (A') (A')
       Virtual   (A") (A') (A') (A') (A') (A") (A') (A') (A') (A")
                 (A') (A") (A') (A') (A') (A') (A') (A') (A") (A')
                 (A') (A") (A') (A') (A") (A') (A') (A') (A") (A')
                 (A") (A") (A') (A') (A') (A") (A') (A") (A') (A')
                 (A') (A") (A') (A") (A') (A') (A") (A') (A') (A')
                 (A') (A') (A') (A')
 The electronic state of the initial guess is 1-A'.
 Requested convergence on RMS density matrix=1.00D-08 within 128 cycles.
 Requested convergence on MAX density matrix=1.00D-06.
 Requested convergence on             energy=1.00D-06.
 No special actions if energy rises.
 Keep R1 ints in memory in canonical form, NReq=3551239.
 Integral accuracy reduced to 1.0D-05 until final iterations.
 Initial convergence to 1.0D-05 achieved.  Increase integral accuracy.
 SCF Done:  E(RM062X) =  -226.464140052     A.U. after   20 cycles
             Convg  =    0.2020D-08             -V/T =  2.0086
 Range of M.O.s used for correlation:     1    67
 NBasis=    67 NAE=    13 NBE=    13 NFC=     0 NFV=     0
 NROrb=     67 NOA=    13 NOB=    13 NVA=    54 NVB=    54

 **** Warning!!: The largest alpha MO coefficient is  0.33589736D+02

 Symmetrizing basis deriv contribution to polar:
 IMax=3 JMax=2 DiffMx= 0.00D+00
 G2DrvN: will do     6 centers at a time, making    1 passes doing MaxLOS=2.
 Calling FoFCou, ICntrl=  3107 FMM=F I1Cent=   0 AccDes= 0.00D+00.
 FoFDir/FoFCou used for L=0 through L=2.
 End of G2Drv Frequency-dependent properties file   721 does not exist.
 End of G2Drv Frequency-dependent properties file   722 does not exist.
          IDoAtm=11111
          Differentiating once with respect to nuclear coordinates.
          Keep R1 ints in memory in canonical form, NReq=3416970.
          There are    18 degrees of freedom in the 1st order CPHF.  IDoFFX=5.
     12 vectors produced by pass  0 Test12= 3.90D-11 5.56D-07 XBig12= 1.54D-01 2.88D-01.
 AX will form    12 AO Fock derivatives at one time.
     12 vectors produced by pass  1 Test12= 3.90D-11 5.56D-07 XBig12= 1.76D-02 9.36D-02.
     12 vectors produced by pass  2 Test12= 3.90D-11 5.56D-07 XBig12= 1.41D-03 1.37D-02.
     12 vectors produced by pass  3 Test12= 3.90D-11 5.56D-07 XBig12= 2.98D-05 1.12D-03.
     12 vectors produced by pass  4 Test12= 3.90D-11 5.56D-07 XBig12= 4.84D-07 1.55D-04.
      9 vectors produced by pass  5 Test12= 3.90D-11 5.56D-07 XBig12= 1.21D-09 7.62D-06.
      1 vectors produced by pass  6 Test12= 3.90D-11 5.56D-07 XBig12= 4.03D-12 6.03D-07.
 Inverted reduced A of dimension    70 with in-core refinement.
 End of Minotr Frequency-dependent properties file   721 does not exist.
 End of Minotr Frequency-dependent properties file   722 does not exist.

 **********************************************************************

            Population analysis using the SCF density.

 **********************************************************************

 Orbital symmetries:
       Occupied  (A') (A') (A') (A') (A') (A') (A') (A') (A") (A')
                 (A') (A") (A')
       Virtual   (A") (A') (A') (A') (A") (A') (A') (A') (A") (A')
                 (A') (A") (A') (A') (A') (A') (A') (A") (A') (A')
                 (A') (A") (A') (A') (A') (A") (A') (A') (A") (A')
                 (A') (A") (A") (A') (A') (A') (A") (A") (A') (A')
                 (A") (A') (A') (A") (A') (A') (A") (A') (A') (A')
                 (A') (A') (A') (A')
 The electronic state is 1-A'.
 Alpha  occ. eigenvalues --  -19.84884 -19.83952 -19.62070  -1.36953  -1.10545
 Alpha  occ. eigenvalues --   -0.99661  -0.71605  -0.61196  -0.58459  -0.55057
 Alpha  occ. eigenvalues --   -0.41492  -0.36609  -0.35901
 Alpha virt. eigenvalues --   -0.18584   0.05763   0.08376   0.11630   0.14156
 Alpha virt. eigenvalues --    0.15584   0.16182   0.18810   0.20699   0.22352
 Alpha virt. eigenvalues --    0.25171   0.26360   0.29984   0.37624   0.42341
 Alpha virt. eigenvalues --    0.48001   0.87131   1.07863   1.08150   1.12236
 Alpha virt. eigenvalues --    1.12709   1.13093   1.16367   1.23237   1.25946
 Alpha virt. eigenvalues --    1.26253   1.31768   1.40004   1.40037   1.55297
 Alpha virt. eigenvalues --    1.59224   1.59560   1.61485   1.62921   1.76208
 Alpha virt. eigenvalues --    1.81505   1.87908   1.89266   1.92741   2.05078
 Alpha virt. eigenvalues --    2.23963   2.23978   2.44250   2.56062   2.59636
 Alpha virt. eigenvalues --    2.68151   2.94188   2.94668   3.32339   3.47398
 Alpha virt. eigenvalues --    3.72512   3.79402   4.18054   4.65778
          Condensed to atoms (all electrons):
              1          2          3          4          5
     1  O    7.993125   0.208560  -0.013158  -0.060902  -0.001442
     2  O    0.208560   7.792915   0.064682  -0.089977   0.003051
     3  H   -0.013158   0.064682   0.240000   0.207180  -0.011646
     4  O   -0.060902  -0.089977   0.207180   8.437727   0.314213
     5  H   -0.001442   0.003051  -0.011646   0.314213   0.295113
 Mulliken atomic charges:
              1
     1  O   -0.126183
     2  O    0.020769
     3  H    0.512942
     4  O   -0.808240
     5  H    0.400711
 Sum of Mulliken atomic charges =   0.00000
 Mulliken charges with hydrogens summed into heavy atoms:
              1
     1  O   -0.126183
     2  O    0.020769
     4  O    0.105413
 Sum of Mulliken charges with hydrogens summed into heavy atoms =   0.00000
 APT atomic charges:
              1
     1  O    0.252216
     2  O   -0.365707
     3  H    0.413162
     4  O   -1.088745
     5  H    0.789074
 Sum of APT charges=   0.00000
 APT Atomic charges with hydrogens summed into heavy atoms:
              1
     1  O    0.252216
     2  O   -0.365707
     3  H    0.000000
     4  O    0.113491
     5  H    0.000000
 Sum of APT charges=   0.00000
 Electronic spatial extent (au):  <R**2>=            221.0767
 Charge=              0.0000 electrons
 Dipole moment (field-independent basis, Debye):
    X=             -0.5515    Y=              0.7873    Z=              0.0000  Tot=              0.9612
 Quadrupole moment (field-independent basis, Debye-Ang):
   XX=            -17.7499   YY=            -16.6500   ZZ=            -17.4142
   XY=              3.3234   XZ=              0.0000   YZ=              0.0000
 Traceless Quadrupole moment (field-independent basis, Debye-Ang):
   XX=             -0.4785   YY=              0.6213   ZZ=             -0.1428
   XY=              3.3234   XZ=              0.0000   YZ=              0.0000
 Octapole moment (field-independent basis, Debye-Ang**2):
  XXX=             -0.5358  YYY=             -6.5830  ZZZ=              0.0000  XYY=             -9.4019
  XXY=              2.3014  XXZ=              0.0000  XZZ=             -0.9487  YZZ=              3.0572
  YYZ=              0.0000  XYZ=              0.0000
 Hexadecapole moment (field-independent basis, Debye-Ang**3):
 XXXX=            -31.5395 YYYY=           -172.2117 ZZZZ=            -14.8143 XXXY=             27.8693
 XXXZ=              0.0000 YYYX=             40.6989 YYYZ=              0.0000 ZZZX=              0.0000
 ZZZY=              0.0000 XXYY=            -43.7302 XXZZ=             -7.6837 YYZZ=            -37.3511
 XXYZ=              0.0000 YYXZ=              0.0000 ZZXY=              8.6619
 N-N= 6.928008850057D+01 E-N=-6.728193408936D+02  KE= 2.245416921388D+02
 Symmetry A'   KE= 2.159219089862D+02
 Symmetry A"   KE= 8.619783152600D+00
  Exact polarizability:   0.000   0.000   0.000   0.000   0.000   0.000
 Approx polarizability:  18.644 -20.100  86.161   0.000   0.000  12.851
 Calling FoFJK, ICntrl=    100147 FMM=F ISym2X=1 I1Cent= 0 IOpClX= 0 NMat=1 NMatS=1 NMatT=0.
 ***** Axes restored to original set *****
 -------------------------------------------------------------------
 Center     Atomic                   Forces (Hartrees/Bohr)
 Number     Number              X              Y              Z
 -------------------------------------------------------------------
      1        8           0.116618392   -0.013451777    0.000000000
      2        8          -0.206159757    0.023667932    0.000000000
      3        1           0.063201068   -0.063831571    0.000000000
      4        8           0.032652820    0.081120053    0.000000000
      5        1          -0.006312522   -0.027504638    0.000000000
 -------------------------------------------------------------------
 Cartesian Forces:  Max     0.206159757 RMS     0.069930767

 GradGradGradGradGradGradGradGradGradGradGradGradGradGradGradGradGradGrad
 Berny optimization.
 Internal  Forces:  Max     0.115247177 RMS     0.061746786
 Search for a saddle point.
 Step number   1 out of a maximum of  100
 All quantities printed in internal units (Hartrees-Bohrs-Radians)
 Swaping is turned off.
 Second derivative matrix not updated -- analytic derivatives used.
 The second derivative matrix:
                          R1        R2        R3        R4        A1
           R1           0.33857
           R2           0.05018   0.19177
           R3           0.00862   0.18450   0.18775
           R4          -0.00854   0.00995  -0.01563   0.69362
           A1          -0.00178  -0.06771   0.02713   0.00085   0.02217
           A2           0.05211   0.12665   0.11305   0.00639  -0.04847
           A3           0.01582   0.03075  -0.00463   0.01038   0.01202
           D1           0.00000   0.00000   0.00000   0.00000   0.00000
           D2           0.00000   0.00000   0.00000   0.00000   0.00000
                          A2        A3        D1        D2
           A2           0.25044
           A3           0.00799  -0.08438
           D1           0.00000   0.00000  -0.02650
           D2           0.00000   0.00000   0.00685  -0.00301
     Eigenvalues ---   -0.10166  -0.04241  -0.02835  -0.00116   0.06945
     Eigenvalues ---    0.13753   0.31970   0.52282   0.69451
 Eigenvectors required to have negative eigenvalues:
                          A3        A1        R2        R3        A2
   1                    0.85723  -0.32160  -0.30951   0.25445  -0.03438
                          R1        R4        D1        D2
   1                    0.00222  -0.00167   0.00000   0.00000
 RFO step:  Lambda0=1.290208018D-02 Lambda=-1.10904420D-01.
 Linear search not attempted -- option 19 set.
 Maximum step size (   0.300) exceeded in Quadratic search.
    -- Step size scaled by   0.256
 Iteration  1 RMS(Cart)=  0.09970740 RMS(Int)=  0.02411171
 Iteration  2 RMS(Cart)=  0.01853245 RMS(Int)=  0.00169662
 Iteration  3 RMS(Cart)=  0.00131352 RMS(Int)=  0.00001034
 Iteration  4 RMS(Cart)=  0.00000665 RMS(Int)=  0.00000000
 Iteration  5 RMS(Cart)=  0.00000000 RMS(Int)=  0.00000000
 ClnCor:  largest displacement from symmetrization is 3.64D-02 for atom     2.
 Variable       Old X    -DE/DX   Delta X   Delta X   Delta X     New X
                                 (Linear)    (Quad)   (Total)
    R1        2.49444  -0.11525   0.00000  -0.09115  -0.09184   2.40260
    R2        2.23363   0.08889   0.00000   0.11138   0.11106   2.34470
    R3        2.17319  -0.03236   0.00000  -0.11734  -0.11740   2.05579
    R4        1.75849   0.02580   0.00000   0.00058   0.00046   1.75895
    A1        2.78416  -0.05581   0.00000  -0.01306  -0.01088   2.77327
    A2        2.06120   0.08887   0.00000   0.06888   0.06884   2.13004
    A3        2.79253  -0.02017   0.00000   0.17345   0.17451   2.96704
    D1        3.14159   0.00000   0.00000  -0.10696   0.00000   3.14159
    D2        0.00000   0.00000   0.00000   0.09527   0.00000   0.00000
         Item               Value     Threshold  Converged?
 Maximum Force            0.115247     0.000450     NO 
 RMS     Force            0.061747     0.000300     NO 
 Maximum Displacement     0.224549     0.001800     NO 
 RMS     Displacement     0.116216     0.001200     NO 
 Predicted change in Energy=-2.669207D-02
 GradGradGradGradGradGradGradGradGradGradGradGradGradGradGradGradGradGrad

                          Input orientation:                          
 ---------------------------------------------------------------------
 Center     Atomic      Atomic             Coordinates (Angstroms)
 Number     Number       Type             X           Y           Z
 ---------------------------------------------------------------------
      1          8           0       -2.421430    1.264673    0.000000
      2          8           0       -1.241746    0.790533    0.000000
      3          1           0       -0.001103    0.773362    0.000000
      4          8           0        0.563251   -0.156681    0.000000
      5          1           0        0.900583   -1.024198    0.000000
 ---------------------------------------------------------------------
                    Distance matrix (angstroms):
                    1          2          3          4          5
     1  O    0.000000
     2  O    1.271402   0.000000
     3  H    2.469690   1.240761   0.000000
     4  O    3.305838   2.038437   1.087876   0.000000
     5  H    4.034191   2.807636   2.011034   0.930795   0.000000
 Stoichiometry    H2O3
 Framework group  CS[SG(H2O3)]
 Deg. of freedom     7
 Full point group                 CS      NOp   2
 Largest Abelian subgroup         CS      NOp   2
 Largest concise Abelian subgroup C1      NOp   1
                         Standard orientation:                         
 ---------------------------------------------------------------------
 Center     Atomic      Atomic             Coordinates (Angstroms)
 Number     Number       Type             X           Y           Z
 ---------------------------------------------------------------------
      1          8           0       -0.262550    1.632176    0.000000
      2          8           0        0.000000    0.388178    0.000000
      3          1           0        0.676145   -0.652166    0.000000
      4          8           0        0.217479   -1.638625    0.000000
      5          1           0       -0.315575   -2.401667    0.000000
 ---------------------------------------------------------------------
 Rotational constants (GHZ):    618.3207915      5.2848924      5.2401043
 Standard basis: 6-31+G(d,p) (6D, 7F)
 There are    50 symmetry adapted basis functions of A'  symmetry.
 There are    17 symmetry adapted basis functions of A"  symmetry.
 Integral buffers will be    262144 words long.
 Raffenetti 2 integral format.
 Two-electron integral symmetry is turned on.
    67 basis functions,   110 primitive gaussians,    67 cartesian basis functions
    13 alpha electrons       13 beta electrons
       nuclear repulsion energy        69.8829224171 Hartrees.
 NAtoms=    5 NActive=    5 NUniq=    5 SFac= 7.50D-01 NAtFMM=   80 NAOKFM=F Big=F
 One-electron integrals computed using PRISM.
 NBasis=    67 RedAO= T  NBF=    50    17
 NBsUse=    67 1.00D-06 NBFU=    50    17
 Initial guess read from the read-write file.
 B after Tr=     0.000000    0.000000    0.000000
         Rot=    1.000000    0.000000    0.000000    0.000000 Ang=   0.00 deg.
 Initial guess orbital symmetries:
       Occupied  (A') (A') (A') (A') (A') (A') (A') (A') (A") (A')
                 (A') (A") (A')
       Virtual   (A") (A') (A') (A') (A") (A') (A') (A') (A") (A')
                 (A') (A") (A') (A') (A') (A') (A') (A") (A') (A')
                 (A') (A") (A') (A') (A') (A") (A') (A') (A") (A')
                 (A') (A") (A") (A') (A') (A') (A") (A") (A') (A')
                 (A") (A') (A') (A") (A') (A') (A") (A') (A') (A')
                 (A') (A') (A') (A')
 Harris functional with IExCor= 1009 diagonalized for initial guess.
 ExpMin= 8.45D-02 ExpMax= 5.48D+03 ExpMxC= 8.25D+02 IAcc=2 IRadAn=         0 AccDes= 0.00D+00
 HarFok:  IExCor= 1009 AccDes= 0.00D+00 IRadAn=         0 IDoV= 1
 ScaDFX=  1.000000  1.000000  1.000000  1.000000
 FoFCou: FMM=F IPFlag=           0 FMFlag=      100000 FMFlg1=           0
         NFxFlg=           0 DoJE=T BraDBF=F KetDBF=T FulRan=T
         Omega=  0.000000  0.000000  1.000000  0.000000  0.000000 ICntrl=     500 IOpCl=  0
         NMat0=    1 NMatS0=    1 NMatT0=    0 NMatD0=    1 NMtDS0=    0 NMtDT0=    0
         I1Cent=           4 NGrid=           0.
 Petite list used in FoFCou.
 Requested convergence on RMS density matrix=1.00D-08 within 128 cycles.
 Requested convergence on MAX density matrix=1.00D-06.
 Requested convergence on             energy=1.00D-06.
 No special actions if energy rises.
 Keep R1 ints in memory in canonical form, NReq=3551239.
 Integral accuracy reduced to 1.0D-05 until final iterations.
 Initial convergence to 1.0D-05 achieved.  Increase integral accuracy.
 SCF Done:  E(RM062X) =  -226.490574300     A.U. after   17 cycles
             Convg  =    0.3852D-08             -V/T =  2.0083
 Calling FoFJK, ICntrl=      2127 FMM=F ISym2X=1 I1Cent= 0 IOpClX= 0 NMat=1 NMatS=1 NMatT=0.
 ***** Axes restored to original set *****
 -------------------------------------------------------------------
 Center     Atomic                   Forces (Hartrees/Bohr)
 Number     Number              X              Y              Z
 -------------------------------------------------------------------
      1        8           0.086756487   -0.015532772    0.000000000
      2        8          -0.166816780    0.029473488    0.000000000
      3        1           0.062800582   -0.059874094    0.000000000
      4        8           0.012866499    0.065873115    0.000000000
      5        1           0.004393211   -0.019939737    0.000000000
 -------------------------------------------------------------------
 Cartesian Forces:  Max     0.166816780 RMS     0.057105170

 GradGradGradGradGradGradGradGradGradGradGradGradGradGradGradGradGradGrad
 Berny optimization.
 Internal  Forces:  Max     0.086294407 RMS     0.050018969
 Search for a saddle point.
 Step number   2 out of a maximum of  100
 All quantities printed in internal units (Hartrees-Bohrs-Radians)
 Swaping is turned off.
 Update second derivatives using D2CorX and points    1    2
 The second derivative matrix:
                          R1        R2        R3        R4        A1
           R1           0.36608
           R2           0.04194   0.18639
           R3           0.03356   0.18024   0.20904
           R4          -0.00714   0.00905  -0.01416   0.69366
           A1           0.00037  -0.06801   0.02894   0.00098   0.02233
           A2           0.04515   0.12445   0.10850   0.00577  -0.04882
           A3           0.00485   0.02109  -0.00928   0.00902   0.01173
           D1           0.00000   0.00000   0.00000   0.00000   0.00000
           D2           0.00000   0.00000   0.00000   0.00000   0.00000
                          A2        A3        D1        D2
           A2           0.24986
           A3           0.00369  -0.10137
           D1           0.00000   0.00000  -0.02650
           D2           0.00000   0.00000   0.00685  -0.00301
     Eigenvalues ---   -0.11132  -0.04251  -0.02835  -0.00116   0.07325
     Eigenvalues ---    0.14962   0.33638   0.52616   0.69442
 Eigenvectors required to have negative eigenvalues:
                          A3        A1        R2        R3        A2
   1                    0.92817  -0.23959  -0.22050   0.17909  -0.01955
                          R4        R1        D1        D2
   1                   -0.00435  -0.00068   0.00000   0.00000
 RFO step:  Lambda0=3.286775326D-03 Lambda=-8.65459144D-02.
 Linear search not attempted -- option 19 set.
 Maximum step size (   0.300) exceeded in Quadratic search.
    -- Step size scaled by   0.276
 Iteration  1 RMS(Cart)=  0.08535620 RMS(Int)=  0.00681884
 Iteration  2 RMS(Cart)=  0.00522243 RMS(Int)=  0.00016321
 Iteration  3 RMS(Cart)=  0.00007791 RMS(Int)=  0.00000003
 Iteration  4 RMS(Cart)=  0.00000002 RMS(Int)=  0.00000000
 ClnCor:  largest displacement from symmetrization is 4.86D-02 for atom     2.
 Variable       Old X    -DE/DX   Delta X   Delta X   Delta X     New X
                                 (Linear)    (Quad)   (Total)
    R1        2.40260  -0.08629   0.00000  -0.06415  -0.06540   2.33720
    R2        2.34470   0.08020   0.00000   0.15249   0.15180   2.49649
    R3        2.05579  -0.03028   0.00000  -0.13596  -0.13596   1.91982
    R4        1.75895   0.02020   0.00000   0.00033   0.00032   1.75927
    A1        2.77327  -0.04326   0.00000   0.03740   0.04217   2.81545
    A2        2.13004   0.07355   0.00000   0.06056   0.06080   2.19085
    A3        2.96704  -0.00560   0.00000   0.12368   0.12368   3.09072
    D1        3.14159   0.00000   0.00000  -0.15116   0.00000   3.14159
    D2        0.00000   0.00000   0.00000  -0.03058   0.00000   0.00000
         Item               Value     Threshold  Converged?
 Maximum Force            0.086294     0.000450     NO 
 RMS     Force            0.050019     0.000300     NO 
 Maximum Displacement     0.137733     0.001800     NO 
 RMS     Displacement     0.083854     0.001200     NO 
 Predicted change in Energy=-2.321790D-02
 GradGradGradGradGradGradGradGradGradGradGradGradGradGradGradGradGradGrad

                          Input orientation:                          
 ---------------------------------------------------------------------
 Center     Atomic      Atomic             Coordinates (Angstroms)
 Number     Number       Type             X           Y           Z
 ---------------------------------------------------------------------
      1          8           0       -2.431353    1.305373    0.000000
      2          8           0       -1.297314    0.811797    0.000000
      3          1           0        0.019075    0.700476    0.000000
      4          8           0        0.537637   -0.173138    0.000000
      5          1           0        0.971508   -0.996821    0.000000
 ---------------------------------------------------------------------
                    Distance matrix (angstroms):
                    1          2          3          4          5
     1  O    0.000000
     2  O    1.236795   0.000000
     3  H    2.523984   1.321088   0.000000
     4  O    3.316760   2.082581   1.015927   0.000000
     5  H    4.108474   2.901491   1.946264   0.930966   0.000000
 Stoichiometry    H2O3
 Framework group  CS[SG(H2O3)]
 Deg. of freedom     7
 Full point group                 CS      NOp   2
 Largest Abelian subgroup         CS      NOp   2
 Largest concise Abelian subgroup C1      NOp   1
                         Standard orientation:                         
 ---------------------------------------------------------------------
 Center     Atomic      Atomic             Coordinates (Angstroms)
 Number     Number       Type             X           Y           Z
 ---------------------------------------------------------------------
      1          8           0       -0.192522    1.640816    0.000000
      2          8           0        0.000000    0.419097    0.000000
      3          1           0        0.612913   -0.751207    0.000000
      4          8           0        0.154352   -1.657756    0.000000
      5          1           0       -0.307559   -2.466047    0.000000
 ---------------------------------------------------------------------
 Rotational constants (GHZ):    799.6468993      5.2027548      5.1691229
 Standard basis: 6-31+G(d,p) (6D, 7F)
 There are    50 symmetry adapted basis functions of A'  symmetry.
 There are    17 symmetry adapted basis functions of A"  symmetry.
 Integral buffers will be    262144 words long.
 Raffenetti 2 integral format.
 Two-electron integral symmetry is turned on.
    67 basis functions,   110 primitive gaussians,    67 cartesian basis functions
    13 alpha electrons       13 beta electrons
       nuclear repulsion energy        70.2138369269 Hartrees.
 NAtoms=    5 NActive=    5 NUniq=    5 SFac= 7.50D-01 NAtFMM=   80 NAOKFM=F Big=F
 One-electron integrals computed using PRISM.
 NBasis=    67 RedAO= T  NBF=    50    17
 NBsUse=    67 1.00D-06 NBFU=    50    17
 Initial guess read from the read-write file.
 B after Tr=     0.000000    0.000000    0.000000
         Rot=    1.000000    0.000000    0.000000    0.000000 Ang=   0.00 deg.
 Initial guess orbital symmetries:
       Occupied  (A') (A') (A') (A') (A') (A') (A') (A') (A") (A')
                 (A') (A") (A')
       Virtual   (A") (A') (A') (A') (A") (A') (A') (A') (A") (A')
                 (A') (A") (A') (A') (A') (A') (A') (A') (A") (A')
                 (A') (A") (A') (A') (A") (A') (A') (A") (A') (A')
                 (A") (A') (A") (A') (A') (A') (A") (A") (A') (A')
                 (A") (A') (A') (A") (A') (A') (A') (A") (A') (A')
                 (A') (A') (A') (A')
 Harris functional with IExCor= 1009 diagonalized for initial guess.
 ExpMin= 8.45D-02 ExpMax= 5.48D+03 ExpMxC= 8.25D+02 IAcc=2 IRadAn=         0 AccDes= 0.00D+00
 HarFok:  IExCor= 1009 AccDes= 0.00D+00 IRadAn=         0 IDoV= 1
 ScaDFX=  1.000000  1.000000  1.000000  1.000000
 FoFCou: FMM=F IPFlag=           0 FMFlag=      100000 FMFlg1=           0
         NFxFlg=           0 DoJE=T BraDBF=F KetDBF=T FulRan=T
         Omega=  0.000000  0.000000  1.000000  0.000000  0.000000 ICntrl=     500 IOpCl=  0
         NMat0=    1 NMatS0=    1 NMatT0=    0 NMatD0=    1 NMtDS0=    0 NMtDT0=    0
         I1Cent=           4 NGrid=           0.
 Petite list used in FoFCou.
 Requested convergence on RMS density matrix=1.00D-08 within 128 cycles.
 Requested convergence on MAX density matrix=1.00D-06.
 Requested convergence on             energy=1.00D-06.
 No special actions if energy rises.
 Keep R1 ints in memory in canonical form, NReq=3551244.
 Integral accuracy reduced to 1.0D-05 until final iterations.
 Initial convergence to 1.0D-05 achieved.  Increase integral accuracy.
 SCF Done:  E(RM062X) =  -226.512413457     A.U. after   17 cycles
             Convg  =    0.4543D-08             -V/T =  2.0078
 Calling FoFJK, ICntrl=      2127 FMM=F ISym2X=1 I1Cent= 0 IOpClX= 0 NMat=1 NMatS=1 NMatT=0.
 ***** Axes restored to original set *****
 -------------------------------------------------------------------
 Center     Atomic                   Forces (Hartrees/Bohr)
 Number     Number              X              Y              Z
 -------------------------------------------------------------------
      1        8           0.055638460   -0.009042921    0.000000000
      2        8          -0.126593422    0.025768147    0.000000000
      3        1           0.052813190   -0.040979647    0.000000000
      4        8           0.008120260    0.036415196    0.000000000
      5        1           0.010021512   -0.012160775    0.000000000
 -------------------------------------------------------------------
 Cartesian Forces:  Max     0.126593422 RMS     0.041614252

 GradGradGradGradGradGradGradGradGradGradGradGradGradGradGradGradGradGrad
 Berny optimization.
 Internal  Forces:  Max     0.072103313 RMS     0.038240742
 Search for a saddle point.
 Step number   3 out of a maximum of  100
 All quantities printed in internal units (Hartrees-Bohrs-Radians)
 Swaping is turned off.
 Update second derivatives using D2CorX and points    1    2    3
 The second derivative matrix:
                          R1        R2        R3        R4        A1
           R1           0.39601
           R2           0.02793   0.17353
           R3           0.08574   0.15697   0.29982
           R4          -0.00589   0.00786  -0.01195   0.69369
           A1          -0.00990  -0.06407   0.01121   0.00053   0.02569
           A2           0.03967   0.11813   0.09941   0.00527  -0.04729
           A3          -0.00278   0.00361  -0.02154   0.00804   0.01361
           D1           0.00000   0.00000   0.00000   0.00000   0.00000
           D2           0.00000   0.00000   0.00000   0.00000   0.00000
                          A2        A3        D1        D2
           A2           0.24678
           A3          -0.00462  -0.12258
           D1           0.00000   0.00000  -0.02650
           D2           0.00000   0.00000   0.00685  -0.00301
     Eigenvalues ---   -0.12657  -0.02835  -0.01528  -0.00116   0.07804
     Eigenvalues ---    0.18043   0.34530   0.55662   0.69442
 Eigenvectors required to have negative eigenvalues:
                          A3        A1        R3        R2        R4
   1                    0.98438  -0.12954   0.08482  -0.08317  -0.00759
                          R1        A2        D1        D2
   1                   -0.00680   0.00034   0.00000   0.00000
 RFO step:  Lambda0=7.247326968D-05 Lambda=-4.85640636D-02.
 Linear search not attempted -- option 19 set.
 Maximum step size (   0.300) exceeded in Quadratic search.
    -- Step size scaled by   0.290
 Iteration  1 RMS(Cart)=  0.05270290 RMS(Int)=  0.01003681
 Iteration  2 RMS(Cart)=  0.00568268 RMS(Int)=  0.00024368
 Iteration  3 RMS(Cart)=  0.00016648 RMS(Int)=  0.00000023
 Iteration  4 RMS(Cart)=  0.00000012 RMS(Int)=  0.00000000
 ClnCor:  largest displacement from symmetrization is 5.97D-02 for atom     2.
 Variable       Old X    -DE/DX   Delta X   Delta X   Delta X     New X
                                 (Linear)    (Quad)   (Total)
    R1        2.33720  -0.05463   0.00000  -0.03097  -0.03294   2.30426
    R2        2.49649   0.07210   0.00000   0.15656   0.15562   2.65212
    R3        1.91982  -0.01159   0.00000  -0.08489  -0.08489   1.83493
    R4        1.75927   0.01543   0.00000   0.00222   0.00222   1.76149
    A1        2.81545  -0.03255   0.00000   0.05344   0.06198   2.87743
    A2        2.19085   0.05929   0.00000   0.03738   0.03770   2.22854
    A3        3.09072   0.00561   0.00000   0.02031   0.02032   3.11104
    D1        3.14159   0.00000   0.00000  -0.22908   0.00000   3.14159
    D2        0.00000   0.00000   0.00000  -0.01324   0.00000   0.00000
         Item               Value     Threshold  Converged?
 Maximum Force            0.072103     0.000450     NO 
 RMS     Force            0.038241     0.000300     NO 
 Maximum Displacement     0.072066     0.001800     NO 
 RMS     Displacement     0.051491     0.001200     NO 
 Predicted change in Energy=-1.312036D-02
 GradGradGradGradGradGradGradGradGradGradGradGradGradGradGradGradGradGrad

                          Input orientation:                          
 ---------------------------------------------------------------------
 Center     Atomic      Atomic             Coordinates (Angstroms)
 Number     Number       Type             X           Y           Z
 ---------------------------------------------------------------------
      1          8           0       -2.460244    1.312747    0.000000
      2          8           0       -1.334386    0.844461    0.000000
      3          1           0        0.057211    0.662518    0.000000
      4          8           0        0.546192   -0.176378    0.000000
      5          1           0        0.990781   -0.995660    0.000000
 ---------------------------------------------------------------------
                    Distance matrix (angstroms):
                    1          2          3          4          5
     1  O    0.000000
     2  O    1.219363   0.000000
     3  H    2.600073   1.403441   0.000000
     4  O    3.355019   2.139787   0.971004   0.000000
     5  H    4.151905   2.965206   1.902920   0.932139   0.000000
 Stoichiometry    H2O3
 Framework group  CS[SG(H2O3)]
 Deg. of freedom     7
 Full point group                 CS      NOp   2
 Largest Abelian subgroup         CS      NOp   2
 Largest concise Abelian subgroup C1      NOp   1
                         Standard orientation:                         
 ---------------------------------------------------------------------
 Center     Atomic      Atomic             Coordinates (Angstroms)
 Number     Number       Type             X           Y           Z
 ---------------------------------------------------------------------
      1          8           0       -0.229720    1.647145    0.000000
      2          8           0        0.000000    0.449616    0.000000
      3          1           0        0.615104   -0.811849    0.000000
      4          8           0        0.184586   -1.682194    0.000000
      5          1           0       -0.254033   -2.504688    0.000000
 ---------------------------------------------------------------------
 Rotational constants (GHZ):    801.7220633      5.0606676      5.0289238
 Standard basis: 6-31+G(d,p) (6D, 7F)
 There are    50 symmetry adapted basis functions of A'  symmetry.
 There are    17 symmetry adapted basis functions of A"  symmetry.
 Integral buffers will be    262144 words long.
 Raffenetti 2 integral format.
 Two-electron integral symmetry is turned on.
    67 basis functions,   110 primitive gaussians,    67 cartesian basis functions
    13 alpha electrons       13 beta electrons
       nuclear repulsion energy        69.9680976233 Hartrees.
 NAtoms=    5 NActive=    5 NUniq=    5 SFac= 7.50D-01 NAtFMM=   80 NAOKFM=F Big=F
 One-electron integrals computed using PRISM.
 NBasis=    67 RedAO= T  NBF=    50    17
 NBsUse=    67 1.00D-06 NBFU=    50    17
 Initial guess read from the read-write file.
 B after Tr=     0.000000    0.000000    0.000000
         Rot=    1.000000    0.000000    0.000000    0.000000 Ang=   0.00 deg.
 Initial guess orbital symmetries:
       Occupied  (A') (A') (A') (A') (A') (A') (A') (A') (A") (A')
                 (A') (A") (A')
       Virtual   (A") (A') (A') (A') (A") (A') (A') (A') (A") (A')
                 (A') (A") (A') (A') (A') (A') (A') (A') (A") (A')
                 (A') (A") (A') (A') (A") (A') (A') (A") (A') (A')
                 (A") (A') (A") (A') (A') (A') (A") (A") (A') (A')
                 (A") (A') (A') (A") (A') (A') (A') (A") (A') (A')
                 (A') (A') (A') (A')
 Harris functional with IExCor= 1009 diagonalized for initial guess.
 ExpMin= 8.45D-02 ExpMax= 5.48D+03 ExpMxC= 8.25D+02 IAcc=2 IRadAn=         0 AccDes= 0.00D+00
 HarFok:  IExCor= 1009 AccDes= 0.00D+00 IRadAn=         0 IDoV= 1
 ScaDFX=  1.000000  1.000000  1.000000  1.000000
 FoFCou: FMM=F IPFlag=           0 FMFlag=      100000 FMFlg1=           0
         NFxFlg=           0 DoJE=T BraDBF=F KetDBF=T FulRan=T
         Omega=  0.000000  0.000000  1.000000  0.000000  0.000000 ICntrl=     500 IOpCl=  0
         NMat0=    1 NMatS0=    1 NMatT0=    0 NMatD0=    1 NMtDS0=    0 NMtDT0=    0
         I1Cent=           4 NGrid=           0.
 Petite list used in FoFCou.
 Requested convergence on RMS density matrix=1.00D-08 within 128 cycles.
 Requested convergence on MAX density matrix=1.00D-06.
 Requested convergence on             energy=1.00D-06.
 No special actions if energy rises.
 Keep R1 ints in memory in canonical form, NReq=3551244.
 Integral accuracy reduced to 1.0D-05 until final iterations.
 Initial convergence to 1.0D-05 achieved.  Increase integral accuracy.
 SCF Done:  E(RM062X) =  -226.524878512     A.U. after   15 cycles
             Convg  =    0.5271D-08             -V/T =  2.0076
 Calling FoFJK, ICntrl=      2127 FMM=F ISym2X=1 I1Cent= 0 IOpClX= 0 NMat=1 NMatS=1 NMatT=0.
 ***** Axes restored to original set *****
 -------------------------------------------------------------------
 Center     Atomic                   Forces (Hartrees/Bohr)
 Number     Number              X              Y              Z
 -------------------------------------------------------------------
      1        8           0.035347229   -0.003142717    0.000000000
      2        8          -0.094872076    0.019280584    0.000000000
      3        1           0.036106719   -0.020596070    0.000000000
      4        8           0.015340151    0.012493081    0.000000000
      5        1           0.008077977   -0.008034878    0.000000000
 -------------------------------------------------------------------
 Cartesian Forces:  Max     0.094872076 RMS     0.029303991

 GradGradGradGradGradGradGradGradGradGradGradGradGradGradGradGradGradGrad
 Berny optimization.
 Internal  Forces:  Max     0.061092530 RMS     0.029620363
 Search for a saddle point.
 Step number   4 out of a maximum of  100
 All quantities printed in internal units (Hartrees-Bohrs-Radians)
 Swaping is turned off.
 Update second derivatives using D2CorX and points    2    3    4
 The second derivative matrix:
                          R1        R2        R3        R4        A1
           R1           0.40736
           R2           0.01783   0.13883
           R3           0.12191   0.11400   0.41219
           R4          -0.00625   0.00796  -0.01316   0.69370
           A1          -0.01873  -0.06640  -0.01931   0.00076   0.03010
           A2           0.03957   0.10310   0.09524   0.00520  -0.05066
           A3          -0.00507  -0.00582  -0.03204   0.00808   0.01295
           D1           0.00000   0.00000   0.00000   0.00000   0.00000
           D2           0.00000   0.00000   0.00000   0.00000   0.00000
                          A2        A3        D1        D2
           A2           0.24148
           A3          -0.00878  -0.12577
           D1           0.00000   0.00000  -0.02650
           D2           0.00000   0.00000   0.00685  -0.00301
     Eigenvalues ---   -0.12878  -0.02835  -0.00415  -0.00116   0.08045
     Eigenvalues ---    0.21752   0.33510   0.60263   0.69514
 Eigenvectors required to have negative eigenvalues:
                          A3        A1        R3        R2        R4
   1                    0.99410  -0.08398   0.06213  -0.02664  -0.00851
                          R1        A2        D1        D2
   1                   -0.00720   0.00441   0.00000   0.00000
 RFO step:  Lambda0=3.746363986D-04 Lambda=-2.88033595D-02.
 Linear search not attempted -- option 19 set.
 Maximum step size (   0.300) exceeded in Quadratic search.
    -- Step size scaled by   0.300
 Iteration  1 RMS(Cart)=  0.04870227 RMS(Int)=  0.01630400
 Iteration  2 RMS(Cart)=  0.01235646 RMS(Int)=  0.00088524
 Iteration  3 RMS(Cart)=  0.00051113 RMS(Int)=  0.00000297
 Iteration  4 RMS(Cart)=  0.00000202 RMS(Int)=  0.00000000
 Iteration  5 RMS(Cart)=  0.00000000 RMS(Int)=  0.00000000
 ClnCor:  largest displacement from symmetrization is 3.99D-02 for atom     2.
 Variable       Old X    -DE/DX   Delta X   Delta X   Delta X     New X
                                 (Linear)    (Quad)   (Total)
    R1        2.30426  -0.03385   0.00000  -0.01893  -0.01982   2.28444
    R2        2.65212   0.06109   0.00000   0.15823   0.15782   2.80994
    R3        1.83493   0.00796   0.00000  -0.03184  -0.03184   1.80309
    R4        1.76149   0.01093   0.00000   0.00182   0.00182   1.76330
    A1        2.87743  -0.02470   0.00000   0.08399   0.08965   2.96708
    A2        2.22854   0.04683   0.00000   0.02125   0.02139   2.24993
    A3        3.11104   0.00569   0.00000  -0.00312  -0.00312   3.10792
    D1        3.14159   0.00000   0.00000  -0.23641   0.00000   3.14159
    D2        0.00000   0.00000   0.00000  -0.01366   0.00000   0.00000
         Item               Value     Threshold  Converged?
 Maximum Force            0.061093     0.000450     NO 
 RMS     Force            0.029620     0.000300     NO 
 Maximum Displacement     0.097146     0.001800     NO 
 RMS     Displacement     0.058522     0.001200     NO 
 Predicted change in Energy=-7.887777D-03
 GradGradGradGradGradGradGradGradGradGradGradGradGradGradGradGradGradGrad

                          Input orientation:                          
 ---------------------------------------------------------------------
 Center     Atomic      Atomic             Coordinates (Angstroms)
 Number     Number       Type             X           Y           Z
 ---------------------------------------------------------------------
      1          8           0       -2.503377    1.301529    0.000000
      2          8           0       -1.364598    0.895869    0.000000
      3          1           0        0.101500    0.647676    0.000000
      4          8           0        0.568495   -0.184386    0.000000
      5          1           0        0.997534   -1.013000    0.000000
 ---------------------------------------------------------------------
                    Distance matrix (angstroms):
                    1          2          3          4          5
     1  O    0.000000
     2  O    1.208874   0.000000
     3  H    2.685685   1.486958   0.000000
     4  O    3.412380   2.214453   0.954155   0.000000
     5  H    4.196834   3.037013   1.886987   0.933100   0.000000
 Stoichiometry    H2O3
 Framework group  CS[SG(H2O3)]
 Deg. of freedom     7
 Full point group                 CS      NOp   2
 Largest Abelian subgroup         CS      NOp   2
 Largest concise Abelian subgroup C1      NOp   1
                         Standard orientation:                         
 ---------------------------------------------------------------------
 Center     Atomic      Atomic             Coordinates (Angstroms)
 Number     Number       Type             X           Y           Z
 ---------------------------------------------------------------------
      1          8           0       -0.352671    1.643928    0.000000
      2          8           0        0.000000    0.487641    0.000000
      3          1           0        0.674153   -0.837712    0.000000
      4          8           0        0.284121   -1.708509    0.000000
      5          1           0       -0.125756   -2.546767    0.000000
 ---------------------------------------------------------------------
 Rotational constants (GHZ):    653.9267954      4.8728342      4.8367921
 Standard basis: 6-31+G(d,p) (6D, 7F)
 There are    50 symmetry adapted basis functions of A'  symmetry.
 There are    17 symmetry adapted basis functions of A"  symmetry.
 Integral buffers will be    262144 words long.
 Raffenetti 2 integral format.
 Two-electron integral symmetry is turned on.
    67 basis functions,   110 primitive gaussians,    67 cartesian basis functions
    13 alpha electrons       13 beta electrons
       nuclear repulsion energy        69.3144026582 Hartrees.
 NAtoms=    5 NActive=    5 NUniq=    5 SFac= 7.50D-01 NAtFMM=   80 NAOKFM=F Big=F
 One-electron integrals computed using PRISM.
 NBasis=    67 RedAO= T  NBF=    50    17
 NBsUse=    67 1.00D-06 NBFU=    50    17
 Initial guess read from the read-write file.
 B after Tr=     0.000000    0.000000    0.000000
         Rot=    1.000000    0.000000    0.000000    0.000000 Ang=   0.00 deg.
 Initial guess orbital symmetries:
       Occupied  (A') (A') (A') (A') (A') (A') (A') (A') (A") (A')
                 (A') (A") (A')
       Virtual   (A") (A') (A') (A') (A") (A') (A') (A') (A") (A')
                 (A") (A') (A') (A') (A') (A') (A') (A') (A") (A')
                 (A') (A") (A') (A') (A") (A') (A') (A") (A') (A')
                 (A") (A') (A") (A') (A') (A') (A") (A") (A') (A')
                 (A") (A') (A') (A") (A') (A') (A') (A") (A') (A')
                 (A') (A') (A') (A')
 Harris functional with IExCor= 1009 diagonalized for initial guess.
 ExpMin= 8.45D-02 ExpMax= 5.48D+03 ExpMxC= 8.25D+02 IAcc=2 IRadAn=         0 AccDes= 0.00D+00
 HarFok:  IExCor= 1009 AccDes= 0.00D+00 IRadAn=         0 IDoV= 1
 ScaDFX=  1.000000  1.000000  1.000000  1.000000
 FoFCou: FMM=F IPFlag=           0 FMFlag=      100000 FMFlg1=           0
         NFxFlg=           0 DoJE=T BraDBF=F KetDBF=T FulRan=T
         Omega=  0.000000  0.000000  1.000000  0.000000  0.000000 ICntrl=     500 IOpCl=  0
         NMat0=    1 NMatS0=    1 NMatT0=    0 NMatD0=    1 NMtDS0=    0 NMtDT0=    0
         I1Cent=           4 NGrid=           0.
 Petite list used in FoFCou.
 Requested convergence on RMS density matrix=1.00D-08 within 128 cycles.
 Requested convergence on MAX density matrix=1.00D-06.
 Requested convergence on             energy=1.00D-06.
 No special actions if energy rises.
 Keep R1 ints in memory in canonical form, NReq=3551244.
 Integral accuracy reduced to 1.0D-05 until final iterations.
 Initial convergence to 1.0D-05 achieved.  Increase integral accuracy.
 SCF Done:  E(RM062X) =  -226.532744816     A.U. after   16 cycles
             Convg  =    0.2515D-08             -V/T =  2.0075
 Calling FoFJK, ICntrl=      2127 FMM=F ISym2X=1 I1Cent= 0 IOpClX= 0 NMat=1 NMatS=1 NMatT=0.
 ***** Axes restored to original set *****
 -------------------------------------------------------------------
 Center     Atomic                   Forces (Hartrees/Bohr)
 Number     Number              X              Y              Z
 -------------------------------------------------------------------
      1        8           0.020811017    0.001326688    0.000000000
      2        8          -0.068171860    0.012953918    0.000000000
      3        1           0.025795838   -0.013450537    0.000000000
      4        8           0.015991271    0.005469492    0.000000000
      5        1           0.005573735   -0.006299562    0.000000000
 -------------------------------------------------------------------
 Cartesian Forces:  Max     0.068171860 RMS     0.020740933

 GradGradGradGradGradGradGradGradGradGradGradGradGradGradGradGradGradGrad
 Berny optimization.
 Internal  Forces:  Max     0.049051347 RMS     0.022795128
 Search for a saddle point.
 Step number   5 out of a maximum of  100
 All quantities printed in internal units (Hartrees-Bohrs-Radians)
 Swaping is turned off.
 Update second derivatives using D2CorX and points    3    4    5
 The second derivative matrix:
                          R1        R2        R3        R4        A1
           R1           0.41533
           R2          -0.00091   0.11802
           R3           0.13431   0.09047   0.43096
           R4          -0.00603   0.00582  -0.01267   0.69367
           A1          -0.03206  -0.06298  -0.03765  -0.00031   0.04036
           A2           0.03914   0.08894   0.09591   0.00481  -0.05646
           A3          -0.00602  -0.00349  -0.03351   0.00805   0.01459
           D1           0.00000   0.00000   0.00000   0.00000   0.00000
           D2           0.00000   0.00000   0.00000   0.00000   0.00000
                          A2        A3        D1        D2
           A2           0.23795
           A3          -0.00872  -0.12567
           D1           0.00000   0.00000  -0.02650
           D2           0.00000   0.00000   0.00685  -0.00301
     Eigenvalues ---   -0.12887  -0.02835  -0.00116   0.00298   0.07803
     Eigenvalues ---    0.21655   0.33411   0.61248   0.69534
 Eigenvectors required to have negative eigenvalues:
                          A3        A1        R3        R2        R1
   1                    0.99406  -0.08431   0.06019  -0.03057  -0.00922
                          R4        A2        D1        D2
   1                   -0.00871   0.00342   0.00000   0.00000
 RFO step:  Lambda0=1.581446847D-04 Lambda=-2.83538004D-02.
 Linear search not attempted -- option 19 set.
 Maximum step size (   0.300) exceeded in Quadratic search.
    -- Step size scaled by   0.308
 Iteration  1 RMS(Cart)=  0.04021004 RMS(Int)=  0.01424311
 Iteration  2 RMS(Cart)=  0.00178513 RMS(Int)=  0.00007422
 Iteration  3 RMS(Cart)=  0.00003900 RMS(Int)=  0.00000002
 Iteration  4 RMS(Cart)=  0.00000002 RMS(Int)=  0.00000000
 ClnCor:  largest displacement from symmetrization is 2.67D-02 for atom     2.
 Variable       Old X    -DE/DX   Delta X   Delta X   Delta X     New X
                                 (Linear)    (Quad)   (Total)
    R1        2.28444  -0.01917   0.00000  -0.00908  -0.00948   2.27496
    R2        2.80994   0.04905   0.00000   0.10980   0.10964   2.91958
    R3        1.80309   0.01131   0.00000  -0.01347  -0.01348   1.78961
    R4        1.76330   0.00818   0.00000   0.00226   0.00222   1.76553
    A1        2.96708  -0.01895   0.00000   0.01826   0.02102   2.98811
    A2        2.24993   0.03656   0.00000   0.01545   0.01547   2.26540
    A3        3.10792   0.00353   0.00000  -0.00522  -0.00428   3.10364
    D1        3.14159   0.00000   0.00000  -0.18281   0.00000   3.14159
    D2        0.00000   0.00000   0.00000   0.20894   0.00000   0.00000
         Item               Value     Threshold  Converged?
 Maximum Force            0.049051     0.000450     NO 
 RMS     Force            0.022795     0.000300     NO 
 Maximum Displacement     0.057580     0.001800     NO 
 RMS     Displacement     0.038343     0.001200     NO 
 Predicted change in Energy=-4.908369D-03
 GradGradGradGradGradGradGradGradGradGradGradGradGradGradGradGradGradGrad

                          Input orientation:                          
 ---------------------------------------------------------------------
 Center     Atomic      Atomic             Coordinates (Angstroms)
 Number     Number       Type             X           Y           Z
 ---------------------------------------------------------------------
      1          8           0       -2.531450    1.312622    0.000000
      2          8           0       -1.395068    0.915239    0.000000
      3          1           0        0.124135    0.634218    0.000000
      4          8           0        0.587850   -0.191505    0.000000
      5          1           0        1.014087   -1.022886    0.000000
 ---------------------------------------------------------------------
                    Distance matrix (angstroms):
                    1          2          3          4          5
     1  O    0.000000
     2  O    1.203860   0.000000
     3  H    2.740870   1.544976   0.000000
     4  O    3.463009   2.270869   0.947021   0.000000
     5  H    4.245637   3.091983   1.880960   0.934277   0.000000
 Stoichiometry    H2O3
 Framework group  CS[SG(H2O3)]
 Deg. of freedom     7
 Full point group                 CS      NOp   2
 Largest Abelian subgroup         CS      NOp   2
 Largest concise Abelian subgroup C1      NOp   1
                         Standard orientation:                         
 ---------------------------------------------------------------------
 Center     Atomic      Atomic             Coordinates (Angstroms)
 Number     Number       Type             X           Y           Z
 ---------------------------------------------------------------------
      1          8           0       -0.354837    1.661814    0.000000
      2          8           0        0.000000    0.511437    0.000000
      3          1           0        0.675739   -0.877926    0.000000
      4          8           0        0.286550   -1.741281    0.000000
      5          1           0       -0.129442   -2.577836    0.000000
 ---------------------------------------------------------------------
 Rotational constants (GHZ):    641.9005152      4.7185987      4.6841655
 Standard basis: 6-31+G(d,p) (6D, 7F)
 There are    50 symmetry adapted basis functions of A'  symmetry.
 There are    17 symmetry adapted basis functions of A"  symmetry.
 Integral buffers will be    262144 words long.
 Raffenetti 2 integral format.
 Two-electron integral symmetry is turned on.
    67 basis functions,   110 primitive gaussians,    67 cartesian basis functions
    13 alpha electrons       13 beta electrons
       nuclear repulsion energy        68.7596232890 Hartrees.
 NAtoms=    5 NActive=    5 NUniq=    5 SFac= 7.50D-01 NAtFMM=   80 NAOKFM=F Big=F
 One-electron integrals computed using PRISM.
 NBasis=    67 RedAO= T  NBF=    50    17
 NBsUse=    67 1.00D-06 NBFU=    50    17
 Initial guess read from the read-write file.
 B after Tr=     0.000000    0.000000    0.000000
         Rot=    1.000000    0.000000    0.000000    0.000000 Ang=   0.00 deg.
 Initial guess orbital symmetries:
       Occupied  (A') (A') (A') (A') (A') (A') (A') (A') (A") (A')
                 (A') (A") (A')
       Virtual   (A") (A') (A') (A') (A") (A') (A') (A') (A") (A')
                 (A") (A') (A') (A') (A') (A') (A') (A') (A") (A')
                 (A') (A") (A') (A') (A") (A') (A') (A") (A') (A')
                 (A') (A") (A") (A') (A') (A') (A") (A') (A") (A')
                 (A") (A') (A') (A") (A') (A') (A') (A") (A') (A')
                 (A') (A') (A') (A')
 Harris functional with IExCor= 1009 diagonalized for initial guess.
 ExpMin= 8.45D-02 ExpMax= 5.48D+03 ExpMxC= 8.25D+02 IAcc=2 IRadAn=         0 AccDes= 0.00D+00
 HarFok:  IExCor= 1009 AccDes= 0.00D+00 IRadAn=         0 IDoV= 1
 ScaDFX=  1.000000  1.000000  1.000000  1.000000
 FoFCou: FMM=F IPFlag=           0 FMFlag=      100000 FMFlg1=           0
         NFxFlg=           0 DoJE=T BraDBF=F KetDBF=T FulRan=T
         Omega=  0.000000  0.000000  1.000000  0.000000  0.000000 ICntrl=     500 IOpCl=  0
         NMat0=    1 NMatS0=    1 NMatT0=    0 NMatD0=    1 NMtDS0=    0 NMtDT0=    0
         I1Cent=           4 NGrid=           0.
 Petite list used in FoFCou.
 Requested convergence on RMS density matrix=1.00D-08 within 128 cycles.
 Requested convergence on MAX density matrix=1.00D-06.
 Requested convergence on             energy=1.00D-06.
 No special actions if energy rises.
 Keep R1 ints in memory in canonical form, NReq=3551244.
 Integral accuracy reduced to 1.0D-05 until final iterations.
 Initial convergence to 1.0D-05 achieved.  Increase integral accuracy.
 SCF Done:  E(RM062X) =  -226.537778445     A.U. after   14 cycles
             Convg  =    0.6181D-08             -V/T =  2.0076
 Calling FoFJK, ICntrl=      2127 FMM=F ISym2X=1 I1Cent= 0 IOpClX= 0 NMat=1 NMatS=1 NMatT=0.
 ***** Axes restored to original set *****
 -------------------------------------------------------------------
 Center     Atomic                   Forces (Hartrees/Bohr)
 Number     Number              X              Y              Z
 -------------------------------------------------------------------
      1        8           0.013526519    0.002589690    0.000000000
      2        8          -0.052503091    0.009318464    0.000000000
      3        1           0.019237541   -0.008608666    0.000000000
      4        8           0.016034308    0.001577942    0.000000000
      5        1           0.003704723   -0.004877431    0.000000000
 -------------------------------------------------------------------
 Cartesian Forces:  Max     0.052503091 RMS     0.015862696

 GradGradGradGradGradGradGradGradGradGradGradGradGradGradGradGradGradGrad
 Berny optimization.
 Internal  Forces:  Max     0.040467087 RMS     0.018571976
 Search for a saddle point.
 Step number   6 out of a maximum of  100
 All quantities printed in internal units (Hartrees-Bohrs-Radians)
 Swaping is turned off.
 Update second derivatives using D2CorX and points    3    4    5    6
 The second derivative matrix:
                          R1        R2        R3        R4        A1
           R1           0.41388
           R2          -0.01188   0.08298
           R3           0.13698   0.04996   0.43773
           R4          -0.00626   0.00300  -0.01341   0.69356
           A1          -0.03839  -0.03925  -0.05081  -0.00038   0.05329
           A2           0.04013   0.05706   0.09178   0.00383  -0.05835
           A3          -0.00602   0.00410  -0.03240   0.00830   0.01506
           D1           0.00000   0.00000   0.00000   0.00000   0.00000
           D2           0.00000   0.00000   0.00000   0.00000   0.00000
                          A2        A3        D1        D2
           A2           0.22799
           A3          -0.00634  -0.12622
           D1           0.00000   0.00000  -0.02650
           D2           0.00000   0.00000   0.00685  -0.00301
     Eigenvalues ---   -0.12945  -0.02835  -0.00116   0.02248   0.06807
     Eigenvalues ---    0.20895   0.31397   0.60364   0.69555
 Eigenvectors required to have negative eigenvalues:
                          A3        A1        R3        R2        R1
   1                    0.99410  -0.07881   0.05618  -0.04711  -0.00977
                          R4        A2        D2        D1
   1                   -0.00904  -0.00095   0.00000   0.00000
 RFO step:  Lambda0=2.728281256D-05 Lambda=-2.83538004D-02.
 Linear search not attempted -- option 19 set.
 Maximum step size (   0.300) exceeded in Quadratic search.
    -- Step size scaled by   0.311
 Iteration  1 RMS(Cart)=  0.04299536 RMS(Int)=  0.02623573
 Iteration  2 RMS(Cart)=  0.00515446 RMS(Int)=  0.00021171
 Iteration  3 RMS(Cart)=  0.00028063 RMS(Int)=  0.00000014
 Iteration  4 RMS(Cart)=  0.00000009 RMS(Int)=  0.00000000
 ClnCor:  largest displacement from symmetrization is 3.97D-02 for atom     2.
 Variable       Old X    -DE/DX   Delta X   Delta X   Delta X     New X
                                 (Linear)    (Quad)   (Total)
    R1        2.27496  -0.01192   0.00000  -0.00585  -0.00674   2.26823
    R2        2.91958   0.04047   0.00000   0.10551   0.10509   3.02467
    R3        1.78961   0.01257   0.00000  -0.00441  -0.00443   1.78519
    R4        1.76553   0.00605   0.00000   0.00196   0.00196   1.76748
    A1        2.98811  -0.01585   0.00000  -0.00531   0.00110   2.98920
    A2        2.26540   0.02959   0.00000   0.01368   0.01389   2.27929
    A3        3.10364   0.00181   0.00000   0.00026   0.00034   3.10398
    D1        3.14159   0.00000   0.00000  -0.26576   0.00000   3.14159
    D2        0.00000   0.00000   0.00000  -0.08925   0.00000   0.00000
         Item               Value     Threshold  Converged?
 Maximum Force            0.040467     0.000450     NO 
 RMS     Force            0.018572     0.000300     NO 
 Maximum Displacement     0.064565     0.001800     NO 
 RMS     Displacement     0.040376     0.001200     NO 
 Predicted change in Energy=-4.128676D-03
 GradGradGradGradGradGradGradGradGradGradGradGradGradGradGradGradGradGrad

                          Input orientation:                          
 ---------------------------------------------------------------------
 Center     Atomic      Atomic             Coordinates (Angstroms)
 Number     Number       Type             X           Y           Z
 ---------------------------------------------------------------------
      1          8           0       -2.558776    1.333012    0.000000
      2          8           0       -1.429234    0.927008    0.000000
      3          1           0        0.141737    0.620528    0.000000
      4          8           0        0.607702   -0.201236    0.000000
      5          1           0        1.038125   -1.031624    0.000000
 ---------------------------------------------------------------------
                    Distance matrix (angstroms):
                    1          2          3          4          5
     1  O    0.000000
     2  O    1.200293   0.000000
     3  H    2.792920   1.600588   0.000000
     4  O    3.518594   2.328529   0.944680   0.000000
     5  H    4.304555   3.150254   1.879659   0.935312   0.000000
 Stoichiometry    H2O3
 Framework group  CS[SG(H2O3)]
 Deg. of freedom     7
 Full point group                 CS      NOp   2
 Largest Abelian subgroup         CS      NOp   2
 Largest concise Abelian subgroup C1      NOp   1
                         Standard orientation:                         
 ---------------------------------------------------------------------
 Center     Atomic      Atomic             Coordinates (Angstroms)
 Number     Number       Type             X           Y           Z
 ---------------------------------------------------------------------
      1          8           0       -0.324350    1.689026    0.000000
      2          8           0        0.000000    0.533388    0.000000
      3          1           0        0.661441   -0.924137    0.000000
      4          8           0        0.262244   -1.780327    0.000000
      5          1           0       -0.164593   -2.612564    0.000000
 ---------------------------------------------------------------------
 Rotational constants (GHZ):    670.7463206      4.5585406      4.5277689
 Standard basis: 6-31+G(d,p) (6D, 7F)
 There are    50 symmetry adapted basis functions of A'  symmetry.
 There are    17 symmetry adapted basis functions of A"  symmetry.
 Integral buffers will be    262144 words long.
 Raffenetti 2 integral format.
 Two-electron integral symmetry is turned on.
    67 basis functions,   110 primitive gaussians,    67 cartesian basis functions
    13 alpha electrons       13 beta electrons
       nuclear repulsion energy        68.1627236812 Hartrees.
 NAtoms=    5 NActive=    5 NUniq=    5 SFac= 7.50D-01 NAtFMM=   80 NAOKFM=F Big=F
 One-electron integrals computed using PRISM.
 NBasis=    67 RedAO= T  NBF=    50    17
 NBsUse=    67 1.00D-06 NBFU=    50    17
 Initial guess read from the read-write file.
 B after Tr=     0.000000    0.000000    0.000000
         Rot=    1.000000    0.000000    0.000000    0.000000 Ang=   0.00 deg.
 Initial guess orbital symmetries:
       Occupied  (A') (A') (A') (A') (A') (A') (A') (A') (A") (A')
                 (A') (A") (A')
       Virtual   (A") (A') (A') (A') (A") (A') (A') (A") (A') (A')
                 (A") (A') (A') (A') (A') (A') (A') (A') (A") (A')
                 (A') (A") (A') (A') (A") (A') (A') (A") (A') (A')
                 (A") (A') (A") (A') (A') (A') (A") (A') (A") (A')
                 (A") (A') (A') (A") (A') (A') (A') (A") (A') (A')
                 (A') (A') (A') (A')
 Harris functional with IExCor= 1009 diagonalized for initial guess.
 ExpMin= 8.45D-02 ExpMax= 5.48D+03 ExpMxC= 8.25D+02 IAcc=2 IRadAn=         0 AccDes= 0.00D+00
 HarFok:  IExCor= 1009 AccDes= 0.00D+00 IRadAn=         0 IDoV= 1
 ScaDFX=  1.000000  1.000000  1.000000  1.000000
 FoFCou: FMM=F IPFlag=           0 FMFlag=      100000 FMFlg1=           0
         NFxFlg=           0 DoJE=T BraDBF=F KetDBF=T FulRan=T
         Omega=  0.000000  0.000000  1.000000  0.000000  0.000000 ICntrl=     500 IOpCl=  0
         NMat0=    1 NMatS0=    1 NMatT0=    0 NMatD0=    1 NMtDS0=    0 NMtDT0=    0
         I1Cent=           4 NGrid=           0.
 Petite list used in FoFCou.
 Requested convergence on RMS density matrix=1.00D-08 within 128 cycles.
 Requested convergence on MAX density matrix=1.00D-06.
 Requested convergence on             energy=1.00D-06.
 No special actions if energy rises.
 Keep R1 ints in memory in canonical form, NReq=3551244.
 Integral accuracy reduced to 1.0D-05 until final iterations.
 Initial convergence to 1.0D-05 achieved.  Increase integral accuracy.
 SCF Done:  E(RM062X) =  -226.541977929     A.U. after   14 cycles
             Convg  =    0.5539D-08             -V/T =  2.0077
 Calling FoFJK, ICntrl=      2127 FMM=F ISym2X=1 I1Cent= 0 IOpClX= 0 NMat=1 NMatS=1 NMatT=0.
 ***** Axes restored to original set *****
 -------------------------------------------------------------------
 Center     Atomic                   Forces (Hartrees/Bohr)
 Number     Number              X              Y              Z
 -------------------------------------------------------------------
      1        8           0.008078275    0.003424948    0.000000000
      2        8          -0.039595250    0.006076247    0.000000000
      3        1           0.015293771   -0.006870379    0.000000000
      4        8           0.013737040    0.001073138    0.000000000
      5        1           0.002486164   -0.003703954    0.000000000
 -------------------------------------------------------------------
 Cartesian Forces:  Max     0.039595250 RMS     0.012034819

 GradGradGradGradGradGradGradGradGradGradGradGradGradGradGradGradGradGrad
 Berny optimization.
 Internal  Forces:  Max     0.032740703 RMS     0.014847929
 Search for a saddle point.
 Step number   7 out of a maximum of  100
 All quantities printed in internal units (Hartrees-Bohrs-Radians)
 Swaping is turned off.
 Update second derivatives using D2CorX and points    3    4    5    6    7
 The second derivative matrix:
                          R1        R2        R3        R4        A1
           R1           0.41216
           R2          -0.02435   0.06920
           R3           0.13104   0.03743   0.42027
           R4          -0.00678   0.00096  -0.01442   0.69344
           A1          -0.03507  -0.01953  -0.03930   0.00059   0.04551
           A2           0.03580   0.03405   0.08340   0.00265  -0.04970
           A3          -0.00468   0.00824  -0.02909   0.00858   0.01262
           D1           0.00000   0.00000   0.00000   0.00000   0.00000
           D2           0.00000   0.00000   0.00000   0.00000   0.00000
                          A2        A3        D1        D2
           A2           0.21690
           A3          -0.00380  -0.12688
           D1           0.00000   0.00000  -0.02650
           D2           0.00000   0.00000   0.00685  -0.00301
     Eigenvalues ---   -0.12986  -0.02835  -0.00116   0.02727   0.05947
     Eigenvalues ---    0.19574   0.30690   0.57568   0.69539
 Eigenvectors required to have negative eigenvalues:
                          A3        A1        R2        R3        R1
   1                    0.99420  -0.06957  -0.05879   0.05492  -0.01161
                          R4        A2        D1        D2
   1                   -0.00935  -0.00525   0.00000   0.00000
 RFO step:  Lambda0=8.698444423D-07 Lambda=-2.83538004D-02.
 Linear search not attempted -- option 19 set.
 Maximum step size (   0.300) exceeded in Quadratic search.
    -- Step size scaled by   0.313
 Iteration  1 RMS(Cart)=  0.04531013 RMS(Int)=  0.03475686
 Iteration  2 RMS(Cart)=  0.00755173 RMS(Int)=  0.00038702
 Iteration  3 RMS(Cart)=  0.00051413 RMS(Int)=  0.00000049
 Iteration  4 RMS(Cart)=  0.00000030 RMS(Int)=  0.00000000
 ClnCor:  largest displacement from symmetrization is 4.59D-02 for atom     2.
 Variable       Old X    -DE/DX   Delta X   Delta X   Delta X     New X
                                 (Linear)    (Quad)   (Total)
    R1        2.26823  -0.00645   0.00000  -0.00086  -0.00207   2.26615
    R2        3.02467   0.03274   0.00000   0.09661   0.09608   3.12076
    R3        1.78519   0.01031   0.00000  -0.00516  -0.00518   1.78001
    R4        1.76748   0.00444   0.00000   0.00162   0.00162   1.76910
    A1        2.98920  -0.01358   0.00000  -0.02681  -0.01940   2.96980
    A2        2.27929   0.02366   0.00000   0.01329   0.01354   2.29283
    A3        3.10398   0.00085   0.00000   0.00338   0.00345   3.10743
    D1        3.14159   0.00000   0.00000  -0.26767   0.00000   3.14159
    D2        0.00000   0.00000   0.00000  -0.08989   0.00000   0.00000
         Item               Value     Threshold  Converged?
 Maximum Force            0.032741     0.000450     NO 
 RMS     Force            0.014848     0.000300     NO 
 Maximum Displacement     0.067123     0.001800     NO 
 RMS     Displacement     0.041738     0.001200     NO 
 Predicted change in Energy=-3.273280D-03
 GradGradGradGradGradGradGradGradGradGradGradGradGradGradGradGradGradGrad

                          Input orientation:                          
 ---------------------------------------------------------------------
 Center     Atomic      Atomic             Coordinates (Angstroms)
 Number     Number       Type             X           Y           Z
 ---------------------------------------------------------------------
      1          8           0       -2.583008    1.362013    0.000000
      2          8           0       -1.464754    0.928910    0.000000
      3          1           0        0.154504    0.604511    0.000000
      4          8           0        0.626054   -0.210899    0.000000
      5          1           0        1.066758   -1.036848    0.000000
 ---------------------------------------------------------------------
                    Distance matrix (angstroms):
                    1          2          3          4          5
     1  O    0.000000
     2  O    1.199196   0.000000
     3  H    2.840384   1.651433   0.000000
     4  O    3.573813   2.381312   0.941941   0.000000
     5  H    4.367531   3.205114   1.877835   0.936169   0.000000
 Stoichiometry    H2O3
 Framework group  CS[SG(H2O3)]
 Deg. of freedom     7
 Full point group                 CS      NOp   2
 Largest Abelian subgroup         CS      NOp   2
 Largest concise Abelian subgroup C1      NOp   1
                         Standard orientation:                         
 ---------------------------------------------------------------------
 Center     Atomic      Atomic             Coordinates (Angstroms)
 Number     Number       Type             X           Y           Z
 ---------------------------------------------------------------------
      1          8           0       -0.259229    1.722142    0.000000
      2          8           0        0.000000    0.551300    0.000000
      3          1           0        0.627369   -0.976326    0.000000
      4          8           0        0.209970   -1.820737    0.000000
      5          1           0       -0.233298   -2.645313    0.000000
 ---------------------------------------------------------------------
 Rotational constants (GHZ):    750.8767281      4.4086409      4.3829074
 Standard basis: 6-31+G(d,p) (6D, 7F)
 There are    50 symmetry adapted basis functions of A'  symmetry.
 There are    17 symmetry adapted basis functions of A"  symmetry.
 Integral buffers will be    262144 words long.
 Raffenetti 2 integral format.
 Two-electron integral symmetry is turned on.
    67 basis functions,   110 primitive gaussians,    67 cartesian basis functions
    13 alpha electrons       13 beta electrons
       nuclear repulsion energy        67.5826476140 Hartrees.
 NAtoms=    5 NActive=    5 NUniq=    5 SFac= 7.50D-01 NAtFMM=   80 NAOKFM=F Big=F
 One-electron integrals computed using PRISM.
 NBasis=    67 RedAO= T  NBF=    50    17
 NBsUse=    67 1.00D-06 NBFU=    50    17
 Initial guess read from the read-write file.
 B after Tr=     0.000000    0.000000    0.000000
         Rot=    1.000000    0.000000    0.000000    0.000000 Ang=   0.00 deg.
 Initial guess orbital symmetries:
       Occupied  (A') (A') (A') (A') (A') (A') (A') (A') (A') (A")
                 (A') (A") (A')
       Virtual   (A") (A') (A') (A') (A") (A') (A') (A") (A') (A')
                 (A") (A') (A') (A') (A') (A') (A') (A') (A") (A')
                 (A') (A") (A') (A') (A") (A') (A') (A") (A') (A')
[...]
 Alpha  occ. eigenvalues --   -0.37637  -0.37637  -0.36593
 Alpha virt. eigenvalues --   -0.14025   0.07270   0.09717   0.10183   0.13187
 Alpha virt. eigenvalues --    0.16181   0.18826   0.20370   0.20600   0.21635
 Alpha virt. eigenvalues --    0.22221   0.26199   0.31356   0.33635   0.35161
 Alpha virt. eigenvalues --    0.42813   0.93785   1.03518   1.10292   1.11162
 Alpha virt. eigenvalues --    1.13603   1.17287   1.17391   1.20961   1.21803
 Alpha virt. eigenvalues --    1.22995   1.36284   1.38973   1.50383   1.51071
 Alpha virt. eigenvalues --    1.53298   1.54387   1.56268   1.60573   1.63934
 Alpha virt. eigenvalues --    1.82336   1.87206   1.87656   1.96326   2.01265
 Alpha virt. eigenvalues --    2.31021   2.32913   2.54409   2.60641   2.60871
 Alpha virt. eigenvalues --    2.69102   2.94979   3.06953   3.09936   3.41203
 Alpha virt. eigenvalues --    3.73742   3.79118   4.12691   5.60954
          Condensed to atoms (all electrons):
              1          2          3          4          5
     1  O    7.618076   0.346536  -0.012172   0.008667  -0.000061
     2  O    0.346536   7.653119   0.028343  -0.007419   0.001043
     3  H   -0.012172   0.028343   0.254420   0.299195  -0.017202
     4  O    0.008667  -0.007419   0.299195   8.277548   0.320963
     5  H   -0.000061   0.001043  -0.017202   0.320963   0.261054
 Mulliken atomic charges:
              1
     1  O    0.038955
     2  O   -0.021621
     3  H    0.447415
     4  O   -0.898952
     5  H    0.434203
 Sum of Mulliken atomic charges =   0.00000
 Mulliken charges with hydrogens summed into heavy atoms:
              1
     1  O    0.038955
     2  O   -0.021621
     4  O   -0.017333
 Sum of Mulliken charges with hydrogens summed into heavy atoms =   0.00000
 APT atomic charges:
              1
     1  O    0.039837
     2  O   -0.052935
     3  H    0.613145
     4  O   -1.128192
     5  H    0.528144
 Sum of APT charges=   0.00000
 APT Atomic charges with hydrogens summed into heavy atoms:
              1
     1  O    0.039837
     2  O   -0.052935
     3  H    0.000000
     4  O    0.013097
     5  H    0.000000
 Sum of APT charges=   0.00000
 Electronic spatial extent (au):  <R**2>=            263.6039
 Charge=              0.0000 electrons
 Dipole moment (field-independent basis, Debye):
    X=             -0.3960    Y=             -0.1121    Z=              0.0018  Tot=              0.4115
 Quadrupole moment (field-independent basis, Debye-Ang):
   XX=            -14.0752   YY=            -17.7026   ZZ=            -17.1053
   XY=             -1.6887   XZ=              0.0001   YZ=              0.0014
 Traceless Quadrupole moment (field-independent basis, Debye-Ang):
   XX=              2.2192   YY=             -1.4083   ZZ=             -0.8109
   XY=             -1.6887   XZ=              0.0001   YZ=              0.0014
 Octapole moment (field-independent basis, Debye-Ang**2):
  XXX=             19.2146  YYY=             -0.1024  ZZZ=              0.0009  XYY=             -0.7762
  XXY=             -7.9365  XXZ=              0.0033  XZZ=             -4.1157  YZZ=              0.0407
  YYZ=              0.0004  XYZ=              0.0004
 Hexadecapole moment (field-independent basis, Debye-Ang**3):
 XXXX=           -170.7226 YYYY=            -34.4992 ZZZZ=            -14.2031 XXXY=            -23.2405
 XXXZ=             -0.0111 YYYX=             -0.0100 YYYZ=              0.0019 ZZZX=              0.0002
 ZZZY=              0.0007 XXYY=            -46.5620 XXZZ=            -45.2418 YYZZ=             -7.7930
 XXYZ=              0.0026 YYXZ=             -0.0006 ZZXY=             -0.0329
 N-N= 6.574727382031D+01 E-N=-6.658727654559D+02  KE= 2.247340214517D+02
  Exact polarizability:  17.326   2.047  17.372   0.001   0.000  11.384
 Approx polarizability:  16.806   3.572  22.434  -0.001   0.000  11.985
 Calling FoFJK, ICntrl=    100127 FMM=F ISym2X=0 I1Cent= 0 IOpClX= 0 NMat=1 NMatS=1 NMatT=0.
 Full mass-weighted force constant matrix:
 Low frequencies ----1543.8045-1534.3667   -0.0017   -0.0017   -0.0011   15.1651
 Low frequencies ---   38.5897   55.4353  100.5444
 ******    2 imaginary frequencies (negative Signs) ****** 
 Diagonal vibrational polarizability:
        4.8243459       5.3210738       6.1863943
 Harmonic frequencies (cm**-1), IR intensities (KM/Mole), Raman scattering
 activities (A**4/AMU), depolarization ratios for plane and unpolarized
 incident light, reduced masses (AMU), force constants (mDyne/A),
 and normal coordinates:
                     1                      2                      3
                     A                      A                      A
 Frequencies -- -1543.7996             -1534.3664               100.4182
 Red. masses --     1.1262                 1.1304                 6.8262
 Frc consts  --     1.5815                 1.5679                 0.0406
 IR Inten    --   541.5566               524.0473                 0.1260
  Atom  AN      X      Y      Z        X      Y      Z        X      Y      Z
     1   8     0.00   0.00   0.00     0.00   0.00   0.00     0.46  -0.06   0.00
     2   8     0.00   0.00   0.00     0.00   0.00   0.00    -0.04   0.14   0.00
     3   1     0.00  -0.01   0.70     0.26   0.63   0.01    -0.23   0.29   0.00
     4   8     0.00   0.00  -0.09    -0.04  -0.08   0.00    -0.38  -0.07   0.00
     5   1     0.00  -0.01   0.71     0.28   0.67   0.01    -0.53  -0.44   0.00
                     4                      5                      6
                     A                      A                      A
 Frequencies --   194.4418               320.2710               415.1745
 Red. masses --     8.1520                 1.0459                 1.0960
 Frc consts  --     0.1816                 0.0632                 0.1113
 IR Inten    --     2.6917                 0.2722                 1.0805
  Atom  AN      X      Y      Z        X      Y      Z        X      Y      Z
     1   8    -0.14   0.07   0.00     0.00   0.00  -0.01     0.04   0.01   0.00
     2   8     0.53  -0.21   0.00     0.00   0.00   0.04    -0.03   0.04   0.00
     3   1    -0.49  -0.21   0.00     0.00   0.00  -0.74    -0.29  -0.71   0.00
     4   8    -0.34   0.12   0.00     0.00   0.00  -0.03    -0.01  -0.04   0.00
     5   1    -0.21   0.45   0.00     0.00   0.00   0.67     0.25   0.59   0.00
                     7                      8                      9
                     A                      A                      A
 Frequencies --  1776.0848              3992.9424              4427.3044
 Red. masses --    15.9848                 1.0115                 1.1222
 Frc consts  --    29.7088                 9.5015                12.9599
 IR Inten    --     0.3311               192.3963              1024.6323
  Atom  AN      X      Y      Z        X      Y      Z        X      Y      Z
     1   8     0.27   0.66   0.00     0.00   0.00   0.00     0.00   0.00   0.00
     2   8    -0.27  -0.65   0.00     0.00   0.00   0.00     0.00   0.00   0.00
     3   1    -0.02  -0.02   0.00     0.76  -0.31   0.00    -0.51   0.21   0.00
     4   8     0.00   0.00   0.00    -0.01   0.01   0.00     0.08  -0.03   0.00
     5   1     0.01   0.01   0.00    -0.53   0.22   0.00    -0.76   0.32   0.00

 -------------------
 - Thermochemistry -
 -------------------
 Temperature   298.150 Kelvin.  Pressure   1.00000 Atm.
 Atom     1 has atomic number  8 and mass  15.99491
 Atom     2 has atomic number  8 and mass  15.99491
 Atom     3 has atomic number  1 and mass   1.00783
 Atom     4 has atomic number  8 and mass  15.99491
 Atom     5 has atomic number  1 and mass   1.00783
 Molecular mass:    50.00039 amu.
 Principal axes and moments of inertia in atomic units:
                           1         2         3
     Eigenvalues --    36.20446 386.52369 422.72814
           X            0.99997  -0.00805   0.00001
           Y            0.00805   0.99997   0.00002
           Z           -0.00001  -0.00002   1.00000
 This molecule is an asymmetric top.
 Rotational symmetry number  1.
 Rotational temperatures (Kelvin)      2.39235     0.22408     0.20489
 Rotational constants (GHZ):          49.84859     4.66916     4.26927
    2 imaginary frequencies ignored.
 Zero-point vibrational energy      67150.2 (Joules/Mol)
                                   16.04928 (Kcal/Mol)
 Warning -- explicit consideration of   4 degrees of freedom as
           vibrations may cause significant error
 Vibrational temperatures:    144.48   279.76   460.80   597.34  2555.39
          (Kelvin)           5744.95  6369.90
 
 Zero-point correction=                           0.025576 (Hartree/Particle)
 Thermal correction to Energy=                    0.030404
 Thermal correction to Enthalpy=                  0.031348
 Thermal correction to Gibbs Free Energy=        -0.001341
 Sum of electronic and zero-point Energies=           -226.533458
 Sum of electronic and thermal Energies=              -226.528630
 Sum of electronic and thermal Enthalpies=            -226.527686
 Sum of electronic and thermal Free Energies=         -226.560375
 
                     E (Thermal)             CV                S
                      KCal/Mol        Cal/Mol-Kelvin    Cal/Mol-Kelvin
 Total                   19.079             12.858             68.800
 Electronic               0.000              0.000              0.000
 Translational            0.889              2.981             37.652
 Rotational               0.889              2.981             23.296
 Vibrational             17.301              6.896              7.852
 Vibration     1          0.604              1.949              3.446
 Vibration     2          0.635              1.848              2.185
 Vibration     3          0.706              1.635              1.309
 Vibration     4          0.779              1.437              0.909
                       Q            Log10(Q)             Ln(Q)
 Total Bot       0.413909D+01          0.616904          1.420475
 Total V=0       0.240490D+13         12.381097         28.508529
 Vib (Bot)       0.108179D-10        -10.965857        -25.249819
 Vib (Bot)    1  0.204356D+01          0.310388          0.714695
 Vib (Bot)    2  0.102763D+01          0.011836          0.027252
 Vib (Bot)    3  0.586853D+00         -0.231471         -0.532981
 Vib (Bot)    4  0.424484D+00         -0.372139         -0.856882
 Vib (V=0)       0.628544D+01          0.798335          1.838235
 Vib (V=0)    1  0.260384D+01          0.415615          0.956988
 Vib (V=0)    2  0.164281D+01          0.215588          0.496409
 Vib (V=0)    3  0.127097D+01          0.104136          0.239781
 Vib (V=0)    4  0.115589D+01          0.062915          0.144867
 Electronic      0.100000D+01          0.000000          0.000000
 Translational   0.138968D+08          7.142915         16.447170
 Rotational      0.275325D+05          4.439846         10.223123
 ***** Axes restored to original set *****
 -------------------------------------------------------------------
 Center     Atomic                   Forces (Hartrees/Bohr)
 Number     Number              X              Y              Z
 -------------------------------------------------------------------
      1        8           0.000067255   -0.000015821   -0.000044683
      2        8          -0.000105723   -0.000018437    0.000161129
      3        1           0.000146238    0.000068556   -0.000164916
      4        8          -0.000266994   -0.000126031    0.000269379
      5        1           0.000159224    0.000091733   -0.000220908
 -------------------------------------------------------------------
 Cartesian Forces:  Max     0.000269379 RMS     0.000150518

 GradGradGradGradGradGradGradGradGradGradGradGradGradGradGradGradGradGrad
 Berny optimization.
 Internal  Forces:  Max     0.000128996 RMS     0.000044964
 Search for a saddle point.
 Step number   1 out of a maximum of    2
 All quantities printed in internal units (Hartrees-Bohrs-Radians)
 Swaping is turned off.
 Second derivative matrix not updated -- analytic derivatives used.
 The second derivative matrix:
                          R1        R2        R3        R4        A1
           R1           0.95592
           R2          -0.00130   0.00969
           R3           0.00237   0.01287   0.62837
           R4           0.00054  -0.00018  -0.02348   0.65975
           A1           0.00300   0.00039  -0.00341  -0.00056   0.03264
           A2          -0.00646   0.00136   0.00082  -0.00035  -0.00136
           A3          -0.00080   0.00031   0.00015  -0.00034  -0.00031
           D1          -0.00001   0.00000   0.00000   0.00000   0.00000
           D2           0.00000   0.00000   0.00000   0.00000   0.00000
                          A2        A3        D1        D2
           A2           0.01284
           A3           0.00233  -0.12409
           D1          -0.00001   0.00129   0.00073
           D2          -0.00001  -0.00038   0.00000   0.00000
     Eigenvalues ---   -0.12415   0.00000   0.00074   0.00893   0.01324
     Eigenvalues ---    0.03271   0.61603   0.67236   0.95600
 Eigenvectors required to have negative eigenvalues:
                          A3        A2        D1        D2        R2
   1                    0.99979  -0.01695  -0.01034   0.00308  -0.00211
                          A1        R1        R4        R3
   1                    0.00184   0.00063   0.00042  -0.00013
 Angle between quadratic step and forces=  89.78 degrees.
 Linear search not attempted -- option 19 set.
 Maximum step size (   0.300) exceeded in Quadratic search.
    -- Step size scaled by   0.707
 Iteration  1 RMS(Cart)=  0.00007231 RMS(Int)=  0.08671743
 Iteration  2 RMS(Cart)=  0.00007006 RMS(Int)=  0.07127734
 Iteration  3 RMS(Cart)=  0.00006067 RMS(Int)=  0.05487079
 Iteration  4 RMS(Cart)=  0.00004694 RMS(Int)=  0.04237943
 Iteration  5 RMS(Cart)=  0.00004106 RMS(Int)=  0.03223550
 Iteration  6 RMS(Cart)=  0.00003756 RMS(Int)=  0.02360200
 Iteration  7 RMS(Cart)=  0.00003515 RMS(Int)=  0.01614290
 Iteration  8 RMS(Cart)=  0.00003378 RMS(Int)=  0.00960574
 Iteration  9 RMS(Cart)=  0.00003301 RMS(Int)=  0.00401991
 Iteration 10 RMS(Cart)=  0.00003048 RMS(Int)=  0.00051972
 Iteration 11 RMS(Cart)=  0.00003849 RMS(Int)=  0.00014762
 Iteration 12 RMS(Cart)=  0.00000245 RMS(Int)=  0.00000096
 Iteration 13 RMS(Cart)=  0.00000183 RMS(Int)=  0.00000000
 Iteration 14 RMS(Cart)=  0.00000000 RMS(Int)=  0.00000000
 Variable       Old X    -DE/DX   Delta X   Delta X   Delta X     New X
                                 (Linear)    (Quad)   (Total)
    R1        2.25955  -0.00013   0.00000  -0.00010  -0.00010   2.25946
    R2        3.66655   0.00001   0.00000   0.00109   0.00109   3.66763
    R3        1.78684  -0.00001   0.00000  -0.00003  -0.00003   1.78681
    R4        1.77333   0.00000   0.00000   0.00000   0.00000   1.77333
    A1        1.81766   0.00000   0.00000  -0.00004  -0.00004   1.81762
    A2        2.88825  -0.00001   0.00000  -0.00086  -0.00086   2.88739
    A3        3.14075   0.00003   0.00000   0.00070   0.00070   3.14145
    D1        0.00481   0.00000   0.00000  -0.00184  -0.00184   0.00297
    D2       -1.21044   0.00000   0.00000  -0.29999  -0.29999  -1.51043
         Item               Value     Threshold  Converged?
 Maximum Force            0.000129     0.000450     YES
 RMS     Force            0.000045     0.000300     YES
 Maximum Displacement     0.000902     0.001800     YES
 RMS     Displacement     0.000482     0.001200     YES
 Predicted change in Energy=-1.016717D-07
 Optimization completed.
    -- Stationary point found.
                           ----------------------------
                           !   Optimized Parameters   !
                           ! (Angstroms and Degrees)  !
 --------------------------                            --------------------------
 ! Name  Definition              Value          Derivative Info.                !
 --------------------------------------------------------------------------------
 ! R1    R(1,2)                  1.1957         -DE/DX =   -0.0001              !
 ! R2    R(2,3)                  1.9403         -DE/DX =    0.0                 !
 ! R3    R(3,4)                  0.9456         -DE/DX =    0.0                 !
 ! R4    R(4,5)                  0.9384         -DE/DX =    0.0                 !
 ! A1    A(1,2,3)              104.1441         -DE/DX =    0.0                 !
 ! A2    A(2,3,4)              165.4848         -DE/DX =    0.0                 !
 ! A3    A(3,4,5)              179.9515         -DE/DX =    0.0                 !
 ! D1    D(1,2,3,4)              0.2754         -DE/DX =    0.0                 !
 ! D2    D(2,3,4,5)            -69.3533         -DE/DX =    0.0                 !
 --------------------------------------------------------------------------------
 GradGradGradGradGradGradGradGradGradGradGradGradGradGradGradGradGradGrad

 1|1|UNPC-DESKTOP-319GPER|Freq|RM062X|6-31+G(d,p)|H2O3|SAGAD|09-Feb-202
 1|0||#N Geom=AllCheck Guess=TCheck SCRF=Check GenChk RM062X/6-31+G(d,p
 ) Freq||ts OOH vs OH||0,1|O,-2.3132345604,1.1522060436,0.4665615552|O,
 -1.7092927772,1.3075499405,-0.5536503|H,-0.0838743499,0.277879023,-0.3
 039041967|O,0.6090436695,-0.2722626363,0.0296938089|H,1.296912128,-0.8
 176845208,0.3612991327||Version=IA32W-G09RevA.02|State=1-A|HF=-226.559
 0337|RMSD=2.597e-010|RMSF=1.505e-004|ZeroPoint=0.0255762|Thermal=0.030
 4039|Dipole=-0.1440249,0.0618279,0.0406151|DipoleDeriv=0.0218121,0.015
 075,-0.0215559,-0.0008567,0.0329045,-0.004732,0.0114561,-0.0231637,0.0
 647955,-0.1033456,0.0458176,0.0306459,0.0737665,-0.0341525,-0.0043718,
 -0.0274005,0.0280597,-0.0213055,0.7849283,-0.1734439,0.006756,-0.22311
 84,0.6010882,0.0093983,0.1092759,-0.047913,0.4534176,-1.2463653,0.1359
 285,-0.0285101,0.175353,-1.1295583,0.0065468,-0.1098036,0.0520167,-1.0
 086525,0.5429704,-0.0233772,0.0126641,-0.0251445,0.5297181,-0.0068412,
 0.0164721,-0.0089997,0.5117449|Polar=16.8092938,-1.7344298,12.8123086,
 -2.6920305,-0.9479499,16.4597398|PG=C01 [X(H2O3)]|NImag=2||0.24846846,
 0.05990275,0.01868693,-0.41081429,-0.10685979,0.69697158,-0.24768869,-
 0.06085505,0.41120329,0.25421065,-0.05866878,-0.01934033,0.10556851,0.
 05606149,0.02382302,0.40668223,0.10809279,-0.69533134,-0.40671657,-0.1
 0803800,0.69707549,-0.00132083,0.00191081,-0.00147708,0.00155486,-0.00
 398310,0.00350388,0.31149659,-0.00135673,0.00021028,0.00283191,-0.0012
 9056,-0.00024774,-0.00323411,-0.27659652,0.18262307,0.00527846,-0.0009
 4261,-0.00333216,-0.00207652,-0.00011503,0.00010449,0.16682006,-0.1345
 1689,0.04687005,0.00023865,-0.00066602,0.00103436,-0.00802092,0.005770
 31,-0.00296478,-0.30466333,0.30743725,-0.18758228,0.64145097,0.0000328
 7,0.00050964,-0.00121490,0.00601735,-0.00491551,0.00265589,0.30638940,
 -0.16253868,0.14919150,-0.63781930,0.34448745,-0.00040829,-0.00040759,
 0.00125448,-0.00346766,0.00293548,-0.00232397,-0.18549420,0.14804036,-
 0.00927467,0.38797129,-0.30781355,0.02498872,0.00030241,-0.00029249,0.
 00005372,-0.00005589,0.00082008,-0.00050475,-0.00706729,-0.02819344,0.
 01756028,-0.32900537,0.32537968,-0.19860114,0.33582615,0.00008989,-0.0
 0006652,-0.00032573,0.00006678,0.00068057,0.00052343,-0.02772059,-0.02
 004694,-0.01361697,0.32527776,-0.17754290,0.15724531,-0.29771383,0.196
 97579,-0.00073811,0.00011720,0.00043744,0.00105746,-0.00035095,0.00047
 534,0.01664735,-0.01312127,-0.03436770,-0.19845859,0.15718107,-0.01464
 455,0.18149190,-0.14382605,0.04809947||-0.00006726,0.00001582,0.000044
 68,0.00010572,0.00001844,-0.00016113,-0.00014624,-0.00006856,0.0001649
 2,0.00026699,0.00012603,-0.00026938,-0.00015922,-0.00009173,0.00022091
 |||@


 We find comfort among those who agree with us -- growth among those who don't.
 -- Frank A. Clark
 Job cpu time:  0 days  0 hours  0 minutes 11.0 seconds.
 File lengths (MBytes):  RWF=      6 Int=      0 D2E=      0 Chk=      1 Scr=      1
 Normal termination of Gaussian 09 at Tue Feb 09 16:11:01 2021.
