 Entering Link 1 = C:\G09W\l1.exe PID=     17232.
  
 Copyright (c) 1988,1990,1992,1993,1995,1998,2003,2009, Gaussian, Inc.
                  All Rights Reserved.
  
 This is part of the Gaussian(R) 09 program.  It is based on
 the Gaussian(R) 03 system (copyright 2003, Gaussian, Inc.),
 the Gaussian(R) 98 system (copyright 1998, Gaussian, Inc.),
 the Gaussian(R) 94 system (copyright 1995, Gaussian, Inc.),
 the Gaussian 92(TM) system (copyright 1992, Gaussian, Inc.),
 the Gaussian 90(TM) system (copyright 1990, Gaussian, Inc.),
 the Gaussian 88(TM) system (copyright 1988, Gaussian, Inc.),
 the Gaussian 86(TM) system (copyright 1986, Carnegie Mellon
 University), and the Gaussian 82(TM) system (copyright 1983,
 Carnegie Mellon University). Gaussian is a federally registered
 trademark of Gaussian, Inc.
  
 This software contains proprietary and confidential information,
 including trade secrets, belonging to Gaussian, Inc.
  
 This software is provided under written license and may be
 used, copied, transmitted, or stored only in accord with that
 written license.
  
 The following legend is applicable only to US Government
 contracts under FAR:
  
                    RESTRICTED RIGHTS LEGEND
  
 Use, reproduction and disclosure by the US Government is
 subject to restrictions as set forth in subparagraphs (a)
 and (c) of the Commercial Computer Software - Restricted
 Rights clause in FAR 52.227-19.
  
 Gaussian, Inc.
 340 Quinnipiac St., Bldg. 40, Wallingford CT 06492
  
  
 ---------------------------------------------------------------
 Warning -- This program may not be used in any manner that
 competes with the business of Gaussian, Inc. or will provide
 assistance to any competitor of Gaussian, Inc.  The licensee
 of this program is prohibited from giving any competitor of
 Gaussian, Inc. access to this program.  By using this program,
 the user acknowledges that Gaussian, Inc. is engaged in the
 business of creating and licensing software in the field of
 computational chemistry and represents and warrants to the
 licensee that it is not a competitor of Gaussian, Inc. and that
 it will not use this program in any manner prohibited above.
 ---------------------------------------------------------------
  

 Cite this work as:
 Gaussian 09, Revision A.02,
 M. J. Frisch, G. W. Trucks, H. B. Schlegel, G. E. Scuseria, 
 M. A. Robb, J. R. Cheeseman, G. Scalmani, V. Barone, B. Mennucci, 
 G. A. Petersson, H. Nakatsuji, M. Caricato, X. Li, H. P. Hratchian, 
 A. F. Izmaylov, J. Bloino, G. Zheng, J. L. Sonnenberg, M. Hada, 
 M. Ehara, K. Toyota, R. Fukuda, J. Hasegawa, M. Ishida, T. Nakajima, 
 Y. Honda, O. Kitao, H. Nakai, T. Vreven, J. A. Montgomery, Jr., 
 J. E. Peralta, F. Ogliaro, M. Bearpark, J. J. Heyd, E. Brothers, 
 K. N. Kudin, V. N. Staroverov, R. Kobayashi, J. Normand, 
 K. Raghavachari, A. Rendell, J. C. Burant, S. S. Iyengar, J. Tomasi, 
 M. Cossi, N. Rega, J. M. Millam, M. Klene, J. E. Knox, J. B. Cross, 
 V. Bakken, C. Adamo, J. Jaramillo, R. Gomperts, R. E. Stratmann, 
 O. Yazyev, A. J. Austin, R. Cammi, C. Pomelli, J. W. Ochterski, 
 R. L. Martin, K. Morokuma, V. G. Zakrzewski, G. A. Voth, 
 P. Salvador, J. J. Dannenberg, S. Dapprich, A. D. Daniels, 
 O. Farkas, J. B. Foresman, J. V. Ortiz, J. Cioslowski, 
 and D. J. Fox, Gaussian, Inc., Wallingford CT, 2009.
 
 ******************************************
 Gaussian 09:  IA32W-G09RevA.02 11-Jun-2009
                08-Oct-2020 
 ******************************************
 %chk=C:\Users\sagad\Documents\rayGit\FQ\quimicaComputacional\class4Metilo\reacti
 vos\hidroxilRadicalB3LYP.chk
 %nprocshared=4
 Will use up to    4 processors via shared memory.
 %mem=1500MB
 ---------------------------
 #opt freq B3LYP/6-31+g(d,p)
 ---------------------------
 1/14=-1,18=20,19=15,26=3,38=1/1,3;
 2/9=110,12=2,17=6,18=5,40=1/2;
 3/5=1,6=6,7=111,11=2,16=1,25=1,30=1,71=1,74=-5/1,2,3;
 4//1;
 5/5=2,38=5/2;
 6/7=2,8=2,9=2,10=2,28=1/1;
 7//1,2,3,16;
 1/14=-1,18=20,19=15/3(2);
 2/9=110/2;
 99//99;
 2/9=110/2;
 3/5=1,6=6,7=111,11=2,16=1,25=1,30=1,71=1,74=-5/1,2,3;
 4/5=5,16=3/1;
 5/5=2,38=5/2;
 7//1,2,3,16;
 1/14=-1,18=20,19=15/3(-5);
 2/9=110/2;
 6/7=2,8=2,9=2,10=2,19=2,28=1/1;
 99/9=1/99;
 ------------------------------------------
 Calculation of hidrixil radical with B3LYP
 ------------------------------------------
 Symbolic Z-matrix:
 Charge =  0 Multiplicity = 2
 O                     0.86331   0.41353   0. 
 H                     1.82331   0.41353   0. 
 

 GradGradGradGradGradGradGradGradGradGradGradGradGradGradGradGradGradGrad
 Berny optimization.
 Initialization pass.
                           ----------------------------
                           !    Initial Parameters    !
                           ! (Angstroms and Degrees)  !
 --------------------------                            --------------------------
 ! Name  Definition              Value          Derivative Info.                !
 --------------------------------------------------------------------------------
 ! R1    R(1,2)                  0.96           estimate D2E/DX2                !
 --------------------------------------------------------------------------------
 Trust Radius=3.00D-01 FncErr=1.00D-07 GrdErr=1.00D-06
 Number of steps in this run=  20 maximum allowed number of steps= 100.
 GradGradGradGradGradGradGradGradGradGradGradGradGradGradGradGradGradGrad

                          Input orientation:                          
 ---------------------------------------------------------------------
 Center     Atomic      Atomic             Coordinates (Angstroms)
 Number     Number       Type             X           Y           Z
 ---------------------------------------------------------------------
      1          8           0        0.863308    0.413534    0.000000
      2          1           0        1.823308    0.413534    0.000000
 ---------------------------------------------------------------------
 Stoichiometry    HO(2)
 Framework group  C*V[C*(HO)]
 Deg. of freedom     1
 Full point group                 C*V     NOp   4
 Largest Abelian subgroup         C2V     NOp   4
 Largest concise Abelian subgroup C1      NOp   1
                         Standard orientation:                         
 ---------------------------------------------------------------------
 Center     Atomic      Atomic             Coordinates (Angstroms)
 Number     Number       Type             X           Y           Z
 ---------------------------------------------------------------------
      1          8           0        0.000000    0.000000    0.106667
      2          1           0        0.000000    0.000000   -0.853333
 ---------------------------------------------------------------------
 Rotational constants (GHZ):      0.0000000    578.3977110    578.3977110
 Standard basis: 6-31+G(d,p) (6D, 7F)
 There are    13 symmetry adapted basis functions of A1  symmetry.
 There are     1 symmetry adapted basis functions of A2  symmetry.
 There are     5 symmetry adapted basis functions of B1  symmetry.
 There are     5 symmetry adapted basis functions of B2  symmetry.
 Integral buffers will be    262144 words long.
 Raffenetti 2 integral format.
 Two-electron integral symmetry is turned on.
    24 basis functions,    39 primitive gaussians,    24 cartesian basis functions
     5 alpha electrons        4 beta electrons
       nuclear repulsion energy         4.4098100716 Hartrees.
 NAtoms=    2 NActive=    2 NUniq=    2 SFac= 7.50D-01 NAtFMM=   80 NAOKFM=F Big=F
 One-electron integrals computed using PRISM.
 NBasis=    24 RedAO= T  NBF=    13     1     5     5
 NBsUse=    24 1.00D-06 NBFU=    13     1     5     5
 Harris functional with IExCor=  402 diagonalized for initial guess.
 ExpMin= 8.45D-02 ExpMax= 5.48D+03 ExpMxC= 8.25D+02 IAcc=2 IRadAn=         0 AccDes= 0.00D+00
 HarFok:  IExCor=  402 AccDes= 0.00D+00 IRadAn=         0 IDoV= 1
 ScaDFX=  1.000000  1.000000  1.000000  1.000000
 FoFCou: FMM=F IPFlag=           0 FMFlag=      100000 FMFlg1=           0
         NFxFlg=           0 DoJE=T BraDBF=F KetDBF=T FulRan=T
         Omega=  0.000000  0.000000  1.000000  0.000000  0.000000 ICntrl=     500 IOpCl=  0
         NMat0=    1 NMatS0=    1 NMatT0=    0 NMatD0=    1 NMtDS0=    0 NMtDT0=    0
         I1Cent=           4 NGrid=           0.
 Petite list used in FoFCou.
 Initial guess orbital symmetries:
 Alpha Orbitals:
       Occupied  (SG) (SG) (SG) (PI) (PI)
       Virtual   (SG) (SG) (PI) (PI) (SG) (SG) (PI) (PI) (SG) (SG)
                 (PI) (PI) (DLTA) (DLTA) (SG) (PI) (PI) (SG) (SG)
 Beta  Orbitals:
       Occupied  (SG) (SG) (SG) (PI)
       Virtual   (PI) (SG) (SG) (PI) (PI) (SG) (SG) (PI) (PI) (SG)
                 (SG) (PI) (PI) (DLTA) (DLTA) (SG) (PI) (PI) (SG)
                 (SG)
 Initial guess <Sx>= 0.0000 <Sy>= 0.0000 <Sz>= 0.5000 <S**2>= 0.7500 S= 0.5000
 Requested convergence on RMS density matrix=1.00D-08 within 128 cycles.
 Requested convergence on MAX density matrix=1.00D-06.
 Requested convergence on             energy=1.00D-06.
 No special actions if energy rises.
 Keep R1 and R2 ints in memory in canonical form, NReq=981973.
 Integral accuracy reduced to 1.0D-05 until final iterations.
 Initial convergence to 1.0D-05 achieved.  Increase integral accuracy.
 SCF Done:  E(UB3LYP) =  -75.7386550507     A.U. after   11 cycles
             Convg  =    0.7852D-08             -V/T =  2.0086
 <Sx>= 0.0000 <Sy>= 0.0000 <Sz>= 0.5000 <S**2>= 0.7523 S= 0.5011
 <L.S>= 0.000000000000E+00
 Annihilation of the first spin contaminant:
 S**2 before annihilation     0.7523,   after     0.7500

 **********************************************************************

            Population analysis using the SCF density.

 **********************************************************************

 Orbital symmetries:
 Alpha Orbitals:
       Occupied  (SG) (SG) (SG) (PI) (PI)
       Virtual   (SG) (PI) (SG) (PI) (SG) (SG) (PI) (PI) (SG) (SG)
                 (PI) (PI) (?A) (?A) (?A) (PI) (PI) (SG) (SG)
 Beta  Orbitals:
       Occupied  (SG) (SG) (SG) (?A)
       Virtual   (?A) (SG) (SG) (?A) (?A) (SG) (SG) (PI) (SG) (PI)
                 (SG) (PI) (PI) (DLTA) (DLTA) (SG) (PI) (PI) (SG)
                 (SG)
 Unable to determine electronic state:  an orbital has unidentified symmetry.
 Alpha  occ. eigenvalues --  -19.24247  -1.03633  -0.49120  -0.42859  -0.35639
 Alpha virt. eigenvalues --    0.03567   0.14260   0.14531   0.15198   0.21695
 Alpha virt. eigenvalues --    0.91821   1.04678   1.09078   1.11499   1.17533
 Alpha virt. eigenvalues --    1.50496   1.54065   1.73023   1.73053   2.36459
 Alpha virt. eigenvalues --    2.59906   2.62439   3.33280   3.77262
  Beta  occ. eigenvalues --  -19.21746  -0.96595  -0.46437  -0.32910
  Beta virt. eigenvalues --   -0.18641   0.04357   0.14934   0.15502   0.16814
  Beta virt. eigenvalues --    0.22126   0.92798   1.10569   1.12786   1.13547
  Beta virt. eigenvalues --    1.19897   1.54549   1.55074   1.79301   1.80028
  Beta virt. eigenvalues --    2.38482   2.62537   2.62549   3.35084   3.80317
          Condensed to atoms (all electrons):
              1          2
     1  O    8.123651   0.219523
     2  H    0.219523   0.437304
 Mulliken atomic charges:
              1
     1  O   -0.343174
     2  H    0.343174
 Sum of Mulliken atomic charges =   0.00000
 Mulliken charges with hydrogens summed into heavy atoms:
              1
     1  O    0.000000
 Sum of Mulliken charges with hydrogens summed into heavy atoms =   0.00000
          Atomic-Atomic Spin Densities.
              1          2
     1  O    1.023062   0.003515
     2  H    0.003515  -0.030092
 Mulliken atomic spin densities:
              1
     1  O    1.026577
     2  H   -0.026577
 Sum of Mulliken atomic spin densities =   1.00000
 Electronic spatial extent (au):  <R**2>=             15.7757
 Charge=              0.0000 electrons
 Dipole moment (field-independent basis, Debye):
    X=              0.0000    Y=              0.0000    Z=             -1.8475  Tot=              1.8475
 Quadrupole moment (field-independent basis, Debye-Ang):
   XX=             -6.9595   YY=             -5.5654   ZZ=             -4.7592
   XY=              0.0000   XZ=              0.0000   YZ=              0.0000
 Traceless Quadrupole moment (field-independent basis, Debye-Ang):
   XX=             -1.1981   YY=              0.1959   ZZ=              1.0022
   XY=              0.0000   XZ=              0.0000   YZ=              0.0000
 Octapole moment (field-independent basis, Debye-Ang**2):
  XXX=              0.0000  YYY=              0.0000  ZZZ=             -2.0768  XYY=              0.0000
  XXY=              0.0000  XXZ=             -0.4045  XZZ=              0.0000  YZZ=              0.0000
  YYZ=             -0.2780  XYZ=              0.0000
 Hexadecapole moment (field-independent basis, Debye-Ang**3):
 XXXX=             -6.7090 YYYY=             -4.2269 ZZZZ=             -5.9233 XXXY=              0.0000
 XXXZ=              0.0000 YYYX=              0.0000 YYYZ=              0.0000 ZZZX=              0.0000
 ZZZY=              0.0000 XXYY=             -1.8226 XXZZ=             -2.3315 YYZZ=             -1.9003
 XXYZ=              0.0000 YYXZ=              0.0000 ZZXY=              0.0000
 N-N= 4.409810071583D+00 E-N=-2.766840177492D+02  KE= 1.112799249442D+02
 Symmetry A1   KE= 1.018046302112D+02
 Symmetry A2   KE= 2.852819105816D-35
 Symmetry B1   KE= 6.975049318601D+00
 Symmetry B2   KE= 2.500245414438D+00
                          Isotropic Fermi Contact Couplings
        Atom                 a.u.       MegaHertz       Gauss      10(-4) cm-1
     1  O(17)              0.11186     -67.81194     -24.19698     -22.61963
     2  H(1)              -0.01476     -65.97655     -23.54207     -22.00741
 --------------------------------------------------------
       Center         ----  Spin Dipole Couplings  ----
                      3XX-RR        3YY-RR        3ZZ-RR
 --------------------------------------------------------
     1   Atom       -1.797553      3.586539     -1.788985
     2   Atom       -0.136566     -0.038293      0.174859
 --------------------------------------------------------
                        XY            XZ            YZ
 --------------------------------------------------------
     1   Atom        0.000000      0.000000      0.000000
     2   Atom        0.000000      0.000000      0.000000
 --------------------------------------------------------


 ---------------------------------------------------------------------------------
              Anisotropic Spin Dipole Couplings in Principal Axis System
 ---------------------------------------------------------------------------------

       Atom             a.u.   MegaHertz   Gauss  10(-4) cm-1        Axes

              Baa    -1.7976   130.070    46.412    43.387  1.0000  0.0000  0.0000
     1 O(17)  Bbb    -1.7890   129.450    46.191    43.180  0.0000  0.0000  1.0000
              Bcc     3.5865  -259.519   -92.603   -86.566  0.0000  1.0000  0.0000
 
              Baa    -0.1366   -72.865   -26.000   -24.305  1.0000  0.0000  0.0000
     2 H(1)   Bbb    -0.0383   -20.431    -7.290    -6.815  0.0000  1.0000  0.0000
              Bcc     0.1749    93.297    33.291    31.120  0.0000  0.0000  1.0000
 

 ---------------------------------------------------------------------------------

 Calling FoFJK, ICntrl=      2127 FMM=F ISym2X=1 I1Cent= 0 IOpClX= 1 NMat=1 NMatS=1 NMatT=0.
 ***** Axes restored to original set *****
 -------------------------------------------------------------------
 Center     Atomic                   Forces (Hartrees/Bohr)
 Number     Number              X              Y              Z
 -------------------------------------------------------------------
      1        8          -0.019694081    0.000000000    0.000000000
      2        1           0.019694081    0.000000000    0.000000000
 -------------------------------------------------------------------
 Cartesian Forces:  Max     0.019694081 RMS     0.011370383

 GradGradGradGradGradGradGradGradGradGradGradGradGradGradGradGradGradGrad
 Berny optimization.
 Internal  Forces:  Max     0.019694081 RMS     0.019694081
 Search for a local minimum.
 Step number   1 out of a maximum of   20
 All quantities printed in internal units (Hartrees-Bohrs-Radians)
 Mixed Optimization -- RFO/linear search
 Second derivative matrix not updated -- first step.
 The second derivative matrix:
                          R1
           R1           0.55473
     Eigenvalues ---    0.55473
 RFO step:  Lambda=-6.98297160D-04 EMin= 5.54734036D-01
 Linear search not attempted -- first point.
 Iteration  1 RMS(Cart)=  0.02507203 RMS(Int)=  0.00000000
 Iteration  2 RMS(Cart)=  0.00000000 RMS(Int)=  0.00000000
 ClnCor:  largest displacement from symmetrization is 0.00D+00 for atom     0.
 Variable       Old X    -DE/DX   Delta X   Delta X   Delta X     New X
                                 (Linear)    (Quad)   (Total)
    R1        1.81414   0.01969   0.00000   0.03546   0.03546   1.84959
         Item               Value     Threshold  Converged?
 Maximum Force            0.019694     0.000450     NO 
 RMS     Force            0.019694     0.000300     NO 
 Maximum Displacement     0.017729     0.001800     NO 
 RMS     Displacement     0.025072     0.001200     NO 
 Predicted change in Energy=-3.495875D-04
 GradGradGradGradGradGradGradGradGradGradGradGradGradGradGradGradGradGrad

                          Input orientation:                          
 ---------------------------------------------------------------------
 Center     Atomic      Atomic             Coordinates (Angstroms)
 Number     Number       Type             X           Y           Z
 ---------------------------------------------------------------------
      1          8           0        0.853927    0.413534    0.000000
      2          1           0        1.832690    0.413534    0.000000
 ---------------------------------------------------------------------
 Stoichiometry    HO(2)
 Framework group  C*V[C*(HO)]
 Deg. of freedom     1
 Full point group                 C*V     NOp   4
 Largest Abelian subgroup         C2V     NOp   4
 Largest concise Abelian subgroup C1      NOp   1
                         Standard orientation:                         
 ---------------------------------------------------------------------
 Center     Atomic      Atomic             Coordinates (Angstroms)
 Number     Number       Type             X           Y           Z
 ---------------------------------------------------------------------
      1          8           0        0.000000    0.000000    0.108751
      2          1           0        0.000000    0.000000   -0.870012
 ---------------------------------------------------------------------
 Rotational constants (GHZ):      0.0000000    556.4341986    556.4341986
 Standard basis: 6-31+G(d,p) (6D, 7F)
 There are    13 symmetry adapted basis functions of A1  symmetry.
 There are     1 symmetry adapted basis functions of A2  symmetry.
 There are     5 symmetry adapted basis functions of B1  symmetry.
 There are     5 symmetry adapted basis functions of B2  symmetry.
 Integral buffers will be    262144 words long.
 Raffenetti 2 integral format.
 Two-electron integral symmetry is turned on.
    24 basis functions,    39 primitive gaussians,    24 cartesian basis functions
     5 alpha electrons        4 beta electrons
       nuclear repulsion energy         4.3252728508 Hartrees.
 NAtoms=    2 NActive=    2 NUniq=    2 SFac= 7.50D-01 NAtFMM=   80 NAOKFM=F Big=F
 One-electron integrals computed using PRISM.
 NBasis=    24 RedAO= T  NBF=    13     1     5     5
 NBsUse=    24 1.00D-06 NBFU=    13     1     5     5
 Initial guess read from the read-write file.
 B after Tr=     0.000000    0.000000    0.000000
         Rot=    1.000000    0.000000    0.000000    0.000000 Ang=   0.00 deg.
 Initial guess orbital symmetries:
 Alpha Orbitals:
       Occupied  (SG) (SG) (SG) (PI) (PI)
       Virtual   (SG) (PI) (SG) (PI) (SG) (SG) (PI) (PI) (SG) (SG)
                 (PI) (PI) (?A) (?A) (?A) (PI) (PI) (SG) (SG)
 Beta  Orbitals:
       Occupied  (SG) (SG) (SG) (?A)
       Virtual   (?A) (SG) (SG) (?A) (?A) (SG) (SG) (PI) (SG) (PI)
                 (SG) (PI) (PI) (DLTA) (DLTA) (SG) (PI) (PI) (SG)
                 (SG)
 Initial guess <Sx>= 0.0000 <Sy>= 0.0000 <Sz>= 0.5000 <S**2>= 0.7523 S= 0.5012
 Requested convergence on RMS density matrix=1.00D-08 within 128 cycles.
 Requested convergence on MAX density matrix=1.00D-06.
 Requested convergence on             energy=1.00D-06.
 No special actions if energy rises.
 Keep R1 and R2 ints in memory in canonical form, NReq=981973.
 SCF Done:  E(UB3LYP) =  -75.7390136766     A.U. after    8 cycles
             Convg  =    0.3732D-08             -V/T =  2.0090
 <Sx>= 0.0000 <Sy>= 0.0000 <Sz>= 0.5000 <S**2>= 0.7524 S= 0.5012
 <L.S>= 0.000000000000E+00
 Annihilation of the first spin contaminant:
 S**2 before annihilation     0.7524,   after     0.7500
 Calling FoFJK, ICntrl=      2127 FMM=F ISym2X=1 I1Cent= 0 IOpClX= 1 NMat=1 NMatS=1 NMatT=0.
 ***** Axes restored to original set *****
 -------------------------------------------------------------------
 Center     Atomic                   Forces (Hartrees/Bohr)
 Number     Number              X              Y              Z
 -------------------------------------------------------------------
      1        8          -0.000936609    0.000000000    0.000000000
      2        1           0.000936609    0.000000000    0.000000000
 -------------------------------------------------------------------
 Cartesian Forces:  Max     0.000936609 RMS     0.000540751

 GradGradGradGradGradGradGradGradGradGradGradGradGradGradGradGradGradGrad
 Berny optimization.
 Using GEDIIS/GDIIS optimizer.
 Internal  Forces:  Max     0.000936609 RMS     0.000936609
 Search for a local minimum.
 Step number   2 out of a maximum of   20
 All quantities printed in internal units (Hartrees-Bohrs-Radians)
 Mixed Optimization -- En-DIIS/RFO-DIIS
 Update second derivatives using D2CorX and points    1    2
 DE= -3.59D-04 DEPred=-3.50D-04 R= 1.03D+00
 SS=  1.41D+00  RLast= 3.55D-02 DXNew= 5.0454D-01 1.0637D-01
 Trust test= 1.03D+00 RLast= 3.55D-02 DXMaxT set to 3.00D-01
 The second derivative matrix:
                          R1
           R1           0.52902
 Use linear search instead of GDIIS.
     Eigenvalues ---    0.52902
 RFO step:  Lambda= 0.00000000D+00 EMin= 5.29017149D-01
 Quartic linear search produced a step of  0.05351.
 Iteration  1 RMS(Cart)=  0.00134172 RMS(Int)=  0.00000000
 Iteration  2 RMS(Cart)=  0.00000000 RMS(Int)=  0.00000000
 ClnCor:  largest displacement from symmetrization is 0.00D+00 for atom     0.
 Variable       Old X    -DE/DX   Delta X   Delta X   Delta X     New X
                                 (Linear)    (Quad)   (Total)
    R1        1.84959   0.00094   0.00190   0.00000   0.00190   1.85149
         Item               Value     Threshold  Converged?
 Maximum Force            0.000937     0.000450     NO 
 RMS     Force            0.000937     0.000300     NO 
 Maximum Displacement     0.000949     0.001800     YES
 RMS     Displacement     0.001342     0.001200     NO 
 Predicted change in Energy=-8.248517D-07
 GradGradGradGradGradGradGradGradGradGradGradGradGradGradGradGradGradGrad

                          Input orientation:                          
 ---------------------------------------------------------------------
 Center     Atomic      Atomic             Coordinates (Angstroms)
 Number     Number       Type             X           Y           Z
 ---------------------------------------------------------------------
      1          8           0        0.853425    0.413534    0.000000
      2          1           0        1.833192    0.413534    0.000000
 ---------------------------------------------------------------------
 Stoichiometry    HO(2)
 Framework group  C*V[C*(HO)]
 Deg. of freedom     1
 Full point group                 C*V     NOp   4
 Largest Abelian subgroup         C2V     NOp   4
 Largest concise Abelian subgroup C1      NOp   1
                         Standard orientation:                         
 ---------------------------------------------------------------------
 Center     Atomic      Atomic             Coordinates (Angstroms)
 Number     Number       Type             X           Y           Z
 ---------------------------------------------------------------------
      1          8           0        0.000000    0.000000    0.108863
      2          1           0        0.000000    0.000000   -0.870904
 ---------------------------------------------------------------------
 Rotational constants (GHZ):      0.0000000    555.2942727    555.2942727
 Standard basis: 6-31+G(d,p) (6D, 7F)
 There are    13 symmetry adapted basis functions of A1  symmetry.
 There are     1 symmetry adapted basis functions of A2  symmetry.
 There are     5 symmetry adapted basis functions of B1  symmetry.
 There are     5 symmetry adapted basis functions of B2  symmetry.
 Integral buffers will be    262144 words long.
 Raffenetti 2 integral format.
 Two-electron integral symmetry is turned on.
    24 basis functions,    39 primitive gaussians,    24 cartesian basis functions
     5 alpha electrons        4 beta electrons
       nuclear repulsion energy         4.3208401447 Hartrees.
 NAtoms=    2 NActive=    2 NUniq=    2 SFac= 7.50D-01 NAtFMM=   80 NAOKFM=F Big=F
 One-electron integrals computed using PRISM.
 NBasis=    24 RedAO= T  NBF=    13     1     5     5
 NBsUse=    24 1.00D-06 NBFU=    13     1     5     5
 Initial guess read from the read-write file.
 B after Tr=     0.000000    0.000000    0.000000
         Rot=    1.000000    0.000000    0.000000    0.000000 Ang=   0.00 deg.
 Initial guess orbital symmetries:
 Alpha Orbitals:
       Occupied  (SG) (SG) (SG) (PI) (PI)
       Virtual   (SG) (PI) (SG) (PI) (SG) (SG) (PI) (PI) (SG) (SG)
                 (PI) (PI) (?A) (?A) (?A) (PI) (PI) (SG) (SG)
 Beta  Orbitals:
       Occupied  (SG) (SG) (SG) (?A)
       Virtual   (?A) (SG) (SG) (?A) (?A) (SG) (SG) (PI) (SG) (PI)
                 (SG) (PI) (PI) (DLTA) (DLTA) (SG) (PI) (PI) (SG)
                 (SG)
 Initial guess <Sx>= 0.0000 <Sy>= 0.0000 <Sz>= 0.5000 <S**2>= 0.7524 S= 0.5012
 Requested convergence on RMS density matrix=1.00D-08 within 128 cycles.
 Requested convergence on MAX density matrix=1.00D-06.
 Requested convergence on             energy=1.00D-06.
 No special actions if energy rises.
 Keep R1 and R2 ints in memory in canonical form, NReq=981973.
 SCF Done:  E(UB3LYP) =  -75.7390145636     A.U. after    7 cycles
             Convg  =    0.4192D-08             -V/T =  2.0090
 <Sx>= 0.0000 <Sy>= 0.0000 <Sz>= 0.5000 <S**2>= 0.7524 S= 0.5012
 <L.S>= 0.000000000000E+00
 Annihilation of the first spin contaminant:
 S**2 before annihilation     0.7524,   after     0.7500
 Calling FoFJK, ICntrl=      2127 FMM=F ISym2X=1 I1Cent= 0 IOpClX= 1 NMat=1 NMatS=1 NMatT=0.
 ***** Axes restored to original set *****
 -------------------------------------------------------------------
 Center     Atomic                   Forces (Hartrees/Bohr)
 Number     Number              X              Y              Z
 -------------------------------------------------------------------
      1        8           0.000000601    0.000000000    0.000000000
      2        1          -0.000000601    0.000000000    0.000000000
 -------------------------------------------------------------------
 Cartesian Forces:  Max     0.000000601 RMS     0.000000347

 GradGradGradGradGradGradGradGradGradGradGradGradGradGradGradGradGradGrad
 Berny optimization.
 Using GEDIIS/GDIIS optimizer.
 Internal  Forces:  Max     0.000000601 RMS     0.000000601
 Search for a local minimum.
 Step number   3 out of a maximum of   20
 All quantities printed in internal units (Hartrees-Bohrs-Radians)
 Mixed Optimization -- En-DIIS/RFO-DIIS
 Swaping is turned off.
 Update second derivatives using D2CorX and points    2    3
 DE= -8.87D-07 DEPred=-8.25D-07 R= 1.08D+00
 Trust test= 1.08D+00 RLast= 1.90D-03 DXMaxT set to 3.00D-01
 The second derivative matrix:
                          R1
           R1           0.49392
     Eigenvalues ---    0.49392
 En-DIIS/RFO-DIIS IScMMF=        0 using points:     3    2
 RFO step:  Lambda=-5.14421838D-13.
 Iteration  1 RMS(Cart)=  0.00000086 RMS(Int)=  0.00000000
 ClnCor:  largest displacement from symmetrization is 0.00D+00 for atom     0.
 Variable       Old X    -DE/DX   Delta X   Delta X   Delta X     New X
                                  (DIIS)     (GDIIS)  (Total)
    R1        1.85149   0.00000   0.00000   0.00000   0.00000   1.85149
         Item               Value     Threshold  Converged?
 Maximum Force            0.000001     0.000450     YES
 RMS     Force            0.000001     0.000300     YES
 Maximum Displacement     0.000001     0.001800     YES
 RMS     Displacement     0.000001     0.001200     YES
 Predicted change in Energy=-3.659794D-13
 Optimization completed.
    -- Stationary point found.
                           ----------------------------
                           !   Optimized Parameters   !
                           ! (Angstroms and Degrees)  !
 --------------------------                            --------------------------
 ! Name  Definition              Value          Derivative Info.                !
 --------------------------------------------------------------------------------
 ! R1    R(1,2)                  0.9798         -DE/DX =    0.0                 !
 --------------------------------------------------------------------------------
 GradGradGradGradGradGradGradGradGradGradGradGradGradGradGradGradGradGrad

                          Input orientation:                          
 ---------------------------------------------------------------------
 Center     Atomic      Atomic             Coordinates (Angstroms)
 Number     Number       Type             X           Y           Z
 ---------------------------------------------------------------------
      1          8           0        0.853425    0.413534    0.000000
      2          1           0        1.833192    0.413534    0.000000
 ---------------------------------------------------------------------
 Stoichiometry    HO(2)
 Framework group  C*V[C*(HO)]
 Deg. of freedom     1
 Full point group                 C*V     NOp   4
 Largest Abelian subgroup         C2V     NOp   4
 Largest concise Abelian subgroup C1      NOp   1
                         Standard orientation:                         
 ---------------------------------------------------------------------
 Center     Atomic      Atomic             Coordinates (Angstroms)
 Number     Number       Type             X           Y           Z
 ---------------------------------------------------------------------
      1          8           0        0.000000    0.000000    0.108863
      2          1           0        0.000000    0.000000   -0.870904
 ---------------------------------------------------------------------
 Rotational constants (GHZ):      0.0000000    555.2942727    555.2942727

 **********************************************************************

            Population analysis using the SCF density.

 **********************************************************************

 Orbital symmetries:
 Alpha Orbitals:
       Occupied  (SG) (SG) (SG) (PI) (PI)
       Virtual   (SG) (PI) (SG) (PI) (SG) (SG) (PI) (PI) (SG) (SG)
                 (PI) (PI) (?A) (?A) (?A) (PI) (PI) (SG) (SG)
 Beta  Orbitals:
       Occupied  (SG) (SG) (SG) (?A)
       Virtual   (?A) (SG) (SG) (?A) (?A) (SG) (SG) (PI) (SG) (PI)
                 (SG) (PI) (PI) (DLTA) (DLTA) (SG) (PI) (PI) (SG)
                 (SG)
 Unable to determine electronic state:  an orbital has unidentified symmetry.
 Alpha  occ. eigenvalues --  -19.24377  -1.03076  -0.48829  -0.42771  -0.35549
 Alpha virt. eigenvalues --    0.03260   0.14260   0.14488   0.15202   0.21085
 Alpha virt. eigenvalues --    0.90258   1.04671   1.09067   1.12148   1.17677
 Alpha virt. eigenvalues --    1.50426   1.53962   1.73121   1.73146   2.32871
 Alpha virt. eigenvalues --    2.57584   2.60086   3.30394   3.76440
  Beta  occ. eigenvalues --  -19.21871  -0.95988  -0.46188  -0.32817
  Beta virt. eigenvalues --   -0.18549   0.04076   0.14908   0.15507   0.16822
  Beta virt. eigenvalues --    0.21483   0.91192   1.10555   1.13448   1.13533
  Beta virt. eigenvalues --    1.20027   1.54434   1.54958   1.79399   1.80127
  Beta virt. eigenvalues --    2.34850   2.60174   2.60176   3.32095   3.79621
          Condensed to atoms (all electrons):
              1          2
     1  O    8.125268   0.217115
     2  H    0.217115   0.440501
 Mulliken atomic charges:
              1
     1  O   -0.342384
     2  H    0.342384
 Sum of Mulliken atomic charges =   0.00000
 Mulliken charges with hydrogens summed into heavy atoms:
              1
     1  O    0.000000
 Sum of Mulliken charges with hydrogens summed into heavy atoms =   0.00000
          Atomic-Atomic Spin Densities.
              1          2
     1  O    1.024461   0.003478
     2  H    0.003478  -0.031416
 Mulliken atomic spin densities:
              1
     1  O    1.027938
     2  H   -0.027938
 Sum of Mulliken atomic spin densities =   1.00000
 Electronic spatial extent (au):  <R**2>=             15.9041
 Charge=              0.0000 electrons
 Dipole moment (field-independent basis, Debye):
    X=              0.0000    Y=              0.0000    Z=             -1.8576  Tot=              1.8576
 Quadrupole moment (field-independent basis, Debye-Ang):
   XX=             -6.9816   YY=             -5.5853   ZZ=             -4.7262
   XY=              0.0000   XZ=              0.0000   YZ=              0.0000
 Traceless Quadrupole moment (field-independent basis, Debye-Ang):
   XX=             -1.2173   YY=              0.1791   ZZ=              1.0382
   XY=              0.0000   XZ=              0.0000   YZ=              0.0000
 Octapole moment (field-independent basis, Debye-Ang**2):
  XXX=              0.0000  YYY=              0.0000  ZZZ=             -2.1195  XYY=              0.0000
  XXY=              0.0000  XXZ=             -0.3944  XZZ=              0.0000  YZZ=              0.0000
  YYZ=             -0.2641  XYZ=              0.0000
 Hexadecapole moment (field-independent basis, Debye-Ang**3):
 XXXX=             -6.7435 YYYY=             -4.2514 ZZZZ=             -5.9990 XXXY=              0.0000
 XXXZ=              0.0000 YYYX=              0.0000 YYYZ=              0.0000 ZZZX=              0.0000
 ZZZY=              0.0000 XXYY=             -1.8324 XXZZ=             -2.3679 YYZZ=             -1.9345
 XXYZ=              0.0000 YYXZ=              0.0000 ZZXY=              0.0000
 N-N= 4.320840144665D+00 E-N=-2.763990240283D+02  KE= 1.112261695043D+02
 Symmetry A1   KE= 1.017493246799D+02
 Symmetry A2   KE= 2.860184246368D-35
 Symmetry B1   KE= 6.975833236666D+00
 Symmetry B2   KE= 2.501011587759D+00
                          Isotropic Fermi Contact Couplings
        Atom                 a.u.       MegaHertz       Gauss      10(-4) cm-1
     1  O(17)              0.11105     -67.31837     -24.02087     -22.45499
     2  H(1)              -0.01504     -67.24022     -23.99298     -22.42892
 --------------------------------------------------------
       Center         ----  Spin Dipole Couplings  ----
                      3XX-RR        3YY-RR        3ZZ-RR
 --------------------------------------------------------
     1   Atom       -1.800954      3.585757     -1.784803
     2   Atom       -0.130187     -0.039297      0.169483
 --------------------------------------------------------
                        XY            XZ            YZ
 --------------------------------------------------------
     1   Atom        0.000000      0.000000      0.000000
     2   Atom        0.000000      0.000000      0.000000
 --------------------------------------------------------


 ---------------------------------------------------------------------------------
              Anisotropic Spin Dipole Couplings in Principal Axis System
 ---------------------------------------------------------------------------------

       Atom             a.u.   MegaHertz   Gauss  10(-4) cm-1        Axes

              Baa    -1.8010   130.316    46.500    43.469  1.0000  0.0000  0.0000
     1 O(17)  Bbb    -1.7848   129.147    46.083    43.079  0.0000  0.0000  1.0000
              Bcc     3.5858  -259.463   -92.583   -86.547  0.0000  1.0000  0.0000
 
              Baa    -0.1302   -69.461   -24.786   -23.170  1.0000  0.0000  0.0000
     2 H(1)   Bbb    -0.0393   -20.967    -7.481    -6.994  0.0000  1.0000  0.0000
              Bcc     0.1695    90.428    32.267    30.164  0.0000  0.0000  1.0000
 

 ---------------------------------------------------------------------------------

 1|1|UNPC-DESKTOP-319GPER|FOpt|UB3LYP|6-31+G(d,p)|H1O1(2)|SAGAD|08-Oct-
 2020|0||#opt freq B3LYP/6-31+g(d,p)||Calculation of hidrixil radical w
 ith B3LYP||0,2|O,0.8534246747,0.41353383,0.|H,1.8331919253,0.41353383,
 0.||Version=IA32W-G09RevA.02|HF=-75.7390146|S2=0.752369|S2-1=0.|S2A=0.
 750004|RMSD=4.192e-009|RMSF=3.471e-007|Dipole=0.7308489,0.,0.|Quadrupo
 le=0.7718492,0.1331584,-0.9050077,0.,0.,0.|PG=C*V [C*(H1O1)]||@


 TO BEHOLD HARMS OF OUR OWN HANDS DOING,
 WHERE NONE BESIDE US WROUGHT,
 CAUSES SHARP RUING...

                                         SOPHOCLES
 Job cpu time:  0 days  0 hours  0 minutes  6.0 seconds.
 File lengths (MBytes):  RWF=      5 Int=      0 D2E=      0 Chk=      1 Scr=      1
 Normal termination of Gaussian 09 at Thu Oct 08 01:43:21 2020.
 Link1:  Proceeding to internal job step number  2.
 ----------------------------------------------------------------------
 #N Geom=AllCheck Guess=TCheck SCRF=Check GenChk UB3LYP/6-31+G(d,p) Fre
 q
 ----------------------------------------------------------------------
 1/10=4,29=7,30=1,38=1,40=1/1,3;
 2/12=2,40=1/2;
 3/5=1,6=6,7=111,11=2,14=-4,16=1,25=1,30=1,70=2,71=2,74=-5,116=2/1,2,3;
 4/5=101/1;
 5/5=2,98=1/2;
 8/6=4,10=90,11=11/1;
 11/6=1,8=1,9=11,15=111,16=1/1,2,10;
 10/6=1/2;
 6/7=2,8=2,9=2,10=2,18=1,28=1/1;
 7/8=1,10=1,25=1/1,2,3,16;
 1/10=4,30=1/3;
 99//99;
 ------------------------------------------
 Calculation of hidrixil radical with B3LYP
 ------------------------------------------
 Redundant internal coordinates taken from checkpoint file:
 C:\Users\sagad\Documents\rayGit\FQ\quimicaComputacional\class4Metilo\reactivos\hidroxilRadicalB3LYP.chk
 Charge =  0 Multiplicity = 2
 O,0,0.8534246747,0.41353383,0.
 H,0,1.8331919253,0.41353383,0.
 Recover connectivity data from disk.

 GradGradGradGradGradGradGradGradGradGradGradGradGradGradGradGradGradGrad
 Berny optimization.
 Initialization pass.
                           ----------------------------
                           !    Initial Parameters    !
                           ! (Angstroms and Degrees)  !
 --------------------------                            --------------------------
 ! Name  Definition              Value          Derivative Info.                !
 --------------------------------------------------------------------------------
 ! R1    R(1,2)                  0.9798         calculate D2E/DX2 analytically  !
 --------------------------------------------------------------------------------
 Trust Radius=3.00D-01 FncErr=1.00D-07 GrdErr=1.00D-07
 Number of steps in this run=   2 maximum allowed number of steps=   2.
 GradGradGradGradGradGradGradGradGradGradGradGradGradGradGradGradGradGrad

                          Input orientation:                          
 ---------------------------------------------------------------------
 Center     Atomic      Atomic             Coordinates (Angstroms)
 Number     Number       Type             X           Y           Z
 ---------------------------------------------------------------------
      1          8           0        0.853425    0.413534    0.000000
      2          1           0        1.833192    0.413534    0.000000
 ---------------------------------------------------------------------
 Stoichiometry    HO(2)
 Framework group  C*V[C*(HO)]
 Deg. of freedom     1
 Full point group                 C*V     NOp   4
 Largest Abelian subgroup         C2V     NOp   4
 Largest concise Abelian subgroup C1      NOp   1
                         Standard orientation:                         
 ---------------------------------------------------------------------
 Center     Atomic      Atomic             Coordinates (Angstroms)
 Number     Number       Type             X           Y           Z
 ---------------------------------------------------------------------
      1          8           0        0.000000    0.000000    0.108863
      2          1           0        0.000000    0.000000   -0.870904
 ---------------------------------------------------------------------
 Rotational constants (GHZ):      0.0000000    555.2942727    555.2942727
 Standard basis: 6-31+G(d,p) (6D, 7F)
 There are    13 symmetry adapted basis functions of A1  symmetry.
 There are     1 symmetry adapted basis functions of A2  symmetry.
 There are     5 symmetry adapted basis functions of B1  symmetry.
 There are     5 symmetry adapted basis functions of B2  symmetry.
 Integral buffers will be    262144 words long.
 Raffenetti 2 integral format.
 Two-electron integral symmetry is turned on.
    24 basis functions,    39 primitive gaussians,    24 cartesian basis functions
     5 alpha electrons        4 beta electrons
       nuclear repulsion energy         4.3208401447 Hartrees.
 NAtoms=    2 NActive=    2 NUniq=    2 SFac= 7.50D-01 NAtFMM=   80 NAOKFM=F Big=F
 One-electron integrals computed using PRISM.
 NBasis=    24 RedAO= T  NBF=    13     1     5     5
 NBsUse=    24 1.00D-06 NBFU=    13     1     5     5
 Initial guess read from the checkpoint file:  C:\Users\sagad\Documents\rayGit\FQ
 \quimicaComputacional\class4Metilo\reactivos\hidroxilRadicalB3LYP.chk
 B after Tr=     0.000000    0.000000    0.000000
         Rot=    1.000000    0.000000    0.000000    0.000000 Ang=   0.00 deg.
 Initial guess orbital symmetries:
 Alpha Orbitals:
       Occupied  (SG) (SG) (SG) (PI) (PI)
       Virtual   (SG) (PI) (SG) (PI) (SG) (SG) (PI) (PI) (SG) (SG)
                 (PI) (PI) (?A) (?A) (?A) (PI) (PI) (SG) (SG)
 Beta  Orbitals:
       Occupied  (SG) (SG) (SG) (?A)
       Virtual   (?A) (SG) (SG) (?A) (?A) (SG) (SG) (PI) (SG) (PI)
                 (SG) (PI) (PI) (DLTA) (DLTA) (SG) (PI) (PI) (SG)
                 (SG)
 Initial guess <Sx>= 0.0000 <Sy>= 0.0000 <Sz>= 0.5000 <S**2>= 0.7524 S= 0.5012
 Requested convergence on RMS density matrix=1.00D-08 within 128 cycles.
 Requested convergence on MAX density matrix=1.00D-06.
 Requested convergence on             energy=1.00D-06.
 No special actions if energy rises.
 Keep R1 and R2 ints in memory in canonical form, NReq=981973.
 SCF Done:  E(UB3LYP) =  -75.7390145636     A.U. after    1 cycles
             Convg  =    0.2281D-09             -V/T =  2.0090
 <Sx>= 0.0000 <Sy>= 0.0000 <Sz>= 0.5000 <S**2>= 0.7524 S= 0.5012
 <L.S>= 0.000000000000E+00
 Annihilation of the first spin contaminant:
 S**2 before annihilation     0.7524,   after     0.7500
 Range of M.O.s used for correlation:     1    24
 NBasis=    24 NAE=     5 NBE=     4 NFC=     0 NFV=     0
 NROrb=     24 NOA=     5 NOB=     4 NVA=    19 NVB=    20
 Symmetrizing basis deriv contribution to polar:
 IMax=3 JMax=2 DiffMx= 0.00D+00
 G2DrvN: will do     3 centers at a time, making    1 passes doing MaxLOS=2.
 Calling FoFCou, ICntrl=  3107 FMM=F I1Cent=   0 AccDes= 0.00D+00.
 FoFDir/FoFCou used for L=0 through L=2.
 End of G2Drv Frequency-dependent properties file   721 does not exist.
 End of G2Drv Frequency-dependent properties file   722 does not exist.
          IDoAtm=11
          Differentiating once with respect to electric field.
                with respect to dipole field.
          Differentiating once with respect to nuclear coordinates.
          Keep R1 and R2 ints in memory in canonical form, NReq=910920.
          There are     9 degrees of freedom in the 1st order CPHF.  IDoFFX=5.
      6 vectors produced by pass  0 Test12= 1.94D-15 1.11D-08 XBig12= 6.33D+00 1.41D+00.
 AX will form     6 AO Fock derivatives at one time.
      6 vectors produced by pass  1 Test12= 1.94D-15 1.11D-08 XBig12= 8.91D-01 3.66D-01.
      6 vectors produced by pass  2 Test12= 1.94D-15 1.11D-08 XBig12= 8.24D-03 3.67D-02.
      6 vectors produced by pass  3 Test12= 1.94D-15 1.11D-08 XBig12= 6.82D-05 4.22D-03.
      6 vectors produced by pass  4 Test12= 1.94D-15 1.11D-08 XBig12= 8.67D-07 4.09D-04.
      6 vectors produced by pass  5 Test12= 1.94D-15 1.11D-08 XBig12= 2.51D-09 2.74D-05.
      4 vectors produced by pass  6 Test12= 1.94D-15 1.11D-08 XBig12= 8.64D-12 1.52D-06.
      1 vectors produced by pass  7 Test12= 1.94D-15 1.11D-08 XBig12= 1.44D-14 3.78D-08.
 Inverted reduced A of dimension    41 with in-core refinement.
 Isotropic polarizability for W=    0.000000        5.13 Bohr**3.
 End of Minotr Frequency-dependent properties file   721 does not exist.
 End of Minotr Frequency-dependent properties file   722 does not exist.

 **********************************************************************

            Population analysis using the SCF density.

 **********************************************************************

 Orbital symmetries:
 Alpha Orbitals:
       Occupied  (SG) (SG) (SG) (PI) (PI)
       Virtual   (SG) (PI) (SG) (PI) (SG) (SG) (PI) (PI) (SG) (SG)
                 (PI) (PI) (?A) (?A) (?A) (PI) (PI) (SG) (SG)
 Beta  Orbitals:
       Occupied  (SG) (SG) (SG) (?A)
       Virtual   (?A) (SG) (SG) (?A) (?A) (SG) (SG) (PI) (SG) (PI)
                 (SG) (PI) (PI) (DLTA) (DLTA) (SG) (PI) (PI) (SG)
                 (SG)
 Unable to determine electronic state:  an orbital has unidentified symmetry.
 Alpha  occ. eigenvalues --  -19.24377  -1.03076  -0.48829  -0.42771  -0.35549
 Alpha virt. eigenvalues --    0.03260   0.14260   0.14488   0.15202   0.21085
 Alpha virt. eigenvalues --    0.90258   1.04671   1.09067   1.12148   1.17677
 Alpha virt. eigenvalues --    1.50426   1.53962   1.73121   1.73146   2.32871
 Alpha virt. eigenvalues --    2.57584   2.60086   3.30394   3.76440
  Beta  occ. eigenvalues --  -19.21871  -0.95988  -0.46188  -0.32817
  Beta virt. eigenvalues --   -0.18549   0.04076   0.14908   0.15507   0.16822
  Beta virt. eigenvalues --    0.21483   0.91192   1.10555   1.13448   1.13533
  Beta virt. eigenvalues --    1.20027   1.54434   1.54958   1.79399   1.80127
  Beta virt. eigenvalues --    2.34850   2.60174   2.60176   3.32095   3.79621
          Condensed to atoms (all electrons):
              1          2
     1  O    8.125268   0.217115
     2  H    0.217115   0.440501
 Mulliken atomic charges:
              1
     1  O   -0.342384
     2  H    0.342384
 Sum of Mulliken atomic charges =   0.00000
 Mulliken charges with hydrogens summed into heavy atoms:
              1
     1  O    0.000000
 Sum of Mulliken charges with hydrogens summed into heavy atoms =   0.00000
          Atomic-Atomic Spin Densities.
              1          2
     1  O    1.024461   0.003478
     2  H    0.003478  -0.031416
 Mulliken atomic spin densities:
              1
     1  O    1.027938
     2  H   -0.027938
 Sum of Mulliken atomic spin densities =   1.00000
 APT atomic charges:
              1
     1  O   -0.297886
     2  H    0.297886
 Sum of APT charges=   0.00000
 APT Atomic charges with hydrogens summed into heavy atoms:
              1
     1  O    0.000000
     2  H    0.000000
 Sum of APT charges=   0.00000
 Electronic spatial extent (au):  <R**2>=             15.9041
 Charge=              0.0000 electrons
 Dipole moment (field-independent basis, Debye):
    X=              0.0000    Y=              0.0000    Z=             -1.8576  Tot=              1.8576
 Quadrupole moment (field-independent basis, Debye-Ang):
   XX=             -6.9816   YY=             -5.5853   ZZ=             -4.7262
   XY=              0.0000   XZ=              0.0000   YZ=              0.0000
 Traceless Quadrupole moment (field-independent basis, Debye-Ang):
   XX=             -1.2173   YY=              0.1791   ZZ=              1.0382
   XY=              0.0000   XZ=              0.0000   YZ=              0.0000
 Octapole moment (field-independent basis, Debye-Ang**2):
  XXX=              0.0000  YYY=              0.0000  ZZZ=             -2.1195  XYY=              0.0000
  XXY=              0.0000  XXZ=             -0.3944  XZZ=              0.0000  YZZ=              0.0000
  YYZ=             -0.2641  XYZ=              0.0000
 Hexadecapole moment (field-independent basis, Debye-Ang**3):
 XXXX=             -6.7435 YYYY=             -4.2514 ZZZZ=             -5.9990 XXXY=              0.0000
 XXXZ=              0.0000 YYYX=              0.0000 YYYZ=              0.0000 ZZZX=              0.0000
 ZZZY=              0.0000 XXYY=             -1.8324 XXZZ=             -2.3679 YYZZ=             -1.9345
 XXYZ=              0.0000 YYXZ=              0.0000 ZZXY=              0.0000
 N-N= 4.320840144665D+00 E-N=-2.763990239516D+02  KE= 1.112261694689D+02
 Symmetry A1   KE= 1.017493246704D+02
 Symmetry A2   KE= 2.860184168961D-35
 Symmetry B1   KE= 6.975833219934D+00
 Symmetry B2   KE= 2.501011578556D+00
  Exact polarizability:   4.939   0.000   3.587   0.000   0.000   6.872
 Approx polarizability:   4.888   0.000   3.937   0.000   0.000   8.331
                          Isotropic Fermi Contact Couplings
        Atom                 a.u.       MegaHertz       Gauss      10(-4) cm-1
     1  O(17)              0.11105     -67.31837     -24.02087     -22.45499
     2  H(1)              -0.01504     -67.24023     -23.99298     -22.42892
 --------------------------------------------------------
       Center         ----  Spin Dipole Couplings  ----
                      3XX-RR        3YY-RR        3ZZ-RR
 --------------------------------------------------------
     1   Atom       -1.800954      3.585757     -1.784803
     2   Atom       -0.130187     -0.039297      0.169483
 --------------------------------------------------------
                        XY            XZ            YZ
 --------------------------------------------------------
     1   Atom        0.000000      0.000000      0.000000
     2   Atom        0.000000      0.000000      0.000000
 --------------------------------------------------------


 ---------------------------------------------------------------------------------
              Anisotropic Spin Dipole Couplings in Principal Axis System
 ---------------------------------------------------------------------------------

       Atom             a.u.   MegaHertz   Gauss  10(-4) cm-1        Axes

              Baa    -1.8010   130.316    46.500    43.469  1.0000  0.0000  0.0000
     1 O(17)  Bbb    -1.7848   129.147    46.083    43.079  0.0000  0.0000  1.0000
              Bcc     3.5858  -259.463   -92.583   -86.547  0.0000  1.0000  0.0000
 
              Baa    -0.1302   -69.461   -24.786   -23.170  1.0000  0.0000  0.0000
     2 H(1)   Bbb    -0.0393   -20.967    -7.481    -6.994  0.0000  1.0000  0.0000
              Bcc     0.1695    90.428    32.267    30.164  0.0000  0.0000  1.0000
 

 ---------------------------------------------------------------------------------

 Calling FoFJK, ICntrl=    100127 FMM=F ISym2X=1 I1Cent= 0 IOpClX= 1 NMat=1 NMatS=1 NMatT=0.
 Full mass-weighted force constant matrix:
 Low frequencies ---  -13.8431   -0.0022   -0.0018   -0.0016   42.2244 3703.8569
 Diagonal vibrational polarizability:
        0.0000000       0.0000000       0.0219007
 Harmonic frequencies (cm**-1), IR intensities (KM/Mole), Raman scattering
 activities (A**4/AMU), depolarization ratios for plane and unpolarized
 incident light, reduced masses (AMU), force constants (mDyne/A),
 and normal coordinates:
                     1
                    SG
 Frequencies --  3703.8569
 Red. masses --     1.0671
 Frc consts  --     8.6250
 IR Inten    --    11.1644
  Atom  AN      X      Y      Z
     1   8     0.00   0.00   0.06
     2   1     0.00   0.00  -1.00

 -------------------
 - Thermochemistry -
 -------------------
 Temperature   298.150 Kelvin.  Pressure   1.00000 Atm.
 Atom     1 has atomic number  8 and mass  15.99491
 Atom     2 has atomic number  1 and mass   1.00783
 Molecular mass:    17.00274 amu.
 Principal axes and moments of inertia in atomic units:
                           1         2         3
     Eigenvalues --     0.00000   3.25006   3.25006
           X            0.00000   0.00000   1.00000
           Y            0.00000   1.00000   0.00000
           Z            1.00000   0.00000   0.00000
 This molecule is a prolate symmetric top.
 Rotational symmetry number  1.
 Rotational temperature (Kelvin)     26.64989
 Rotational constant (GHZ):         555.294273
 Zero-point vibrational energy      22154.0 (Joules/Mol)
                                    5.29493 (Kcal/Mol)
 Vibrational temperatures:   5329.02
          (Kelvin)
 
 Zero-point correction=                           0.008438 (Hartree/Particle)
 Thermal correction to Energy=                    0.010798
 Thermal correction to Enthalpy=                  0.011743
 Thermal correction to Gibbs Free Energy=        -0.008498
 Sum of electronic and zero-point Energies=            -75.730577
 Sum of electronic and thermal Energies=               -75.728216
 Sum of electronic and thermal Enthalpies=             -75.727272
 Sum of electronic and thermal Free Energies=          -75.747513
 
                     E (Thermal)             CV                S
                      KCal/Mol        Cal/Mol-Kelvin    Cal/Mol-Kelvin
 Total                    6.776              4.968             42.600
 Electronic               0.000              0.000              1.377
 Translational            0.889              2.981             34.437
 Rotational               0.592              1.987              6.786
 Vibrational              5.295              0.000              0.000
                       Q            Log10(Q)             Ln(Q)
 Total Bot       0.810583D+04          3.908798          9.000339
 Total V=0       0.616599D+08          7.790003         17.937145
 Vib (Bot)       0.131460D-03         -3.881205         -8.936806
 Vib (V=0)       0.100000D+01          0.000000          0.000000
 Electronic      0.200000D+01          0.301030          0.693147
 Translational   0.275571D+07          6.440234         14.829186
 Rotational      0.111877D+02          1.048739          2.414812
 ***** Axes restored to original set *****
 -------------------------------------------------------------------
 Center     Atomic                   Forces (Hartrees/Bohr)
 Number     Number              X              Y              Z
 -------------------------------------------------------------------
      1        8           0.000000601    0.000000000    0.000000000
      2        1          -0.000000601    0.000000000    0.000000000
 -------------------------------------------------------------------
 Cartesian Forces:  Max     0.000000601 RMS     0.000000347

 GradGradGradGradGradGradGradGradGradGradGradGradGradGradGradGradGradGrad
 Berny optimization.
 Internal  Forces:  Max     0.000000601 RMS     0.000000601
 Search for a local minimum.
 Step number   1 out of a maximum of    2
 All quantities printed in internal units (Hartrees-Bohrs-Radians)
 Second derivative matrix not updated -- analytic derivatives used.
 The second derivative matrix:
                          R1
           R1           0.49221
     Eigenvalues ---    0.49221
 Angle between quadratic step and forces=  90.00 degrees.
 Linear search not attempted -- first point.
 Iteration  1 RMS(Cart)=  0.00000086 RMS(Int)=  0.00000000
 ClnCor:  largest displacement from symmetrization is 0.00D+00 for atom     0.
 Variable       Old X    -DE/DX   Delta X   Delta X   Delta X     New X
                                 (Linear)    (Quad)   (Total)
    R1        1.85149   0.00000   0.00000   0.00000   0.00000   1.85149
         Item               Value     Threshold  Converged?
 Maximum Force            0.000001     0.000450     YES
 RMS     Force            0.000001     0.000300     YES
 Maximum Displacement     0.000001     0.001800     YES
 RMS     Displacement     0.000001     0.001200     YES
 Predicted change in Energy=-3.663423D-13
 Optimization completed.
    -- Stationary point found.
                           ----------------------------
                           !   Optimized Parameters   !
                           ! (Angstroms and Degrees)  !
 --------------------------                            --------------------------
 ! Name  Definition              Value          Derivative Info.                !
 --------------------------------------------------------------------------------
 ! R1    R(1,2)                  0.9798         -DE/DX =    0.0                 !
 --------------------------------------------------------------------------------
 GradGradGradGradGradGradGradGradGradGradGradGradGradGradGradGradGradGrad

 1|1|UNPC-DESKTOP-319GPER|Freq|UB3LYP|6-31+G(d,p)|H1O1(2)|SAGAD|08-Oct-
 2020|0||#N Geom=AllCheck Guess=TCheck SCRF=Check GenChk UB3LYP/6-31+G(
 d,p) Freq||Calculation of hidrixil radical with B3LYP||0,2|O,0.8534246
 747,0.41353383,0.|H,1.8331919253,0.41353383,0.||Version=IA32W-G09RevA.
 02|HF=-75.7390146|S2=0.752369|S2-1=0.|S2A=0.750004|RMSD=2.281e-010|RMS
 F=3.467e-007|ZeroPoint=0.008438|Thermal=0.0107985|Dipole=0.7308489,0.,
 0.|DipoleDeriv=-0.1041994,0.,0.,0.,-0.3947097,0.,0.,0.,-0.3947479,0.10
 41994,0.,0.,0.,0.3947097,0.,0.,0.,0.3947479|Polar=6.8721396,0.,3.58721
 81,0.,0.,4.9387925|PG=C*V [C*(H1O1)]|NImag=0||0.49220724,0.,-0.0000068
 8,0.,0.,0.00006397,-0.49220724,0.,0.,0.49220724,0.,0.00000688,0.,0.,-0
 .00000688,0.,0.,-0.00006397,0.,0.,0.00006397||-0.00000060,0.,0.,0.0000
 0060,0.,0.|||@


 TO BEHOLD HARMS OF OUR OWN HANDS DOING,
 WHERE NONE BESIDE US WROUGHT,
 CAUSES SHARP RUING...

                                         SOPHOCLES
 Job cpu time:  0 days  0 hours  0 minutes  5.0 seconds.
 File lengths (MBytes):  RWF=      5 Int=      0 D2E=      0 Chk=      1 Scr=      1
 Normal termination of Gaussian 09 at Thu Oct 08 01:43:26 2020.
