 Entering Link 1 = C:\G09W\l1.exe PID=     16784.
  
 Copyright (c) 1988,1990,1992,1993,1995,1998,2003,2009, Gaussian, Inc.
                  All Rights Reserved.
  
 This is part of the Gaussian(R) 09 program.  It is based on
 the Gaussian(R) 03 system (copyright 2003, Gaussian, Inc.),
 the Gaussian(R) 98 system (copyright 1998, Gaussian, Inc.),
 the Gaussian(R) 94 system (copyright 1995, Gaussian, Inc.),
 the Gaussian 92(TM) system (copyright 1992, Gaussian, Inc.),
 the Gaussian 90(TM) system (copyright 1990, Gaussian, Inc.),
 the Gaussian 88(TM) system (copyright 1988, Gaussian, Inc.),
 the Gaussian 86(TM) system (copyright 1986, Carnegie Mellon
 University), and the Gaussian 82(TM) system (copyright 1983,
 Carnegie Mellon University). Gaussian is a federally registered
 trademark of Gaussian, Inc.
  
 This software contains proprietary and confidential information,
 including trade secrets, belonging to Gaussian, Inc.
  
 This software is provided under written license and may be
 used, copied, transmitted, or stored only in accord with that
 written license.
  
 The following legend is applicable only to US Government
 contracts under FAR:
  
                    RESTRICTED RIGHTS LEGEND
  
 Use, reproduction and disclosure by the US Government is
 subject to restrictions as set forth in subparagraphs (a)
 and (c) of the Commercial Computer Software - Restricted
 Rights clause in FAR 52.227-19.
  
 Gaussian, Inc.
 340 Quinnipiac St., Bldg. 40, Wallingford CT 06492
  
  
 ---------------------------------------------------------------
 Warning -- This program may not be used in any manner that
 competes with the business of Gaussian, Inc. or will provide
 assistance to any competitor of Gaussian, Inc.  The licensee
 of this program is prohibited from giving any competitor of
 Gaussian, Inc. access to this program.  By using this program,
 the user acknowledges that Gaussian, Inc. is engaged in the
 business of creating and licensing software in the field of
 computational chemistry and represents and warrants to the
 licensee that it is not a competitor of Gaussian, Inc. and that
 it will not use this program in any manner prohibited above.
 ---------------------------------------------------------------
  

 Cite this work as:
 Gaussian 09, Revision A.02,
 M. J. Frisch, G. W. Trucks, H. B. Schlegel, G. E. Scuseria, 
 M. A. Robb, J. R. Cheeseman, G. Scalmani, V. Barone, B. Mennucci, 
 G. A. Petersson, H. Nakatsuji, M. Caricato, X. Li, H. P. Hratchian, 
 A. F. Izmaylov, J. Bloino, G. Zheng, J. L. Sonnenberg, M. Hada, 
 M. Ehara, K. Toyota, R. Fukuda, J. Hasegawa, M. Ishida, T. Nakajima, 
 Y. Honda, O. Kitao, H. Nakai, T. Vreven, J. A. Montgomery, Jr., 
 J. E. Peralta, F. Ogliaro, M. Bearpark, J. J. Heyd, E. Brothers, 
 K. N. Kudin, V. N. Staroverov, R. Kobayashi, J. Normand, 
 K. Raghavachari, A. Rendell, J. C. Burant, S. S. Iyengar, J. Tomasi, 
 M. Cossi, N. Rega, J. M. Millam, M. Klene, J. E. Knox, J. B. Cross, 
 V. Bakken, C. Adamo, J. Jaramillo, R. Gomperts, R. E. Stratmann, 
 O. Yazyev, A. J. Austin, R. Cammi, C. Pomelli, J. W. Ochterski, 
 R. L. Martin, K. Morokuma, V. G. Zakrzewski, G. A. Voth, 
 P. Salvador, J. J. Dannenberg, S. Dapprich, A. D. Daniels, 
 O. Farkas, J. B. Foresman, J. V. Ortiz, J. Cioslowski, 
 and D. J. Fox, Gaussian, Inc., Wallingford CT, 2009.
 
 ******************************************
 Gaussian 09:  IA32W-G09RevA.02 11-Jun-2009
                09-Oct-2020 
 ******************************************
 %chk=C:\Users\sagad\Documents\rayGit\FQ\quimicaComputacional\class4Metilo\reacti
 vos\methaneM062XTwo.chk
 %nprocshared=4
 Will use up to    4 processors via shared memory.
 %mem=1500MB
 -----------------------------
 #opt freq M062X/6-311++g(d,p)
 -----------------------------
 1/14=-1,18=20,19=15,26=3,38=1/1,3;
 2/9=110,12=2,17=6,18=5,40=1/2;
 3/5=4,6=6,7=1111,11=2,16=1,25=1,30=1,71=1,74=-55/1,2,3;
 4//1;
 5/5=2,38=5/2;
 6/7=2,8=2,9=2,10=2,28=1/1;
 7//1,2,3,16;
 1/14=-1,18=20,19=15/3(2);
 2/9=110/2;
 99//99;
 2/9=110/2;
 3/5=4,6=6,7=1111,11=2,16=1,25=1,30=1,71=1,74=-55/1,2,3;
 4/5=5,16=3/1;
 5/5=2,38=5/2;
 7//1,2,3,16;
 1/14=-1,18=20,19=15/3(-5);
 2/9=110/2;
 6/7=2,8=2,9=2,10=2,19=2,28=1/1;
 99/9=1/99;
 ----------------------------------------------------
 Calculation of methane with m062x with 6-311++g(d,p)
 ----------------------------------------------------
 Symbolic Z-matrix:
 Charge =  0 Multiplicity = 1
 C                    -5.60103   1.03696  -0.87365 
 H                    -5.24438   0.02815  -0.87365 
 H                    -5.24436   1.54135   0. 
 H                    -5.24436   1.54135  -1.7473 
 H                    -6.67103   1.03697  -0.87365 
 

 GradGradGradGradGradGradGradGradGradGradGradGradGradGradGradGradGradGrad
 Berny optimization.
 Initialization pass.
                           ----------------------------
                           !    Initial Parameters    !
                           ! (Angstroms and Degrees)  !
 --------------------------                            --------------------------
 ! Name  Definition              Value          Derivative Info.                !
 --------------------------------------------------------------------------------
 ! R1    R(1,2)                  1.07           estimate D2E/DX2                !
 ! R2    R(1,3)                  1.07           estimate D2E/DX2                !
 ! R3    R(1,4)                  1.07           estimate D2E/DX2                !
 ! R4    R(1,5)                  1.07           estimate D2E/DX2                !
 ! A1    A(2,1,3)              109.4712         estimate D2E/DX2                !
 ! A2    A(2,1,4)              109.4712         estimate D2E/DX2                !
 ! A3    A(2,1,5)              109.4712         estimate D2E/DX2                !
 ! A4    A(3,1,4)              109.4713         estimate D2E/DX2                !
 ! A5    A(3,1,5)              109.4712         estimate D2E/DX2                !
 ! A6    A(4,1,5)              109.4712         estimate D2E/DX2                !
 ! D1    D(2,1,4,3)           -120.0            estimate D2E/DX2                !
 ! D2    D(2,1,5,3)            120.0            estimate D2E/DX2                !
 ! D3    D(2,1,5,4)           -120.0            estimate D2E/DX2                !
 ! D4    D(3,1,5,4)            120.0            estimate D2E/DX2                !
 --------------------------------------------------------------------------------
 Trust Radius=3.00D-01 FncErr=1.00D-07 GrdErr=1.00D-06
 Number of steps in this run=  24 maximum allowed number of steps= 100.
 GradGradGradGradGradGradGradGradGradGradGradGradGradGradGradGradGradGrad

                          Input orientation:                          
 ---------------------------------------------------------------------
 Center     Atomic      Atomic             Coordinates (Angstroms)
 Number     Number       Type             X           Y           Z
 ---------------------------------------------------------------------
      1          6           0       -5.601034    1.036955   -0.873652
      2          1           0       -5.244379    0.028145   -0.873652
      3          1           0       -5.244361    1.541353    0.000000
      4          1           0       -5.244361    1.541353   -1.747303
      5          1           0       -6.671034    1.036968   -0.873652
 ---------------------------------------------------------------------
                    Distance matrix (angstroms):
                    1          2          3          4          5
     1  C    0.000000
     2  H    1.070000   0.000000
     3  H    1.070000   1.747302   0.000000
     4  H    1.070000   1.747302   1.747303   0.000000
     5  H    1.070000   1.747303   1.747303   1.747303   0.000000
 Stoichiometry    CH4
 Framework group  T[O(C),4C3(H)]
 Deg. of freedom     1
 Full point group                 T       NOp  12
 Largest Abelian subgroup         D2      NOp   4
 Largest concise Abelian subgroup D2      NOp   4
                         Standard orientation:                         
 ---------------------------------------------------------------------
 Center     Atomic      Atomic             Coordinates (Angstroms)
 Number     Number       Type             X           Y           Z
 ---------------------------------------------------------------------
      1          6           0        0.000000    0.000000    0.000000
      2          1           0        0.617765    0.617765    0.617765
      3          1           0       -0.617765   -0.617765    0.617765
      4          1           0       -0.617765    0.617765   -0.617765
      5          1           0        0.617765   -0.617765   -0.617765
 ---------------------------------------------------------------------
 Rotational constants (GHZ):    164.2463794    164.2463794    164.2463794
 Standard basis: 6-311++G(d,p) (5D, 7F)
 There are    14 symmetry adapted basis functions of A   symmetry.
 There are    12 symmetry adapted basis functions of B1  symmetry.
 There are    12 symmetry adapted basis functions of B2  symmetry.
 There are    12 symmetry adapted basis functions of B3  symmetry.
 Integral buffers will be    262144 words long.
 Raffenetti 2 integral format.
 Two-electron integral symmetry is turned on.
    50 basis functions,    72 primitive gaussians,    51 cartesian basis functions
     5 alpha electrons        5 beta electrons
       nuclear repulsion energy        13.6865185901 Hartrees.
 NAtoms=    5 NActive=    5 NUniq=    2 SFac= 3.00D+00 NAtFMM=   80 NAOKFM=F Big=F
 One-electron integrals computed using PRISM.
 NBasis=    50 RedAO= T  NBF=    14    12    12    12
 NBsUse=    50 1.00D-06 NBFU=    14    12    12    12
 Harris functional with IExCor= 1009 diagonalized for initial guess.
 ExpMin= 3.60D-02 ExpMax= 4.56D+03 ExpMxC= 6.82D+02 IAcc=3 IRadAn=         0 AccDes= 0.00D+00
 HarFok:  IExCor= 1009 AccDes= 0.00D+00 IRadAn=         0 IDoV= 1
 ScaDFX=  1.000000  1.000000  1.000000  1.000000
 FoFCou: FMM=F IPFlag=           0 FMFlag=      100000 FMFlg1=           0
         NFxFlg=           0 DoJE=T BraDBF=F KetDBF=T FulRan=T
         Omega=  0.000000  0.000000  1.000000  0.000000  0.000000 ICntrl=     500 IOpCl=  0
         NMat0=    1 NMatS0=    1 NMatT0=    0 NMatD0=    1 NMtDS0=    0 NMtDT0=    0
         I1Cent=           4 NGrid=           0.
 Petite list used in FoFCou.
 Initial guess orbital symmetries:
       Occupied  (A) (A) (T) (T) (T)
       Virtual   (A) (T) (T) (T) (T) (T) (T) (A) (T) (T) (T) (A)
                 (T) (T) (T) (T) (T) (T) (A) (A) (E) (E) (T) (T)
                 (T) (T) (T) (T) (T) (T) (T) (E) (E) (A) (T) (T)
                 (T) (T) (T) (T) (A) (T) (T) (T) (A)
 The electronic state of the initial guess is 1-A.
 Requested convergence on RMS density matrix=1.00D-08 within 128 cycles.
 Requested convergence on MAX density matrix=1.00D-06.
 Requested convergence on             energy=1.00D-06.
 No special actions if energy rises.
 Keep R1 ints in memory in canonical form, NReq=1813546.
 SCF Done:  E(RM062X) =  -40.4958724295     A.U. after    8 cycles
             Convg  =    0.1892D-08             -V/T =  2.0027

 **********************************************************************

            Population analysis using the SCF density.

 **********************************************************************

 Orbital symmetries:
       Occupied  (A) (A) (T) (T) (T)
       Virtual   (A) (T) (T) (T) (T) (T) (T) (A) (T) (T) (T) (A)
                 (T) (T) (T) (T) (T) (T) (A) (A) (E) (E) (T) (T)
                 (T) (T) (T) (T) (T) (T) (T) (E) (E) (A) (T) (T)
                 (T) (T) (T) (T) (A) (T) (T) (T) (A)
 The electronic state is 1-A.
 Alpha  occ. eigenvalues --  -10.50664  -0.79230  -0.45956  -0.45956  -0.45956
 Alpha virt. eigenvalues --    0.00365   0.04098   0.04098   0.04098   0.10166
 Alpha virt. eigenvalues --    0.10166   0.10166   0.14118   0.23231   0.23231
 Alpha virt. eigenvalues --    0.23231   0.30477   0.44586   0.44586   0.44586
 Alpha virt. eigenvalues --    0.72039   0.72039   0.72039   0.72864   0.89300
 Alpha virt. eigenvalues --    1.02677   1.02677   1.52400   1.52400   1.52400
 Alpha virt. eigenvalues --    1.59812   1.59812   1.59812   1.96258   1.96258
 Alpha virt. eigenvalues --    1.96258   2.37268   2.37268   2.41889   2.51706
 Alpha virt. eigenvalues --    2.51706   2.51706   2.64862   2.64862   2.64862
 Alpha virt. eigenvalues --    2.96263   3.89062   3.89062   3.89062  24.18084
          Condensed to atoms (all electrons):
              1          2          3          4          5
     1  C    4.970225   0.401217   0.401217   0.401217   0.401217
     2  H    0.401217   0.554712  -0.033234  -0.033234  -0.033234
     3  H    0.401217  -0.033234   0.554712  -0.033234  -0.033234
     4  H    0.401217  -0.033234  -0.033234   0.554712  -0.033234
     5  H    0.401217  -0.033234  -0.033234  -0.033234   0.554712
 Mulliken atomic charges:
              1
     1  C   -0.575091
     2  H    0.143773
     3  H    0.143773
     4  H    0.143773
     5  H    0.143773
 Sum of Mulliken atomic charges =   0.00000
 Mulliken charges with hydrogens summed into heavy atoms:
              1
     1  C    0.000000
 Sum of Mulliken charges with hydrogens summed into heavy atoms =   0.00000
 Electronic spatial extent (au):  <R**2>=             35.0689
 Charge=              0.0000 electrons
 Dipole moment (field-independent basis, Debye):
    X=              0.0000    Y=              0.0000    Z=              0.0000  Tot=              0.0000
 Quadrupole moment (field-independent basis, Debye-Ang):
   XX=             -8.3907   YY=             -8.3907   ZZ=             -8.3907
   XY=              0.0000   XZ=              0.0000   YZ=              0.0000
 Traceless Quadrupole moment (field-independent basis, Debye-Ang):
   XX=              0.0000   YY=              0.0000   ZZ=              0.0000
   XY=              0.0000   XZ=              0.0000   YZ=              0.0000
 Octapole moment (field-independent basis, Debye-Ang**2):
  XXX=              0.0000  YYY=              0.0000  ZZZ=              0.0000  XYY=              0.0000
  XXY=              0.0000  XXZ=              0.0000  XZZ=              0.0000  YZZ=              0.0000
  YYZ=              0.0000  XYZ=              0.7225
 Hexadecapole moment (field-independent basis, Debye-Ang**3):
 XXXX=            -16.5325 YYYY=            -16.5325 ZZZZ=            -16.5325 XXXY=              0.0000
 XXXZ=              0.0000 YYYX=              0.0000 YYYZ=              0.0000 ZZZX=              0.0000
 ZZZY=              0.0000 XXYY=             -5.0242 XXZZ=             -5.0242 YYZZ=             -5.0242
 XXYZ=              0.0000 YYXZ=              0.0000 ZZXY=              0.0000
 N-N= 1.368651859005D+01 E-N=-1.206743799221D+02  KE= 4.038847142556D+01
 Symmetry A    KE= 3.450040244130D+01
 Symmetry B1   KE= 1.962689661418D+00
 Symmetry B2   KE= 1.962689661418D+00
 Symmetry B3   KE= 1.962689661418D+00
 Calling FoFJK, ICntrl=      2127 FMM=F ISym2X=1 I1Cent= 0 IOpClX= 0 NMat=1 NMatS=1 NMatT=0.
 ***** Axes restored to original set *****
 -------------------------------------------------------------------
 Center     Atomic                   Forces (Hartrees/Bohr)
 Number     Number              X              Y              Z
 -------------------------------------------------------------------
      1        6           0.000000000    0.000000000    0.000000000
      2        1           0.004543734   -0.012852115   -0.000000011
      3        1           0.004543976    0.006425969    0.011130211
      4        1           0.004543958    0.006425981   -0.011130211
      5        1          -0.013631668    0.000000165    0.000000011
 -------------------------------------------------------------------
 Cartesian Forces:  Max     0.013631668 RMS     0.007039363

 GradGradGradGradGradGradGradGradGradGradGradGradGradGradGradGradGradGrad
 Berny optimization.
 Internal  Forces:  Max     0.013631668 RMS     0.007286433
 Search for a local minimum.
 Step number   1 out of a maximum of   24
 All quantities printed in internal units (Hartrees-Bohrs-Radians)
 Mixed Optimization -- RFO/linear search
 Second derivative matrix not updated -- first step.
 The second derivative matrix:
                          R1        R2        R3        R4        A1
           R1           0.37230
           R2           0.00000   0.37230
           R3           0.00000   0.00000   0.37230
           R4           0.00000   0.00000   0.00000   0.37230
           A1           0.00000   0.00000   0.00000   0.00000   0.16000
           A2           0.00000   0.00000   0.00000   0.00000   0.00000
           A3           0.00000   0.00000   0.00000   0.00000   0.00000
           A4           0.00000   0.00000   0.00000   0.00000   0.00000
           A5           0.00000   0.00000   0.00000   0.00000   0.00000
           A6           0.00000   0.00000   0.00000   0.00000   0.00000
           D1           0.00000   0.00000   0.00000   0.00000   0.00000
           D2           0.00000   0.00000   0.00000   0.00000   0.00000
           D3           0.00000   0.00000   0.00000   0.00000   0.00000
           D4           0.00000   0.00000   0.00000   0.00000   0.00000
                          A2        A3        A4        A5        A6
           A2           0.16000
           A3           0.00000   0.16000
           A4           0.00000   0.00000   0.16000
           A5           0.00000   0.00000   0.00000   0.16000
           A6           0.00000   0.00000   0.00000   0.00000   0.16000
           D1           0.00000   0.00000   0.00000   0.00000   0.00000
           D2           0.00000   0.00000   0.00000   0.00000   0.00000
           D3           0.00000   0.00000   0.00000   0.00000   0.00000
           D4           0.00000   0.00000   0.00000   0.00000   0.00000
                          D1        D2        D3        D4
           D1           0.00499
           D2           0.00000   0.00499
           D3           0.00000   0.00000   0.00499
           D4           0.00000   0.00000   0.00000   0.00499
     Eigenvalues ---    0.05269   0.05891   0.08766   0.16000   0.16000
     Eigenvalues ---    0.37230   0.37230   0.37230   0.372301000.00000
     Eigenvalues --- 1000.000001000.000001000.000001000.00000
 RFO step:  Lambda=-1.98588166D-03 EMin= 5.26881010D-02
 Linear search not attempted -- first point.
 Iteration  1 RMS(Cart)=  0.01946750 RMS(Int)=  0.00000000
 Iteration  2 RMS(Cart)=  0.00000000 RMS(Int)=  0.00000000
 ClnCor:  largest displacement from symmetrization is 3.84D-14 for atom     3.
 Variable       Old X    -DE/DX   Delta X   Delta X   Delta X     New X
                                 (Linear)    (Quad)   (Total)
    R1        2.02201   0.01363   0.00000   0.03642   0.03642   2.05843
    R2        2.02201   0.01363   0.00000   0.03642   0.03642   2.05843
    R3        2.02201   0.01363   0.00000   0.03642   0.03642   2.05843
    R4        2.02201   0.01363   0.00000   0.03642   0.03642   2.05843
    A1        1.91063   0.00000   0.00000   0.00000   0.00000   1.91063
    A2        1.91063   0.00000   0.00000   0.00000   0.00000   1.91063
    A3        1.91063   0.00000   0.00000   0.00000   0.00000   1.91063
    A4        1.91063   0.00000   0.00000   0.00000   0.00000   1.91063
    A5        1.91063   0.00000   0.00000   0.00000   0.00000   1.91063
    A6        1.91063   0.00000   0.00000   0.00000   0.00000   1.91063
    D1       -2.09440   0.00000   0.00000   0.00000   0.00000  -2.09440
    D2        2.09440   0.00000   0.00000   0.00000   0.00000   2.09440
    D3       -2.09440   0.00000   0.00000   0.00000   0.00000  -2.09440
    D4        2.09440   0.00000   0.00000   0.00000   0.00000   2.09440
         Item               Value     Threshold  Converged?
 Maximum Force            0.013632     0.000450     NO 
 RMS     Force            0.007286     0.000300     NO 
 Maximum Displacement     0.036420     0.001800     NO 
 RMS     Displacement     0.019468     0.001200     NO 
 Predicted change in Energy=-9.982090D-04
 GradGradGradGradGradGradGradGradGradGradGradGradGradGradGradGradGradGrad

                          Input orientation:                          
 ---------------------------------------------------------------------
 Center     Atomic      Atomic             Coordinates (Angstroms)
 Number     Number       Type             X           Y           Z
 ---------------------------------------------------------------------
      1          6           0       -5.601034    1.036955   -0.873652
      2          1           0       -5.237955    0.009975   -0.873652
      3          1           0       -5.237936    1.550438    0.015736
      4          1           0       -5.237937    1.550439   -1.763039
      5          1           0       -6.690307    1.036968   -0.873651
 ---------------------------------------------------------------------
                    Distance matrix (angstroms):
                    1          2          3          4          5
     1  C    0.000000
     2  H    1.089273   0.000000
     3  H    1.089273   1.778775   0.000000
     4  H    1.089273   1.778775   1.778775   0.000000
     5  H    1.089273   1.778775   1.778775   1.778775   0.000000
 Stoichiometry    CH4
 Framework group  TD[O(C),4C3(H)]
 Deg. of freedom     1
 Full point group                 TD      NOp  24
 Omega: Change in point group or standard orientation.

 Old FWG=T    [O(C1),4C3(H1)]
 New FWG=TD   [O(C1),4C3(H1)]
 Largest Abelian subgroup         D2      NOp   4
 Largest concise Abelian subgroup D2      NOp   4
                         Standard orientation:                         
 ---------------------------------------------------------------------
 Center     Atomic      Atomic             Coordinates (Angstroms)
 Number     Number       Type             X           Y           Z
 ---------------------------------------------------------------------
      1          6           0        0.000000    0.000000    0.000000
      2          1           0        0.628892    0.628892    0.628892
      3          1           0       -0.628892   -0.628892    0.628892
      4          1           0       -0.628892    0.628892   -0.628892
      5          1           0        0.628892   -0.628892   -0.628892
 ---------------------------------------------------------------------
 Rotational constants (GHZ):    158.4856772    158.4856772    158.4856772
 Standard basis: 6-311++G(d,p) (5D, 7F)
 There are    14 symmetry adapted basis functions of A   symmetry.
 There are    12 symmetry adapted basis functions of B1  symmetry.
 There are    12 symmetry adapted basis functions of B2  symmetry.
 There are    12 symmetry adapted basis functions of B3  symmetry.
 Integral buffers will be    262144 words long.
 Raffenetti 2 integral format.
 Two-electron integral symmetry is turned on.
    50 basis functions,    72 primitive gaussians,    51 cartesian basis functions
     5 alpha electrons        5 beta electrons
       nuclear repulsion energy        13.4443589486 Hartrees.
 NAtoms=    5 NActive=    5 NUniq=    2 SFac= 3.00D+00 NAtFMM=   80 NAOKFM=F Big=F
 One-electron integrals computed using PRISM.
 NBasis=    50 RedAO= T  NBF=    14    12    12    12
 NBsUse=    50 1.00D-06 NBFU=    14    12    12    12
 Initial guess read from the read-write file.
 B after Tr=     0.000000    0.000000    0.000000
         Rot=    1.000000    0.000000    0.000000    0.000000 Ang=   0.00 deg.
 Initial guess orbital symmetries:
       Occupied  (A1) (A1) (T2) (T2) (T2)
       Virtual   (A1) (T2) (T2) (T2) (T2) (T2) (T2) (A1) (T2) (T2)
                 (T2) (A1) (T2) (T2) (T2) (T2) (T2) (T2) (A1) (A1)
                 (E) (E) (T1) (T1) (T1) (T2) (T2) (T2) (T2) (T2)
                 (T2) (E) (E) (A1) (T2) (T2) (T2) (T2) (T2) (T2)
                 (A1) (T2) (T2) (T2) (A1)
 Harris functional with IExCor= 1009 diagonalized for initial guess.
 ExpMin= 3.60D-02 ExpMax= 4.56D+03 ExpMxC= 6.82D+02 IAcc=3 IRadAn=         0 AccDes= 0.00D+00
 HarFok:  IExCor= 1009 AccDes= 0.00D+00 IRadAn=         0 IDoV= 1
 ScaDFX=  1.000000  1.000000  1.000000  1.000000
 FoFCou: FMM=F IPFlag=           0 FMFlag=      100000 FMFlg1=           0
         NFxFlg=           0 DoJE=T BraDBF=F KetDBF=T FulRan=T
         Omega=  0.000000  0.000000  1.000000  0.000000  0.000000 ICntrl=     500 IOpCl=  0
         NMat0=    1 NMatS0=    1 NMatT0=    0 NMatD0=    1 NMtDS0=    0 NMtDT0=    0
         I1Cent=           4 NGrid=           0.
 Petite list used in FoFCou.
 Requested convergence on RMS density matrix=1.00D-08 within 128 cycles.
 Requested convergence on MAX density matrix=1.00D-06.
 Requested convergence on             energy=1.00D-06.
 No special actions if energy rises.
 Keep R1 ints in memory in canonical form, NReq=1813702.
 SCF Done:  E(RM062X) =  -40.4968466359     A.U. after    7 cycles
             Convg  =    0.3119D-08             -V/T =  2.0053
 Calling FoFJK, ICntrl=      2127 FMM=F ISym2X=1 I1Cent= 0 IOpClX= 0 NMat=1 NMatS=1 NMatT=0.
 ***** Axes restored to original set *****
 -------------------------------------------------------------------
 Center     Atomic                   Forces (Hartrees/Bohr)
 Number     Number              X              Y              Z
 -------------------------------------------------------------------
      1        6           0.000000000    0.000000000    0.000000000
      2        1          -0.000012547    0.000035490    0.000000000
      3        1          -0.000012548   -0.000017745   -0.000030735
      4        1          -0.000012548   -0.000017745    0.000030735
      5        1           0.000037643    0.000000000    0.000000000
 -------------------------------------------------------------------
 Cartesian Forces:  Max     0.000037643 RMS     0.000019439

 GradGradGradGradGradGradGradGradGradGradGradGradGradGradGradGradGradGrad
 Berny optimization.
 Using GEDIIS/GDIIS optimizer.
 Internal  Forces:  Max     0.000037643 RMS     0.000020121
 Search for a local minimum.
 Step number   2 out of a maximum of   24
 All quantities printed in internal units (Hartrees-Bohrs-Radians)
 Mixed Optimization -- En-DIIS/RFO-DIIS
 Update second derivatives using D2CorX and points    1    2
 DE= -9.74D-04 DEPred=-9.98D-04 R= 9.76D-01
 SS=  1.41D+00  RLast= 7.28D-02 DXNew= 5.0454D-01 2.1852D-01
 Trust test= 9.76D-01 RLast= 7.28D-02 DXMaxT set to 3.00D-01
 The second derivative matrix:
                          R1        R2        R3        R4        A1
           R1           0.37306
           R2           0.00075   0.37306
           R3           0.00075   0.00075   0.37306
           R4           0.00075   0.00075   0.00075   0.37306
           A1           0.00000   0.00000   0.00000   0.00000   0.16000
           A2           0.00000   0.00000   0.00000   0.00000   0.00000
           A3           0.00000   0.00000   0.00000   0.00000   0.00000
           A4           0.00000   0.00000   0.00000   0.00000   0.00000
           A5           0.00000   0.00000   0.00000   0.00000   0.00000
           A6           0.00000   0.00000   0.00000   0.00000   0.00000
           D1           0.00000   0.00000   0.00000   0.00000   0.00000
           D2           0.00000   0.00000   0.00000   0.00000   0.00000
           D3           0.00000   0.00000   0.00000   0.00000   0.00000
           D4           0.00000   0.00000   0.00000   0.00000   0.00000
                          A2        A3        A4        A5        A6
           A2           0.16000
           A3           0.00000   0.16000
           A4           0.00000   0.00000   0.16000
           A5           0.00000   0.00000   0.00000   0.16000
           A6           0.00000   0.00000   0.00000   0.00000   0.16000
           D1           0.00000   0.00000   0.00000   0.00000   0.00000
           D2           0.00000   0.00000   0.00000   0.00000   0.00000
           D3           0.00000   0.00000   0.00000   0.00000   0.00000
           D4           0.00000   0.00000   0.00000   0.00000   0.00000
                          D1        D2        D3        D4
           D1           0.00499
           D2           0.00000   0.00499
           D3           0.00000   0.00000   0.00499
           D4           0.00000   0.00000   0.00000   0.00499
 Use linear search instead of GDIIS.
     Eigenvalues ---    0.05269   0.05891   0.08766   0.16000   0.16000
     Eigenvalues ---    0.37230   0.37230   0.37230   0.375321000.00000
     Eigenvalues --- 1000.000001000.000001000.000001000.00000
 RFO step:  Lambda= 0.00000000D+00 EMin= 5.26881010D-02
 Quartic linear search produced a step of -0.00289.
 Iteration  1 RMS(Cart)=  0.00005629 RMS(Int)=  0.00000000
 Iteration  2 RMS(Cart)=  0.00000000 RMS(Int)=  0.00000000
 ClnCor:  largest displacement from symmetrization is 4.65D-14 for atom     3.
 Variable       Old X    -DE/DX   Delta X   Delta X   Delta X     New X
                                 (Linear)    (Quad)   (Total)
    R1        2.05843  -0.00004  -0.00011   0.00000  -0.00011   2.05832
    R2        2.05843  -0.00004  -0.00011   0.00000  -0.00011   2.05832
    R3        2.05843  -0.00004  -0.00011   0.00000  -0.00011   2.05832
    R4        2.05843  -0.00004  -0.00011   0.00000  -0.00011   2.05832
    A1        1.91063   0.00000   0.00000   0.00000   0.00000   1.91063
    A2        1.91063   0.00000   0.00000   0.00000   0.00000   1.91063
    A3        1.91063   0.00000   0.00000   0.00000   0.00000   1.91063
    A4        1.91063   0.00000   0.00000   0.00000   0.00000   1.91063
    A5        1.91063   0.00000   0.00000   0.00000   0.00000   1.91063
    A6        1.91063   0.00000   0.00000   0.00000   0.00000   1.91063
    D1       -2.09440   0.00000   0.00000   0.00000   0.00000  -2.09440
    D2        2.09440   0.00000   0.00000   0.00000   0.00000   2.09440
    D3       -2.09440   0.00000   0.00000   0.00000   0.00000  -2.09440
    D4        2.09440   0.00000   0.00000   0.00000   0.00000   2.09440
         Item               Value     Threshold  Converged?
 Maximum Force            0.000038     0.000450     YES
 RMS     Force            0.000020     0.000300     YES
 Maximum Displacement     0.000105     0.001800     YES
 RMS     Displacement     0.000056     0.001200     YES
 Predicted change in Energy=-7.531926D-09
 Optimization completed.
    -- Stationary point found.
                           ----------------------------
                           !   Optimized Parameters   !
                           ! (Angstroms and Degrees)  !
 --------------------------                            --------------------------
 ! Name  Definition              Value          Derivative Info.                !
 --------------------------------------------------------------------------------
 ! R1    R(1,2)                  1.0893         -DE/DX =    0.0                 !
 ! R2    R(1,3)                  1.0893         -DE/DX =    0.0                 !
 ! R3    R(1,4)                  1.0893         -DE/DX =    0.0                 !
 ! R4    R(1,5)                  1.0893         -DE/DX =    0.0                 !
 ! A1    A(2,1,3)              109.4712         -DE/DX =    0.0                 !
 ! A2    A(2,1,4)              109.4712         -DE/DX =    0.0                 !
 ! A3    A(2,1,5)              109.4712         -DE/DX =    0.0                 !
 ! A4    A(3,1,4)              109.4712         -DE/DX =    0.0                 !
 ! A5    A(3,1,5)              109.4712         -DE/DX =    0.0                 !
 ! A6    A(4,1,5)              109.4712         -DE/DX =    0.0                 !
 ! D1    D(2,1,4,3)           -120.0            -DE/DX =    0.0                 !
 ! D2    D(2,1,5,3)            120.0            -DE/DX =    0.0                 !
 ! D3    D(2,1,5,4)           -120.0            -DE/DX =    0.0                 !
 ! D4    D(3,1,5,4)            120.0            -DE/DX =    0.0                 !
 --------------------------------------------------------------------------------
 GradGradGradGradGradGradGradGradGradGradGradGradGradGradGradGradGradGrad

                          Input orientation:                          
 ---------------------------------------------------------------------
 Center     Atomic      Atomic             Coordinates (Angstroms)
 Number     Number       Type             X           Y           Z
 ---------------------------------------------------------------------
      1          6           0       -5.601034    1.036955   -0.873652
      2          1           0       -5.237955    0.009975   -0.873652
      3          1           0       -5.237936    1.550438    0.015736
      4          1           0       -5.237937    1.550439   -1.763039
      5          1           0       -6.690307    1.036968   -0.873651
 ---------------------------------------------------------------------
                    Distance matrix (angstroms):
                    1          2          3          4          5
     1  C    0.000000
     2  H    1.089273   0.000000
     3  H    1.089273   1.778775   0.000000
     4  H    1.089273   1.778775   1.778775   0.000000
     5  H    1.089273   1.778775   1.778775   1.778775   0.000000
 Stoichiometry    CH4
 Framework group  TD[O(C),4C3(H)]
 Deg. of freedom     1
 Full point group                 TD      NOp  24
 Largest Abelian subgroup         D2      NOp   4
 Largest concise Abelian subgroup D2      NOp   4
                         Standard orientation:                         
 ---------------------------------------------------------------------
 Center     Atomic      Atomic             Coordinates (Angstroms)
 Number     Number       Type             X           Y           Z
 ---------------------------------------------------------------------
      1          6           0        0.000000    0.000000    0.000000
      2          1           0        0.628892    0.628892    0.628892
      3          1           0       -0.628892   -0.628892    0.628892
      4          1           0       -0.628892    0.628892   -0.628892
      5          1           0        0.628892   -0.628892   -0.628892
 ---------------------------------------------------------------------
 Rotational constants (GHZ):    158.4856772    158.4856772    158.4856772

 **********************************************************************

            Population analysis using the SCF density.

 **********************************************************************

 Orbital symmetries:
       Occupied  (A1) (A1) (T2) (T2) (T2)
       Virtual   (A1) (T2) (T2) (T2) (T2) (T2) (T2) (A1) (T2) (T2)
                 (T2) (A1) (T2) (T2) (T2) (T2) (T2) (T2) (A1) (A1)
                 (E) (E) (T1) (T1) (T1) (T2) (T2) (T2) (T2) (T2)
                 (T2) (E) (E) (A1) (T2) (T2) (T2) (T2) (T2) (T2)
                 (A1) (T2) (T2) (T2) (A1)
 The electronic state is 1-A1.
 Alpha  occ. eigenvalues --  -10.51502  -0.78552  -0.45564  -0.45564  -0.45564
 Alpha virt. eigenvalues --    0.00318   0.04075   0.04075   0.04075   0.10077
 Alpha virt. eigenvalues --    0.10077   0.10077   0.14114   0.22855   0.22855
 Alpha virt. eigenvalues --    0.22855   0.29732   0.44477   0.44477   0.44477
 Alpha virt. eigenvalues --    0.71255   0.71255   0.71255   0.72015   0.88152
 Alpha virt. eigenvalues --    1.02524   1.02524   1.50873   1.50873   1.50873
 Alpha virt. eigenvalues --    1.59138   1.59138   1.59138   1.94819   1.94819
 Alpha virt. eigenvalues --    1.94819   2.34186   2.34186   2.38300   2.52139
 Alpha virt. eigenvalues --    2.52139   2.52139   2.61516   2.61516   2.61516
 Alpha virt. eigenvalues --    2.97030   3.84503   3.84503   3.84503  24.11718
          Condensed to atoms (all electrons):
              1          2          3          4          5
     1  C    4.989710   0.397651   0.397651   0.397651   0.397651
     2  H    0.397651   0.555474  -0.032735  -0.032735  -0.032735
     3  H    0.397651  -0.032735   0.555474  -0.032735  -0.032735
     4  H    0.397651  -0.032735  -0.032735   0.555474  -0.032735
     5  H    0.397651  -0.032735  -0.032735  -0.032735   0.555474
 Mulliken atomic charges:
              1
     1  C   -0.580316
     2  H    0.145079
     3  H    0.145079
     4  H    0.145079
     5  H    0.145079
 Sum of Mulliken atomic charges =   0.00000
 Mulliken charges with hydrogens summed into heavy atoms:
              1
     1  C    0.000000
 Sum of Mulliken charges with hydrogens summed into heavy atoms =   0.00000
 Electronic spatial extent (au):  <R**2>=             35.7934
 Charge=              0.0000 electrons
 Dipole moment (field-independent basis, Debye):
    X=              0.0000    Y=              0.0000    Z=              0.0000  Tot=              0.0000
 Quadrupole moment (field-independent basis, Debye-Ang):
   XX=             -8.4490   YY=             -8.4490   ZZ=             -8.4490
   XY=              0.0000   XZ=              0.0000   YZ=              0.0000
 Traceless Quadrupole moment (field-independent basis, Debye-Ang):
   XX=              0.0000   YY=              0.0000   ZZ=              0.0000
   XY=              0.0000   XZ=              0.0000   YZ=              0.0000
 Octapole moment (field-independent basis, Debye-Ang**2):
  XXX=              0.0000  YYY=              0.0000  ZZZ=              0.0000  XYY=              0.0000
  XXY=              0.0000  XXZ=              0.0000  XZZ=              0.0000  YZZ=              0.0000
  YYZ=              0.0000  XYZ=              0.7752
 Hexadecapole moment (field-independent basis, Debye-Ang**3):
 XXXX=            -17.0547 YYYY=            -17.0547 ZZZZ=            -17.0547 XXXY=              0.0000
 XXXZ=              0.0000 YYYX=              0.0000 YYYZ=              0.0000 ZZZX=              0.0000
 ZZZY=              0.0000 XXYY=             -5.1616 XXZZ=             -5.1616 YYZZ=             -5.1616
 XXYZ=              0.0000 YYXZ=              0.0000 ZZXY=              0.0000
 N-N= 1.344435894865D+01 E-N=-1.201173043528D+02  KE= 4.028235886895D+01
 Symmetry A    KE= 3.448210916589D+01
 Symmetry B1   KE= 1.933416567687D+00
 Symmetry B2   KE= 1.933416567687D+00
 Symmetry B3   KE= 1.933416567687D+00
 1|1|UNPC-DESKTOP-319GPER|FOpt|RM062X|6-311++G(d,p)|C1H4|SAGAD|09-Oct-2
 020|0||#opt freq M062X/6-311++g(d,p)||Calculation of methane with m062
 x with 6-311++g(d,p)||0,1|C,-5.60103382,1.036955126,-0.873651501|H,-5.
 2379553431,0.0099745006,-0.8736523785|H,-5.237935954,1.5504383295,0.01
 57359988|H,-5.2379373848,1.5504393436,-1.7630389994|H,-6.6903065981,1.
 0369683303,-0.8736506248||Version=IA32W-G09RevA.02|State=1-A1|HF=-40.4
 968466|RMSD=3.119e-009|RMSF=1.944e-005|Dipole=0.,0.,0.|Quadrupole=0.,0
 .,0.,0.,0.,0.|PG=TD [O(C1),4C3(H1)]||@


 ONE OF THE BENEFITS OF A COLLEGE EDUCATION
 IS TO SHOW THE BOY ITS LITTLE AVAIL 
                                    EMERSON IN 'CULTURE'
 Job cpu time:  0 days  0 hours  0 minutes  7.0 seconds.
 File lengths (MBytes):  RWF=      5 Int=      0 D2E=      0 Chk=      1 Scr=      1
 Normal termination of Gaussian 09 at Fri Oct 09 00:01:56 2020.
 Link1:  Proceeding to internal job step number  2.
 ----------------------------------------------------------------------
 #N Geom=AllCheck Guess=TCheck SCRF=Check GenChk RM062X/6-311++G(d,p) F
 req
 ----------------------------------------------------------------------
 1/10=4,29=7,30=1,38=1,40=1/1,3;
 2/12=2,40=1/2;
 3/5=4,6=6,7=1111,11=2,14=-4,16=1,25=1,30=1,70=2,71=2,74=-55,116=1/1,2,3;
 4/5=101/1;
 5/5=2,98=1/2;
 8/6=4,10=90,11=11/1;
 11/6=1,8=1,9=11,15=111,16=1/1,2,10;
 10/6=1/2;
 6/7=2,8=2,9=2,10=2,18=1,28=1/1;
 7/8=1,10=1,25=1/1,2,3,16;
 1/10=4,30=1/3;
 99//99;
 ----------------------------------------------------
 Calculation of methane with m062x with 6-311++g(d,p)
 ----------------------------------------------------
 Redundant internal coordinates taken from checkpoint file:
 C:\Users\sagad\Documents\rayGit\FQ\quimicaComputacional\class4Metilo\reactivos\methaneM062XTwo.chk
 Charge =  0 Multiplicity = 1
 C,0,-5.60103382,1.036955126,-0.873651501
 H,0,-5.2379553431,0.0099745006,-0.8736523785
 H,0,-5.237935954,1.5504383295,0.0157359988
 H,0,-5.2379373848,1.5504393436,-1.7630389994
 H,0,-6.6903065981,1.0369683303,-0.8736506248
 Recover connectivity data from disk.

 GradGradGradGradGradGradGradGradGradGradGradGradGradGradGradGradGradGrad
 Berny optimization.
 Initialization pass.
                           ----------------------------
                           !    Initial Parameters    !
                           ! (Angstroms and Degrees)  !
 --------------------------                            --------------------------
 ! Name  Definition              Value          Derivative Info.                !
 --------------------------------------------------------------------------------
 ! R1    R(1,2)                  1.0893         calculate D2E/DX2 analytically  !
 ! R2    R(1,3)                  1.0893         calculate D2E/DX2 analytically  !
 ! R3    R(1,4)                  1.0893         calculate D2E/DX2 analytically  !
 ! R4    R(1,5)                  1.0893         calculate D2E/DX2 analytically  !
 ! A1    A(2,1,3)              109.4712         calculate D2E/DX2 analytically  !
 ! A2    A(2,1,4)              109.4712         calculate D2E/DX2 analytically  !
 ! A3    A(2,1,5)              109.4712         calculate D2E/DX2 analytically  !
 ! A4    A(3,1,4)              109.4712         calculate D2E/DX2 analytically  !
 ! A5    A(3,1,5)              109.4712         calculate D2E/DX2 analytically  !
 ! A6    A(4,1,5)              109.4712         calculate D2E/DX2 analytically  !
 ! D1    D(2,1,4,3)           -120.0            calculate D2E/DX2 analytically  !
 ! D2    D(2,1,5,3)            120.0            calculate D2E/DX2 analytically  !
 ! D3    D(2,1,5,4)           -120.0            calculate D2E/DX2 analytically  !
 ! D4    D(3,1,5,4)            120.0            calculate D2E/DX2 analytically  !
 --------------------------------------------------------------------------------
 Trust Radius=3.00D-01 FncErr=1.00D-07 GrdErr=1.00D-07
 Number of steps in this run=   2 maximum allowed number of steps=   2.
 GradGradGradGradGradGradGradGradGradGradGradGradGradGradGradGradGradGrad

                          Input orientation:                          
 ---------------------------------------------------------------------
 Center     Atomic      Atomic             Coordinates (Angstroms)
 Number     Number       Type             X           Y           Z
 ---------------------------------------------------------------------
      1          6           0       -5.601034    1.036955   -0.873652
      2          1           0       -5.237955    0.009975   -0.873652
      3          1           0       -5.237936    1.550438    0.015736
      4          1           0       -5.237937    1.550439   -1.763039
      5          1           0       -6.690307    1.036968   -0.873651
 ---------------------------------------------------------------------
                    Distance matrix (angstroms):
                    1          2          3          4          5
     1  C    0.000000
     2  H    1.089273   0.000000
     3  H    1.089273   1.778775   0.000000
     4  H    1.089273   1.778775   1.778775   0.000000
     5  H    1.089273   1.778775   1.778775   1.778775   0.000000
 Stoichiometry    CH4
 Framework group  TD[O(C),4C3(H)]
 Deg. of freedom     1
 Full point group                 TD      NOp  24
 Largest Abelian subgroup         D2      NOp   4
 Largest concise Abelian subgroup D2      NOp   4
                         Standard orientation:                         
 ---------------------------------------------------------------------
 Center     Atomic      Atomic             Coordinates (Angstroms)
 Number     Number       Type             X           Y           Z
 ---------------------------------------------------------------------
      1          6           0        0.000000    0.000000    0.000000
      2          1           0        0.628892    0.628892    0.628892
      3          1           0       -0.628892   -0.628892    0.628892
      4          1           0       -0.628892    0.628892   -0.628892
      5          1           0        0.628892   -0.628892   -0.628892
 ---------------------------------------------------------------------
 Rotational constants (GHZ):    158.4856772    158.4856772    158.4856772
 Standard basis: 6-311++G(d,p) (5D, 7F)
 There are    14 symmetry adapted basis functions of A   symmetry.
 There are    12 symmetry adapted basis functions of B1  symmetry.
 There are    12 symmetry adapted basis functions of B2  symmetry.
 There are    12 symmetry adapted basis functions of B3  symmetry.
 Integral buffers will be    262144 words long.
 Raffenetti 2 integral format.
 Two-electron integral symmetry is turned on.
    50 basis functions,    72 primitive gaussians,    51 cartesian basis functions
     5 alpha electrons        5 beta electrons
       nuclear repulsion energy        13.4443589486 Hartrees.
 NAtoms=    5 NActive=    5 NUniq=    2 SFac= 3.00D+00 NAtFMM=   80 NAOKFM=F Big=F
 One-electron integrals computed using PRISM.
 NBasis=    50 RedAO= T  NBF=    14    12    12    12
 NBsUse=    50 1.00D-06 NBFU=    14    12    12    12
 Initial guess read from the checkpoint file:  C:\Users\sagad\Documents\rayGit\FQ
 \quimicaComputacional\class4Metilo\reactivos\methaneM062XTwo.chk
 B after Tr=     0.000000    0.000000    0.000000
         Rot=    1.000000    0.000000    0.000000    0.000000 Ang=   0.00 deg.
 Initial guess orbital symmetries:
       Occupied  (A1) (A1) (T2) (T2) (T2)
       Virtual   (A1) (T2) (T2) (T2) (T2) (T2) (T2) (A1) (T2) (T2)
                 (T2) (A1) (T2) (T2) (T2) (T2) (T2) (T2) (A1) (A1)
                 (E) (E) (T1) (T1) (T1) (T2) (T2) (T2) (T2) (T2)
                 (T2) (E) (E) (A1) (T2) (T2) (T2) (T2) (T2) (T2)
                 (A1) (T2) (T2) (T2) (A1)
 Requested convergence on RMS density matrix=1.00D-08 within 128 cycles.
 Requested convergence on MAX density matrix=1.00D-06.
 Requested convergence on             energy=1.00D-06.
 No special actions if energy rises.
 Keep R1 ints in memory in canonical form, NReq=1813702.
 SCF Done:  E(RM062X) =  -40.4968466359     A.U. after    1 cycles
             Convg  =    0.2205D-09             -V/T =  2.0053
 Range of M.O.s used for correlation:     1    50
 NBasis=    50 NAE=     5 NBE=     5 NFC=     0 NFV=     0
 NROrb=     50 NOA=     5 NOB=     5 NVA=    45 NVB=    45

 **** Warning!!: The largest alpha MO coefficient is  0.15379953D+02

 Symmetrizing basis deriv contribution to polar:
 IMax=3 JMax=2 DiffMx= 0.00D+00
 G2DrvN: will do     6 centers at a time, making    1 passes doing MaxLOS=2.
 Calling FoFCou, ICntrl=  3107 FMM=F I1Cent=   0 AccDes= 0.00D+00.
 FoFDir/FoFCou used for L=0 through L=2.
 End of G2Drv Frequency-dependent properties file   721 does not exist.
 End of G2Drv Frequency-dependent properties file   722 does not exist.
          IDoAtm=11111
          Differentiating once with respect to electric field.
                with respect to dipole field.
          Differentiating once with respect to nuclear coordinates.
          Keep R1 ints in memory in canonical form, NReq=1701327.
          There are     9 degrees of freedom in the 1st order CPHF.  IDoFFX=4.
      9 vectors produced by pass  0 Test12= 2.50D-15 1.11D-08 XBig12= 5.29D+00 8.86D-01.
 AX will form     9 AO Fock derivatives at one time.
      9 vectors produced by pass  1 Test12= 2.50D-15 1.11D-08 XBig12= 1.30D-01 1.48D-01.
      9 vectors produced by pass  2 Test12= 2.50D-15 1.11D-08 XBig12= 1.19D-03 1.28D-02.
      9 vectors produced by pass  3 Test12= 2.50D-15 1.11D-08 XBig12= 7.62D-06 1.03D-03.
      9 vectors produced by pass  4 Test12= 2.50D-15 1.11D-08 XBig12= 3.09D-08 5.09D-05.
      9 vectors produced by pass  5 Test12= 2.50D-15 1.11D-08 XBig12= 8.11D-11 4.17D-06.
      3 vectors produced by pass  6 Test12= 2.50D-15 1.11D-08 XBig12= 1.18D-13 1.20D-07.
 Inverted reduced A of dimension    57 with in-core refinement.
 Isotropic polarizability for W=    0.000000       14.18 Bohr**3.
 End of Minotr Frequency-dependent properties file   721 does not exist.
 End of Minotr Frequency-dependent properties file   722 does not exist.

 **********************************************************************

            Population analysis using the SCF density.

 **********************************************************************

 Orbital symmetries:
       Occupied  (A1) (A1) (T2) (T2) (T2)
       Virtual   (A1) (T2) (T2) (T2) (T2) (T2) (T2) (A1) (T2) (T2)
                 (T2) (A1) (T2) (T2) (T2) (T2) (T2) (T2) (A1) (A1)
                 (E) (E) (T1) (T1) (T1) (T2) (T2) (T2) (T2) (T2)
                 (T2) (E) (E) (A1) (T2) (T2) (T2) (T2) (T2) (T2)
                 (A1) (T2) (T2) (T2) (A1)
 The electronic state is 1-A1.
 Alpha  occ. eigenvalues --  -10.51502  -0.78552  -0.45564  -0.45564  -0.45564
 Alpha virt. eigenvalues --    0.00318   0.04075   0.04075   0.04075   0.10077
 Alpha virt. eigenvalues --    0.10077   0.10077   0.14114   0.22855   0.22855
 Alpha virt. eigenvalues --    0.22855   0.29732   0.44477   0.44477   0.44477
 Alpha virt. eigenvalues --    0.71255   0.71255   0.71255   0.72015   0.88152
 Alpha virt. eigenvalues --    1.02524   1.02524   1.50873   1.50873   1.50873
 Alpha virt. eigenvalues --    1.59138   1.59138   1.59138   1.94819   1.94819
 Alpha virt. eigenvalues --    1.94819   2.34186   2.34186   2.38300   2.52139
 Alpha virt. eigenvalues --    2.52139   2.52139   2.61516   2.61516   2.61516
 Alpha virt. eigenvalues --    2.97030   3.84503   3.84503   3.84503  24.11718
          Condensed to atoms (all electrons):
              1          2          3          4          5
     1  C    4.989710   0.397651   0.397651   0.397651   0.397651
     2  H    0.397651   0.555474  -0.032735  -0.032735  -0.032735
     3  H    0.397651  -0.032735   0.555474  -0.032735  -0.032735
     4  H    0.397651  -0.032735  -0.032735   0.555474  -0.032735
     5  H    0.397651  -0.032735  -0.032735  -0.032735   0.555474
 Mulliken atomic charges:
              1
     1  C   -0.580316
     2  H    0.145079
     3  H    0.145079
     4  H    0.145079
     5  H    0.145079
 Sum of Mulliken atomic charges =   0.00000
 Mulliken charges with hydrogens summed into heavy atoms:
              1
     1  C    0.000000
 Sum of Mulliken charges with hydrogens summed into heavy atoms =   0.00000
 APT atomic charges:
              1
     1  C   -0.061921
     2  H    0.015480
     3  H    0.015480
     4  H    0.015480
     5  H    0.015480
 Sum of APT charges=   0.00000
 APT Atomic charges with hydrogens summed into heavy atoms:
              1
     1  C    0.000000
     2  H    0.000000
     3  H    0.000000
     4  H    0.000000
     5  H    0.000000
 Sum of APT charges=   0.00000
 Electronic spatial extent (au):  <R**2>=             35.7934
 Charge=              0.0000 electrons
 Dipole moment (field-independent basis, Debye):
    X=              0.0000    Y=              0.0000    Z=              0.0000  Tot=              0.0000
 Quadrupole moment (field-independent basis, Debye-Ang):
   XX=             -8.4490   YY=             -8.4490   ZZ=             -8.4490
   XY=              0.0000   XZ=              0.0000   YZ=              0.0000
 Traceless Quadrupole moment (field-independent basis, Debye-Ang):
   XX=              0.0000   YY=              0.0000   ZZ=              0.0000
   XY=              0.0000   XZ=              0.0000   YZ=              0.0000
 Octapole moment (field-independent basis, Debye-Ang**2):
  XXX=              0.0000  YYY=              0.0000  ZZZ=              0.0000  XYY=              0.0000
  XXY=              0.0000  XXZ=              0.0000  XZZ=              0.0000  YZZ=              0.0000
  YYZ=              0.0000  XYZ=              0.7752
 Hexadecapole moment (field-independent basis, Debye-Ang**3):
 XXXX=            -17.0547 YYYY=            -17.0547 ZZZZ=            -17.0547 XXXY=              0.0000
 XXXZ=              0.0000 YYYX=              0.0000 YYYZ=              0.0000 ZZZX=              0.0000
 ZZZY=              0.0000 XXYY=             -5.1616 XXZZ=             -5.1616 YYZZ=             -5.1616
 XXYZ=              0.0000 YYXZ=              0.0000 ZZXY=              0.0000
 N-N= 1.344435894865D+01 E-N=-1.201173043865D+02  KE= 4.028235888400D+01
 Symmetry A    KE= 3.448210916904D+01
 Symmetry B1   KE= 1.933416571654D+00
 Symmetry B2   KE= 1.933416571654D+00
 Symmetry B3   KE= 1.933416571654D+00
  Exact polarizability:  14.184   0.000  14.184   0.000   0.000  14.184
 Approx polarizability:  14.659   0.000  14.659   0.000   0.000  14.659
 Calling FoFJK, ICntrl=    100127 FMM=F ISym2X=1 I1Cent= 0 IOpClX= 0 NMat=1 NMatS=1 NMatT=0.
 Full mass-weighted force constant matrix:
 Low frequencies ---    0.0005    0.0005    0.0009  115.3068  115.3068  115.3068
 Low frequencies --- 1350.6000 1350.6000 1350.6000
 Diagonal vibrational polarizability:
        0.3467542       0.3467542       0.3467542
 Harmonic frequencies (cm**-1), IR intensities (KM/Mole), Raman scattering
 activities (A**4/AMU), depolarization ratios for plane and unpolarized
 incident light, reduced masses (AMU), force constants (mDyne/A),
 and normal coordinates:
                     1                      2                      3
                    T2                     T2                     T2
 Frequencies --  1350.6000              1350.6000              1350.6000
 Red. masses --     1.1786                 1.1786                 1.1786
 Frc consts  --     1.2667                 1.2667                 1.2667
 IR Inten    --    20.5173                20.5173                20.5173
  Atom  AN      X      Y      Z        X      Y      Z        X      Y      Z
     1   6     0.12   0.01   0.00    -0.01   0.12   0.00     0.00  -0.01   0.12
     2   1    -0.35   0.22   0.23     0.27  -0.38   0.20     0.24   0.24  -0.39
     3   1    -0.36   0.20  -0.26     0.25  -0.39  -0.23    -0.23  -0.23  -0.35
     4   1    -0.38  -0.26   0.20    -0.20  -0.36  -0.26     0.25  -0.21  -0.37
     5   1    -0.39  -0.25  -0.23    -0.22  -0.35   0.23    -0.21   0.26  -0.37
                     4                      5                      6
                     E                      E                     A1
 Frequencies --  1570.4492              1570.4492              3060.6346
 Red. masses --     1.0078                 1.0078                 1.0078
 Frc consts  --     1.4645                 1.4645                 5.5623
 IR Inten    --     0.0000                 0.0000                 0.0000
  Atom  AN      X      Y      Z        X      Y      Z        X      Y      Z
     1   6     0.00   0.00   0.00     0.00   0.00   0.00     0.00   0.00   0.00
     2   1    -0.31   0.39  -0.08    -0.27  -0.13   0.40    -0.29  -0.29  -0.29
     3   1     0.31  -0.39  -0.08     0.27   0.13   0.40     0.29   0.29  -0.29
     4   1     0.31   0.39   0.08     0.27  -0.13  -0.40     0.29  -0.29   0.29
     5   1    -0.31  -0.39   0.08    -0.27   0.13  -0.40    -0.29   0.29   0.29
                     7                      8                      9
                    T2                     T2                     T2
 Frequencies --  3182.0039              3182.0039              3182.0039
 Red. masses --     1.1020                 1.1020                 1.1020
 Frc consts  --     6.5739                 6.5739                 6.5739
 IR Inten    --    16.5786                16.5786                16.5786
  Atom  AN      X      Y      Z        X      Y      Z        X      Y      Z
     1   6     0.00   0.09   0.01     0.03  -0.01   0.09    -0.09   0.00   0.03
     2   1    -0.32  -0.30  -0.32    -0.34  -0.34  -0.32     0.18   0.20   0.20
     3   1    -0.28  -0.26   0.28     0.22   0.22  -0.20     0.35   0.36  -0.36
     4   1     0.26  -0.25   0.27    -0.38   0.38  -0.37     0.18  -0.20   0.20
     5   1     0.31  -0.29  -0.30     0.18  -0.18  -0.16     0.35  -0.37  -0.36

 -------------------
 - Thermochemistry -
 -------------------
 Temperature   298.150 Kelvin.  Pressure   1.00000 Atm.
 Atom     1 has atomic number  6 and mass  12.00000
 Atom     2 has atomic number  1 and mass   1.00783
 Atom     3 has atomic number  1 and mass   1.00783
 Atom     4 has atomic number  1 and mass   1.00783
 Atom     5 has atomic number  1 and mass   1.00783
 Molecular mass:    16.03130 amu.
 Principal axes and moments of inertia in atomic units:
                           1         2         3
     Eigenvalues --    11.38741  11.38741  11.38741
           X           -0.07939   0.38446   0.91972
           Y            0.93664   0.34455  -0.06317
           Z           -0.34118   0.85643  -0.38745
 This molecule is a spherical top.
 Rotational symmetry number 12.
 Rotational temperatures (Kelvin)      7.60610     7.60610     7.60610
 Rotational constants (GHZ):         158.48568   158.48568   158.48568
 Zero-point vibrational energy     118426.4 (Joules/Mol)
                                   28.30458 (Kcal/Mol)
 Vibrational temperatures:   1943.21  1943.21  1943.21  2259.52  2259.52
          (Kelvin)           4403.56  4578.19  4578.19  4578.19
 
 Zero-point correction=                           0.045106 (Hartree/Particle)
 Thermal correction to Energy=                    0.047973
 Thermal correction to Enthalpy=                  0.048918
 Thermal correction to Gibbs Free Energy=         0.027793
 Sum of electronic and zero-point Energies=            -40.451740
 Sum of electronic and thermal Energies=               -40.448873
 Sum of electronic and thermal Enthalpies=             -40.447929
 Sum of electronic and thermal Free Energies=          -40.469054
 
                     E (Thermal)             CV                S
                      KCal/Mol        Cal/Mol-Kelvin    Cal/Mol-Kelvin
 Total                   30.104              6.454             44.461
 Electronic               0.000              0.000              0.000
 Translational            0.889              2.981             34.261
 Rotational               0.889              2.981             10.116
 Vibrational             28.326              0.493              0.084
                       Q            Log10(Q)             Ln(Q)
 Total Bot       0.164514D-12        -12.783798        -29.435782
 Total V=0       0.919563D+08          7.963582         18.336825
 Vib (Bot)       0.179884D-20        -20.745009        -47.767147
 Vib (V=0)       0.100547D+01          0.002371          0.005459
 Electronic      0.100000D+01          0.000000          0.000000
 Translational   0.252295D+07          6.401908         14.740939
 Rotational      0.362495D+02          1.559303          3.590427
 ***** Axes restored to original set *****
 -------------------------------------------------------------------
 Center     Atomic                   Forces (Hartrees/Bohr)
 Number     Number              X              Y              Z
 -------------------------------------------------------------------
      1        6           0.000000000    0.000000000    0.000000000
      2        1          -0.000012547    0.000035490    0.000000000
      3        1          -0.000012548   -0.000017745   -0.000030735
      4        1          -0.000012548   -0.000017745    0.000030735
      5        1           0.000037643    0.000000000    0.000000000
 -------------------------------------------------------------------
 Cartesian Forces:  Max     0.000037643 RMS     0.000019439

 GradGradGradGradGradGradGradGradGradGradGradGradGradGradGradGradGradGrad
 Berny optimization.
 Internal  Forces:  Max     0.000037643 RMS     0.000020121
 Search for a local minimum.
 Step number   1 out of a maximum of    2
 All quantities printed in internal units (Hartrees-Bohrs-Radians)
 Second derivative matrix not updated -- analytic derivatives used.
 The second derivative matrix:
                          R1        R2        R3        R4        A1
           R1           0.35224
           R2           0.00168   0.35224
           R3           0.00168   0.00168   0.35224
           R4           0.00168   0.00168   0.00168   0.35224
           A1           0.00188   0.00188  -0.00118  -0.00258   0.01969
           A2           0.00295  -0.00076   0.00329  -0.00548  -0.00874
           A3           0.00577  -0.00463  -0.00512   0.00399  -0.01305
           A4          -0.00076   0.00295   0.00329  -0.00548  -0.00874
           A5          -0.00463   0.00577  -0.00512   0.00399  -0.01305
           A6          -0.00521  -0.00521   0.00486   0.00556   0.02389
           D1          -0.00365  -0.00365  -0.00257   0.00987  -0.01341
           D2           0.00300   0.00300  -0.00772   0.00172   0.00813
           D3          -0.00396   0.00696  -0.00386   0.00086   0.00407
           D4          -0.00696   0.00396   0.00386  -0.00086  -0.00407
                          A2        A3        A4        A5        A6
           A2           0.03712
           A3          -0.02256   0.07252
           A4          -0.00207   0.02478   0.03712
           A5           0.02478  -0.03517  -0.02256   0.07252
           A6          -0.02853  -0.02652  -0.02853  -0.02652   0.08620
           D1          -0.01075   0.01462  -0.01075   0.01462   0.00567
           D2          -0.00934   0.00689  -0.00934   0.00689  -0.00322
           D3          -0.01418  -0.00054   0.00483   0.00742  -0.00161
           D4          -0.00483  -0.00742   0.01418   0.00054   0.00161
                          D1        D2        D3        D4
           D1           0.02959
           D2           0.00149   0.01839
           D3           0.00074   0.00920   0.01868
           D4          -0.00074  -0.00920   0.00948   0.01868
     Eigenvalues ---    0.03775   0.04253   0.06463   0.13113   0.13165
     Eigenvalues ---    0.35141   0.35142   0.35167   0.357271000.00000
     Eigenvalues --- 1000.000001000.000001000.000001000.00000
 Angle between quadratic step and forces=   0.00 degrees.
 Linear search not attempted -- first point.
 Iteration  1 RMS(Cart)=  0.00005632 RMS(Int)=  0.00000000
 Iteration  2 RMS(Cart)=  0.00000000 RMS(Int)=  0.00000000
 ClnCor:  largest displacement from symmetrization is 1.40D-13 for atom     5.
 Variable       Old X    -DE/DX   Delta X   Delta X   Delta X     New X
                                 (Linear)    (Quad)   (Total)
    R1        2.05843  -0.00004   0.00000  -0.00011  -0.00011   2.05832
    R2        2.05843  -0.00004   0.00000  -0.00011  -0.00011   2.05832
    R3        2.05843  -0.00004   0.00000  -0.00011  -0.00011   2.05832
    R4        2.05843  -0.00004   0.00000  -0.00011  -0.00011   2.05832
    A1        1.91063   0.00000   0.00000   0.00000   0.00000   1.91063
    A2        1.91063   0.00000   0.00000   0.00000   0.00000   1.91063
    A3        1.91063   0.00000   0.00000   0.00000   0.00000   1.91063
    A4        1.91063   0.00000   0.00000   0.00000   0.00000   1.91063
    A5        1.91063   0.00000   0.00000   0.00000   0.00000   1.91063
    A6        1.91063   0.00000   0.00000   0.00000   0.00000   1.91063
    D1       -2.09440   0.00000   0.00000   0.00000   0.00000  -2.09440
    D2        2.09440   0.00000   0.00000   0.00000   0.00000   2.09440
    D3       -2.09440   0.00000   0.00000   0.00000   0.00000  -2.09440
    D4        2.09440   0.00000   0.00000   0.00000   0.00000   2.09440
         Item               Value     Threshold  Converged?
 Maximum Force            0.000038     0.000450     YES
 RMS     Force            0.000020     0.000300     YES
 Maximum Displacement     0.000105     0.001800     YES
 RMS     Displacement     0.000056     0.001200     YES
 Predicted change in Energy=-7.932137D-09
 Optimization completed.
    -- Stationary point found.
                           ----------------------------
                           !   Optimized Parameters   !
                           ! (Angstroms and Degrees)  !
 --------------------------                            --------------------------
 ! Name  Definition              Value          Derivative Info.                !
 --------------------------------------------------------------------------------
 ! R1    R(1,2)                  1.0893         -DE/DX =    0.0                 !
 ! R2    R(1,3)                  1.0893         -DE/DX =    0.0                 !
 ! R3    R(1,4)                  1.0893         -DE/DX =    0.0                 !
 ! R4    R(1,5)                  1.0893         -DE/DX =    0.0                 !
 ! A1    A(2,1,3)              109.4712         -DE/DX =    0.0                 !
 ! A2    A(2,1,4)              109.4712         -DE/DX =    0.0                 !
 ! A3    A(2,1,5)              109.4712         -DE/DX =    0.0                 !
 ! A4    A(3,1,4)              109.4712         -DE/DX =    0.0                 !
 ! A5    A(3,1,5)              109.4712         -DE/DX =    0.0                 !
 ! A6    A(4,1,5)              109.4712         -DE/DX =    0.0                 !
 ! D1    D(2,1,4,3)           -120.0            -DE/DX =    0.0                 !
 ! D2    D(2,1,5,3)            120.0            -DE/DX =    0.0                 !
 ! D3    D(2,1,5,4)           -120.0            -DE/DX =    0.0                 !
 ! D4    D(3,1,5,4)            120.0            -DE/DX =    0.0                 !
 --------------------------------------------------------------------------------
 GradGradGradGradGradGradGradGradGradGradGradGradGradGradGradGradGradGrad

 1|1|UNPC-DESKTOP-319GPER|Freq|RM062X|6-311++G(d,p)|C1H4|SAGAD|09-Oct-2
 020|0||#N Geom=AllCheck Guess=TCheck SCRF=Check GenChk RM062X/6-311++G
 (d,p) Freq||Calculation of methane with m062x with 6-311++g(d,p)||0,1|
 C,-5.60103382,1.036955126,-0.873651501|H,-5.2379553431,0.0099745006,-0
 .8736523785|H,-5.237935954,1.5504383295,0.0157359988|H,-5.2379373848,1
 .5504393436,-1.7630389994|H,-6.6903065981,1.0369683303,-0.8736506248||
 Version=IA32W-G09RevA.02|State=1-A1|HF=-40.4968466|RMSD=2.205e-010|RMS
 F=1.944e-005|ZeroPoint=0.0451062|Thermal=0.0479734|Dipole=0.,0.,0.|Dip
 oleDeriv=-0.0619207,0.,0.,0.,-0.0619207,0.,0.,0.,-0.0619207,0.0608621,
 0.0641757,0.,0.0641757,-0.0979724,-0.0000002,0.,-0.0000002,0.0835508,0
 .0608597,-0.0320891,-0.0555805,-0.0320891,0.0381713,-0.0786004,-0.0555
 805,-0.0786004,-0.0525904,0.0608599,-0.032089,0.0555803,-0.032089,0.03
 81711,0.0786006,0.0555803,0.0786006,-0.0525904,-0.120661,0.0000025,0.0
 000002,0.0000025,0.0835508,0.,0.0000002,0.,0.0835508|Polar=14.1839134,
 0.,14.1839134,0.,0.,14.1839134|PG=TD [O(C1),4C3(H1)]|NImag=0||0.559898
 25,0.,0.55989824,0.,0.,0.55989825,-0.07759938,0.08820616,0.00000008,0.
 07959170,0.08820616,-0.29590932,-0.00000021,-0.09639301,0.31816405,0.0
 0000008,-0.00000021,-0.04641499,-0.00000008,0.00000023,0.04551294,-0.0
 7760271,-0.04410483,-0.07639253,0.00319518,0.00468615,0.01081802,0.079
 59534,-0.04410483,-0.10878685,-0.10803225,-0.01171232,-0.01231421,-0.0
 2521213,0.04819841,0.11367383,-0.07639253,-0.10803225,-0.23353413,0.00
 135068,0.00156655,0.00133736,0.08348289,0.11805926,0.24999952,-0.07760
 246,-0.04410474,0.07639223,0.00319516,0.00468616,-0.01081801,0.0031954
 3,0.00702584,-0.00946783,0.07959507,-0.04410474,-0.10878709,0.10803247
 ,-0.01171228,-0.01231424,0.02521213,0.00702581,0.00816306,-0.01338916,
 0.04819832,0.11367410,0.07639223,0.10803247,-0.23353413,-0.00135069,-0
 .00156657,0.00133741,0.00946780,0.01338918,-0.01914015,-0.08348257,-0.
 11805949,0.24999952,-0.32709370,0.00000340,0.00000023,-0.00838267,-0.0
 0118547,0.,-0.00838324,0.00059289,0.00102679,-0.00838320,0.00059289,-0
 .00102677,0.35224281,0.00000340,-0.04641499,0.,0.03161145,0.00237371,-
 0.00000002,-0.01580555,-0.00073583,0.00179561,-0.01580559,-0.00073582,
 -0.00179559,-0.00000372,0.04551294,0.00000023,0.,-0.04641499,0.0000000
 2,0.,-0.00177271,-0.02737619,0.00179594,0.00133741,0.02737618,-0.00179
 594,0.00133736,-0.00000025,0.,0.04551294||0.,0.,0.,0.00001255,-0.00003
 549,0.,0.00001255,0.00001774,0.00003074,0.00001255,0.00001774,-0.00003
 074,-0.00003764,0.,0.|||@


 ONE OF THE BENEFITS OF A COLLEGE EDUCATION
 IS TO SHOW THE BOY ITS LITTLE AVAIL 
                                    EMERSON IN 'CULTURE'
 Job cpu time:  0 days  0 hours  0 minutes  9.0 seconds.
 File lengths (MBytes):  RWF=      5 Int=      0 D2E=      0 Chk=      1 Scr=      1
 Normal termination of Gaussian 09 at Fri Oct 09 00:02:05 2020.
