 Entering Link 1 = C:\G09W\l1.exe PID=      5412.
  
 Copyright (c) 1988,1990,1992,1993,1995,1998,2003,2009, Gaussian, Inc.
                  All Rights Reserved.
  
 This is part of the Gaussian(R) 09 program.  It is based on
 the Gaussian(R) 03 system (copyright 2003, Gaussian, Inc.),
 the Gaussian(R) 98 system (copyright 1998, Gaussian, Inc.),
 the Gaussian(R) 94 system (copyright 1995, Gaussian, Inc.),
 the Gaussian 92(TM) system (copyright 1992, Gaussian, Inc.),
 the Gaussian 90(TM) system (copyright 1990, Gaussian, Inc.),
 the Gaussian 88(TM) system (copyright 1988, Gaussian, Inc.),
 the Gaussian 86(TM) system (copyright 1986, Carnegie Mellon
 University), and the Gaussian 82(TM) system (copyright 1983,
 Carnegie Mellon University). Gaussian is a federally registered
 trademark of Gaussian, Inc.
  
 This software contains proprietary and confidential information,
 including trade secrets, belonging to Gaussian, Inc.
  
 This software is provided under written license and may be
 used, copied, transmitted, or stored only in accord with that
 written license.
  
 The following legend is applicable only to US Government
 contracts under FAR:
  
                    RESTRICTED RIGHTS LEGEND
  
 Use, reproduction and disclosure by the US Government is
 subject to restrictions as set forth in subparagraphs (a)
 and (c) of the Commercial Computer Software - Restricted
 Rights clause in FAR 52.227-19.
  
 Gaussian, Inc.
 340 Quinnipiac St., Bldg. 40, Wallingford CT 06492
  
  
 ---------------------------------------------------------------
 Warning -- This program may not be used in any manner that
 competes with the business of Gaussian, Inc. or will provide
 assistance to any competitor of Gaussian, Inc.  The licensee
 of this program is prohibited from giving any competitor of
 Gaussian, Inc. access to this program.  By using this program,
 the user acknowledges that Gaussian, Inc. is engaged in the
 business of creating and licensing software in the field of
 computational chemistry and represents and warrants to the
 licensee that it is not a competitor of Gaussian, Inc. and that
 it will not use this program in any manner prohibited above.
 ---------------------------------------------------------------
  

 Cite this work as:
 Gaussian 09, Revision A.02,
 M. J. Frisch, G. W. Trucks, H. B. Schlegel, G. E. Scuseria, 
 M. A. Robb, J. R. Cheeseman, G. Scalmani, V. Barone, B. Mennucci, 
 G. A. Petersson, H. Nakatsuji, M. Caricato, X. Li, H. P. Hratchian, 
 A. F. Izmaylov, J. Bloino, G. Zheng, J. L. Sonnenberg, M. Hada, 
 M. Ehara, K. Toyota, R. Fukuda, J. Hasegawa, M. Ishida, T. Nakajima, 
 Y. Honda, O. Kitao, H. Nakai, T. Vreven, J. A. Montgomery, Jr., 
 J. E. Peralta, F. Ogliaro, M. Bearpark, J. J. Heyd, E. Brothers, 
 K. N. Kudin, V. N. Staroverov, R. Kobayashi, J. Normand, 
 K. Raghavachari, A. Rendell, J. C. Burant, S. S. Iyengar, J. Tomasi, 
 M. Cossi, N. Rega, J. M. Millam, M. Klene, J. E. Knox, J. B. Cross, 
 V. Bakken, C. Adamo, J. Jaramillo, R. Gomperts, R. E. Stratmann, 
 O. Yazyev, A. J. Austin, R. Cammi, C. Pomelli, J. W. Ochterski, 
 R. L. Martin, K. Morokuma, V. G. Zakrzewski, G. A. Voth, 
 P. Salvador, J. J. Dannenberg, S. Dapprich, A. D. Daniels, 
 O. Farkas, J. B. Foresman, J. V. Ortiz, J. Cioslowski, 
 and D. J. Fox, Gaussian, Inc., Wallingford CT, 2009.
 
 ******************************************
 Gaussian 09:  IA32W-G09RevA.02 11-Jun-2009
                08-Oct-2020 
 ******************************************
 %chk=C:\Users\sagad\Documents\rayGit\FQ\quimicaComputacional\class4Metilo\reacti
 vos\methaneB3LYP.chk
 %nprocshared=4
 Will use up to    4 processors via shared memory.
 %mem=1500MB
 ---------------------------
 #opt freq B3LYP/6-31+g(d,p)
 ---------------------------
 1/14=-1,18=20,19=15,26=3,38=1/1,3;
 2/9=110,12=2,17=6,18=5,40=1/2;
 3/5=1,6=6,7=111,11=2,16=1,25=1,30=1,71=1,74=-5/1,2,3;
 4//1;
 5/5=2,38=5/2;
 6/7=2,8=2,9=2,10=2,28=1/1;
 7//1,2,3,16;
 1/14=-1,18=20,19=15/3(2);
 2/9=110/2;
 99//99;
 2/9=110/2;
 3/5=1,6=6,7=111,11=2,16=1,25=1,30=1,71=1,74=-5/1,2,3;
 4/5=5,16=3/1;
 5/5=2,38=5/2;
 7//1,2,3,16;
 1/14=-1,18=20,19=15/3(-5);
 2/9=110/2;
 6/7=2,8=2,9=2,10=2,19=2,28=1/1;
 99/9=1/99;
 -----------------------------------
 Calculation of methane with B3LYP/6
 -----------------------------------
 Symbolic Z-matrix:
 Charge =  0 Multiplicity = 1
 C                    -5.60103   1.03696  -0.87365 
 H                    -5.24438   0.02815  -0.87365 
 H                    -5.24436   1.54135   0. 
 H                    -5.24436   1.54135  -1.7473 
 H                    -6.67103   1.03697  -0.87365 
 

 GradGradGradGradGradGradGradGradGradGradGradGradGradGradGradGradGradGrad
 Berny optimization.
 Initialization pass.
                           ----------------------------
                           !    Initial Parameters    !
                           ! (Angstroms and Degrees)  !
 --------------------------                            --------------------------
 ! Name  Definition              Value          Derivative Info.                !
 --------------------------------------------------------------------------------
 ! R1    R(1,2)                  1.07           estimate D2E/DX2                !
 ! R2    R(1,3)                  1.07           estimate D2E/DX2                !
 ! R3    R(1,4)                  1.07           estimate D2E/DX2                !
 ! R4    R(1,5)                  1.07           estimate D2E/DX2                !
 ! A1    A(2,1,3)              109.4712         estimate D2E/DX2                !
 ! A2    A(2,1,4)              109.4712         estimate D2E/DX2                !
 ! A3    A(2,1,5)              109.4712         estimate D2E/DX2                !
 ! A4    A(3,1,4)              109.4713         estimate D2E/DX2                !
 ! A5    A(3,1,5)              109.4712         estimate D2E/DX2                !
 ! A6    A(4,1,5)              109.4712         estimate D2E/DX2                !
 ! D1    D(2,1,4,3)           -120.0            estimate D2E/DX2                !
 ! D2    D(2,1,5,3)            120.0            estimate D2E/DX2                !
 ! D3    D(2,1,5,4)           -120.0            estimate D2E/DX2                !
 ! D4    D(3,1,5,4)            120.0            estimate D2E/DX2                !
 --------------------------------------------------------------------------------
 Trust Radius=3.00D-01 FncErr=1.00D-07 GrdErr=1.00D-06
 Number of steps in this run=  24 maximum allowed number of steps= 100.
 GradGradGradGradGradGradGradGradGradGradGradGradGradGradGradGradGradGrad

                          Input orientation:                          
 ---------------------------------------------------------------------
 Center     Atomic      Atomic             Coordinates (Angstroms)
 Number     Number       Type             X           Y           Z
 ---------------------------------------------------------------------
      1          6           0       -5.601034    1.036955   -0.873652
      2          1           0       -5.244379    0.028145   -0.873652
      3          1           0       -5.244361    1.541353    0.000000
      4          1           0       -5.244361    1.541353   -1.747303
      5          1           0       -6.671034    1.036968   -0.873652
 ---------------------------------------------------------------------
                    Distance matrix (angstroms):
                    1          2          3          4          5
     1  C    0.000000
     2  H    1.070000   0.000000
     3  H    1.070000   1.747302   0.000000
     4  H    1.070000   1.747302   1.747303   0.000000
     5  H    1.070000   1.747303   1.747303   1.747303   0.000000
 Stoichiometry    CH4
 Framework group  T[O(C),4C3(H)]
 Deg. of freedom     1
 Full point group                 T       NOp  12
 Largest Abelian subgroup         D2      NOp   4
 Largest concise Abelian subgroup D2      NOp   4
                         Standard orientation:                         
 ---------------------------------------------------------------------
 Center     Atomic      Atomic             Coordinates (Angstroms)
 Number     Number       Type             X           Y           Z
 ---------------------------------------------------------------------
      1          6           0        0.000000    0.000000    0.000000
      2          1           0        0.617765    0.617765    0.617765
      3          1           0       -0.617765   -0.617765    0.617765
      4          1           0       -0.617765    0.617765   -0.617765
      5          1           0        0.617765   -0.617765   -0.617765
 ---------------------------------------------------------------------
 Rotational constants (GHZ):    164.2463794    164.2463794    164.2463794
 Standard basis: 6-31+G(d,p) (6D, 7F)
 There are    12 symmetry adapted basis functions of A   symmetry.
 There are     9 symmetry adapted basis functions of B1  symmetry.
 There are     9 symmetry adapted basis functions of B2  symmetry.
 There are     9 symmetry adapted basis functions of B3  symmetry.
 Integral buffers will be    262144 words long.
 Raffenetti 2 integral format.
 Two-electron integral symmetry is turned on.
    39 basis functions,    60 primitive gaussians,    39 cartesian basis functions
     5 alpha electrons        5 beta electrons
       nuclear repulsion energy        13.6865185901 Hartrees.
 NAtoms=    5 NActive=    5 NUniq=    2 SFac= 3.00D+00 NAtFMM=   80 NAOKFM=F Big=F
 One-electron integrals computed using PRISM.
 NBasis=    39 RedAO= T  NBF=    12     9     9     9
 NBsUse=    39 1.00D-06 NBFU=    12     9     9     9
 Harris functional with IExCor=  402 diagonalized for initial guess.
 ExpMin= 4.38D-02 ExpMax= 3.05D+03 ExpMxC= 4.57D+02 IAcc=2 IRadAn=         0 AccDes= 0.00D+00
 HarFok:  IExCor=  402 AccDes= 0.00D+00 IRadAn=         0 IDoV= 1
 ScaDFX=  1.000000  1.000000  1.000000  1.000000
 FoFCou: FMM=F IPFlag=           0 FMFlag=      100000 FMFlg1=           0
         NFxFlg=           0 DoJE=T BraDBF=F KetDBF=T FulRan=T
         Omega=  0.000000  0.000000  1.000000  0.000000  0.000000 ICntrl=     500 IOpCl=  0
         NMat0=    1 NMatS0=    1 NMatT0=    0 NMatD0=    1 NMtDS0=    0 NMtDT0=    0
         I1Cent=           4 NGrid=           0.
 Petite list used in FoFCou.
 Initial guess orbital symmetries:
       Occupied  (A) (A) (T) (T) (T)
       Virtual   (A) (T) (T) (T) (T) (T) (T) (A) (T) (T) (T) (T)
                 (T) (T) (A) (A) (E) (E) (T) (T) (T) (T) (T) (T)
                 (T) (T) (T) (E) (E) (A) (T) (T) (T) (A)
 The electronic state of the initial guess is 1-A.
 Requested convergence on RMS density matrix=1.00D-08 within 128 cycles.
 Requested convergence on MAX density matrix=1.00D-06.
 Requested convergence on             energy=1.00D-06.
 No special actions if energy rises.
 Keep R1 ints in memory in canonical form, NReq=1225337.
 SCF Done:  E(RB3LYP) =  -40.5247898583     A.U. after    7 cycles
             Convg  =    0.7836D-09             -V/T =  2.0084

 **********************************************************************

            Population analysis using the SCF density.

 **********************************************************************

 Orbital symmetries:
       Occupied  (A) (A) (T) (T) (T)
       Virtual   (A) (T) (T) (T) (T) (T) (T) (A) (T) (T) (T) (T)
                 (T) (T) (A) (A) (E) (E) (T) (T) (T) (T) (T) (T)
                 (T) (T) (T) (E) (E) (A) (T) (T) (T) (A)
 The electronic state is 1-A.
 Alpha  occ. eigenvalues --  -10.16283  -0.70284  -0.39749  -0.39749  -0.39749
 Alpha virt. eigenvalues --    0.01715   0.06122   0.06122   0.06122   0.18869
 Alpha virt. eigenvalues --    0.18869   0.18869   0.28592   0.63471   0.63471
 Alpha virt. eigenvalues --    0.63471   0.91967   0.91967   0.91967   1.06897
 Alpha virt. eigenvalues --    1.13002   1.35516   1.35516   2.05202   2.05202
 Alpha virt. eigenvalues --    2.05202   2.11867   2.11867   2.11867   2.65730
 Alpha virt. eigenvalues --    2.65730   2.65730   2.95746   2.95746   3.23771
 Alpha virt. eigenvalues --    3.46020   3.46020   3.46020   4.42466
          Condensed to atoms (all electrons):
              1          2          3          4          5
     1  C    5.032504   0.395169   0.395169   0.395169   0.395169
     2  H    0.395169   0.527653  -0.025373  -0.025373  -0.025373
     3  H    0.395169  -0.025373   0.527653  -0.025373  -0.025373
     4  H    0.395169  -0.025373  -0.025373   0.527653  -0.025373
     5  H    0.395169  -0.025373  -0.025373  -0.025373   0.527653
 Mulliken atomic charges:
              1
     1  C   -0.613181
     2  H    0.153295
     3  H    0.153295
     4  H    0.153295
     5  H    0.153295
 Sum of Mulliken atomic charges =   0.00000
 Mulliken charges with hydrogens summed into heavy atoms:
              1
     1  C    0.000000
 Sum of Mulliken charges with hydrogens summed into heavy atoms =   0.00000
 Electronic spatial extent (au):  <R**2>=             35.1753
 Charge=              0.0000 electrons
 Dipole moment (field-independent basis, Debye):
    X=              0.0000    Y=              0.0000    Z=              0.0000  Tot=              0.0000
 Quadrupole moment (field-independent basis, Debye-Ang):
   XX=             -8.4384   YY=             -8.4384   ZZ=             -8.4384
   XY=              0.0000   XZ=              0.0000   YZ=              0.0000
 Traceless Quadrupole moment (field-independent basis, Debye-Ang):
   XX=              0.0000   YY=              0.0000   ZZ=              0.0000
   XY=              0.0000   XZ=              0.0000   YZ=              0.0000
 Octapole moment (field-independent basis, Debye-Ang**2):
  XXX=              0.0000  YYY=              0.0000  ZZZ=              0.0000  XYY=              0.0000
  XXY=              0.0000  XXZ=              0.0000  XZZ=              0.0000  YZZ=              0.0000
  YYZ=              0.0000  XYZ=              0.6370
 Hexadecapole moment (field-independent basis, Debye-Ang**3):
 XXXX=            -16.9554 YYYY=            -16.9554 ZZZZ=            -16.9554 XXXY=              0.0000
 XXXZ=              0.0000 YYYX=              0.0000 YYYZ=              0.0000 ZZZX=              0.0000
 ZZZY=              0.0000 XXYY=             -5.2256 XXZZ=             -5.2256 YYZZ=             -5.2256
 XXYZ=              0.0000 YYXZ=              0.0000 ZZXY=              0.0000
 N-N= 1.368651859005D+01 E-N=-1.204581440112D+02  KE= 4.018748577106D+01
 Symmetry A    KE= 3.433935229598D+01
 Symmetry B1   KE= 1.949377825027D+00
 Symmetry B2   KE= 1.949377825027D+00
 Symmetry B3   KE= 1.949377825027D+00
 Calling FoFJK, ICntrl=      2127 FMM=F ISym2X=1 I1Cent= 0 IOpClX= 0 NMat=1 NMatS=1 NMatT=0.
 ***** Axes restored to original set *****
 -------------------------------------------------------------------
 Center     Atomic                   Forces (Hartrees/Bohr)
 Number     Number              X              Y              Z
 -------------------------------------------------------------------
      1        6           0.000000000    0.000000000    0.000000000
      2        1           0.005367382   -0.015181833   -0.000000013
      3        1           0.005367668    0.007590811    0.013147797
      4        1           0.005367647    0.007590826   -0.013147797
      5        1          -0.016102697    0.000000195    0.000000013
 -------------------------------------------------------------------
 Cartesian Forces:  Max     0.016102697 RMS     0.008315397

 GradGradGradGradGradGradGradGradGradGradGradGradGradGradGradGradGradGrad
 Berny optimization.
 Internal  Forces:  Max     0.016102697 RMS     0.008607253
 Search for a local minimum.
 Step number   1 out of a maximum of   24
 All quantities printed in internal units (Hartrees-Bohrs-Radians)
 Mixed Optimization -- RFO/linear search
 Second derivative matrix not updated -- first step.
 The second derivative matrix:
                          R1        R2        R3        R4        A1
           R1           0.37230
           R2           0.00000   0.37230
           R3           0.00000   0.00000   0.37230
           R4           0.00000   0.00000   0.00000   0.37230
           A1           0.00000   0.00000   0.00000   0.00000   0.16000
           A2           0.00000   0.00000   0.00000   0.00000   0.00000
           A3           0.00000   0.00000   0.00000   0.00000   0.00000
           A4           0.00000   0.00000   0.00000   0.00000   0.00000
           A5           0.00000   0.00000   0.00000   0.00000   0.00000
           A6           0.00000   0.00000   0.00000   0.00000   0.00000
           D1           0.00000   0.00000   0.00000   0.00000   0.00000
           D2           0.00000   0.00000   0.00000   0.00000   0.00000
           D3           0.00000   0.00000   0.00000   0.00000   0.00000
           D4           0.00000   0.00000   0.00000   0.00000   0.00000
                          A2        A3        A4        A5        A6
           A2           0.16000
           A3           0.00000   0.16000
           A4           0.00000   0.00000   0.16000
           A5           0.00000   0.00000   0.00000   0.16000
           A6           0.00000   0.00000   0.00000   0.00000   0.16000
           D1           0.00000   0.00000   0.00000   0.00000   0.00000
           D2           0.00000   0.00000   0.00000   0.00000   0.00000
           D3           0.00000   0.00000   0.00000   0.00000   0.00000
           D4           0.00000   0.00000   0.00000   0.00000   0.00000
                          D1        D2        D3        D4
           D1           0.00499
           D2           0.00000   0.00499
           D3           0.00000   0.00000   0.00499
           D4           0.00000   0.00000   0.00000   0.00499
     Eigenvalues ---    0.05269   0.05891   0.08766   0.16000   0.16000
     Eigenvalues ---    0.37230   0.37230   0.37230   0.372301000.00000
     Eigenvalues --- 1000.000001000.000001000.000001000.00000
 RFO step:  Lambda=-2.76534414D-03 EMin= 5.26881010D-02
 Linear search not attempted -- first point.
 Iteration  1 RMS(Cart)=  0.02294861 RMS(Int)=  0.00000000
 Iteration  2 RMS(Cart)=  0.00000000 RMS(Int)=  0.00000000
 ClnCor:  largest displacement from symmetrization is 4.42D-14 for atom     5.
 Variable       Old X    -DE/DX   Delta X   Delta X   Delta X     New X
                                 (Linear)    (Quad)   (Total)
    R1        2.02201   0.01610   0.00000   0.04293   0.04293   2.06494
    R2        2.02201   0.01610   0.00000   0.04293   0.04293   2.06494
    R3        2.02201   0.01610   0.00000   0.04293   0.04293   2.06494
    R4        2.02201   0.01610   0.00000   0.04293   0.04293   2.06494
    A1        1.91063   0.00000   0.00000   0.00000   0.00000   1.91063
    A2        1.91063   0.00000   0.00000   0.00000   0.00000   1.91063
    A3        1.91063   0.00000   0.00000   0.00000   0.00000   1.91063
    A4        1.91063   0.00000   0.00000   0.00000   0.00000   1.91063
    A5        1.91063   0.00000   0.00000   0.00000   0.00000   1.91063
    A6        1.91063   0.00000   0.00000   0.00000   0.00000   1.91063
    D1       -2.09440   0.00000   0.00000   0.00000   0.00000  -2.09440
    D2        2.09440   0.00000   0.00000   0.00000   0.00000   2.09440
    D3       -2.09440   0.00000   0.00000   0.00000   0.00000  -2.09440
    D4        2.09440   0.00000   0.00000   0.00000   0.00000   2.09440
         Item               Value     Threshold  Converged?
 Maximum Force            0.016103     0.000450     NO 
 RMS     Force            0.008607     0.000300     NO 
 Maximum Displacement     0.042933     0.001800     NO 
 RMS     Displacement     0.022949     0.001200     NO 
 Predicted change in Energy=-1.392866D-03
 GradGradGradGradGradGradGradGradGradGradGradGradGradGradGradGradGradGrad

                          Input orientation:                          
 ---------------------------------------------------------------------
 Center     Atomic      Atomic             Coordinates (Angstroms)
 Number     Number       Type             X           Y           Z
 ---------------------------------------------------------------------
      1          6           0       -5.601034    1.036955   -0.873652
      2          1           0       -5.236807    0.006725   -0.873652
      3          1           0       -5.236787    1.552063    0.018550
      4          1           0       -5.236789    1.552064   -1.765853
      5          1           0       -6.693753    1.036968   -0.873651
 ---------------------------------------------------------------------
                    Distance matrix (angstroms):
                    1          2          3          4          5
     1  C    0.000000
     2  H    1.092719   0.000000
     3  H    1.092719   1.784403   0.000000
     4  H    1.092719   1.784403   1.784403   0.000000
     5  H    1.092719   1.784403   1.784403   1.784403   0.000000
 Stoichiometry    CH4
 Framework group  TD[O(C),4C3(H)]
 Deg. of freedom     1
 Full point group                 TD      NOp  24
 Omega: Change in point group or standard orientation.

 Old FWG=T    [O(C1),4C3(H1)]
 New FWG=TD   [O(C1),4C3(H1)]
 Largest Abelian subgroup         D2      NOp   4
 Largest concise Abelian subgroup D2      NOp   4
                         Standard orientation:                         
 ---------------------------------------------------------------------
 Center     Atomic      Atomic             Coordinates (Angstroms)
 Number     Number       Type             X           Y           Z
 ---------------------------------------------------------------------
      1          6           0        0.000000    0.000000    0.000000
      2          1           0        0.630882    0.630882    0.630882
      3          1           0       -0.630882   -0.630882    0.630882
      4          1           0       -0.630882    0.630882   -0.630882
      5          1           0        0.630882   -0.630882   -0.630882
 ---------------------------------------------------------------------
 Rotational constants (GHZ):    157.4875670    157.4875670    157.4875670
 Standard basis: 6-31+G(d,p) (6D, 7F)
 There are    12 symmetry adapted basis functions of A   symmetry.
 There are     9 symmetry adapted basis functions of B1  symmetry.
 There are     9 symmetry adapted basis functions of B2  symmetry.
 There are     9 symmetry adapted basis functions of B3  symmetry.
 Integral buffers will be    262144 words long.
 Raffenetti 2 integral format.
 Two-electron integral symmetry is turned on.
    39 basis functions,    60 primitive gaussians,    39 cartesian basis functions
     5 alpha electrons        5 beta electrons
       nuclear repulsion energy        13.4019571814 Hartrees.
 NAtoms=    5 NActive=    5 NUniq=    2 SFac= 3.00D+00 NAtFMM=   80 NAOKFM=F Big=F
 One-electron integrals computed using PRISM.
 NBasis=    39 RedAO= T  NBF=    12     9     9     9
 NBsUse=    39 1.00D-06 NBFU=    12     9     9     9
 Initial guess read from the read-write file.
 B after Tr=     0.000000    0.000000    0.000000
         Rot=    1.000000    0.000000    0.000000    0.000000 Ang=   0.00 deg.
 Initial guess orbital symmetries:
       Occupied  (A1) (A1) (T2) (T2) (T2)
       Virtual   (A1) (T2) (T2) (T2) (T2) (T2) (T2) (A1) (T2) (T2)
                 (T2) (T2) (T2) (T2) (A1) (A1) (E) (E) (T1) (T1)
                 (T1) (T2) (T2) (T2) (T2) (T2) (T2) (E) (E) (A1)
                 (T2) (T2) (T2) (A1)
 Harris functional with IExCor=  402 diagonalized for initial guess.
 ExpMin= 4.38D-02 ExpMax= 3.05D+03 ExpMxC= 4.57D+02 IAcc=2 IRadAn=         0 AccDes= 0.00D+00
 HarFok:  IExCor=  402 AccDes= 0.00D+00 IRadAn=         0 IDoV= 1
 ScaDFX=  1.000000  1.000000  1.000000  1.000000
 FoFCou: FMM=F IPFlag=           0 FMFlag=      100000 FMFlg1=           0
         NFxFlg=           0 DoJE=T BraDBF=F KetDBF=T FulRan=T
         Omega=  0.000000  0.000000  1.000000  0.000000  0.000000 ICntrl=     500 IOpCl=  0
         NMat0=    1 NMatS0=    1 NMatT0=    0 NMatD0=    1 NMtDS0=    0 NMtDT0=    0
         I1Cent=           4 NGrid=           0.
 Petite list used in FoFCou.
 Requested convergence on RMS density matrix=1.00D-08 within 128 cycles.
 Requested convergence on MAX density matrix=1.00D-06.
 Requested convergence on             energy=1.00D-06.
 No special actions if energy rises.
 Keep R1 ints in memory in canonical form, NReq=1226023.
 SCF Done:  E(RB3LYP) =  -40.5261442098     A.U. after    6 cycles
             Convg  =    0.4924D-08             -V/T =  2.0115
 Calling FoFJK, ICntrl=      2127 FMM=F ISym2X=1 I1Cent= 0 IOpClX= 0 NMat=1 NMatS=1 NMatT=0.
 ***** Axes restored to original set *****
 -------------------------------------------------------------------
 Center     Atomic                   Forces (Hartrees/Bohr)
 Number     Number              X              Y              Z
 -------------------------------------------------------------------
      1        6           0.000000000    0.000000000    0.000000000
      2        1           0.000002188   -0.000006188    0.000000000
      3        1           0.000002188    0.000003094    0.000005359
      4        1           0.000002188    0.000003094   -0.000005359
      5        1          -0.000006564    0.000000000    0.000000000
 -------------------------------------------------------------------
 Cartesian Forces:  Max     0.000006564 RMS     0.000003389

 GradGradGradGradGradGradGradGradGradGradGradGradGradGradGradGradGradGrad
 Berny optimization.
 Using GEDIIS/GDIIS optimizer.
 Internal  Forces:  Max     0.000006564 RMS     0.000003508
 Search for a local minimum.
 Step number   2 out of a maximum of   24
 All quantities printed in internal units (Hartrees-Bohrs-Radians)
 Mixed Optimization -- En-DIIS/RFO-DIIS
 Update second derivatives using D2CorX and points    1    2
 DE= -1.35D-03 DEPred=-1.39D-03 R= 9.72D-01
 SS=  1.41D+00  RLast= 8.59D-02 DXNew= 5.0454D-01 2.5760D-01
 Trust test= 9.72D-01 RLast= 8.59D-02 DXMaxT set to 3.00D-01
 The second derivative matrix:
                          R1        R2        R3        R4        A1
           R1           0.37295
           R2           0.00065   0.37295
           R3           0.00065   0.00065   0.37295
           R4           0.00065   0.00065   0.00065   0.37295
           A1           0.00000   0.00000   0.00000   0.00000   0.16000
           A2           0.00000   0.00000   0.00000   0.00000   0.00000
           A3           0.00000   0.00000   0.00000   0.00000   0.00000
           A4           0.00000   0.00000   0.00000   0.00000   0.00000
           A5           0.00000   0.00000   0.00000   0.00000   0.00000
           A6           0.00000   0.00000   0.00000   0.00000   0.00000
           D1           0.00000   0.00000   0.00000   0.00000   0.00000
           D2           0.00000   0.00000   0.00000   0.00000   0.00000
           D3           0.00000   0.00000   0.00000   0.00000   0.00000
           D4           0.00000   0.00000   0.00000   0.00000   0.00000
                          A2        A3        A4        A5        A6
           A2           0.16000
           A3           0.00000   0.16000
           A4           0.00000   0.00000   0.16000
           A5           0.00000   0.00000   0.00000   0.16000
           A6           0.00000   0.00000   0.00000   0.00000   0.16000
           D1           0.00000   0.00000   0.00000   0.00000   0.00000
           D2           0.00000   0.00000   0.00000   0.00000   0.00000
           D3           0.00000   0.00000   0.00000   0.00000   0.00000
           D4           0.00000   0.00000   0.00000   0.00000   0.00000
                          D1        D2        D3        D4
           D1           0.00499
           D2           0.00000   0.00499
           D3           0.00000   0.00000   0.00499
           D4           0.00000   0.00000   0.00000   0.00499
 Use linear search instead of GDIIS.
     Eigenvalues ---    0.05269   0.05891   0.08766   0.16000   0.16000
     Eigenvalues ---    0.37230   0.37230   0.37230   0.374911000.00000
     Eigenvalues --- 1000.000001000.000001000.000001000.00000
 RFO step:  Lambda= 0.00000000D+00 EMin= 5.26881010D-02
 Quartic linear search produced a step of  0.00043.
 Iteration  1 RMS(Cart)=  0.00000998 RMS(Int)=  0.00000000
 Iteration  2 RMS(Cart)=  0.00000000 RMS(Int)=  0.00000000
 ClnCor:  largest displacement from symmetrization is 3.24D-14 for atom     3.
 Variable       Old X    -DE/DX   Delta X   Delta X   Delta X     New X
                                 (Linear)    (Quad)   (Total)
    R1        2.06494   0.00001   0.00002   0.00000   0.00002   2.06496
    R2        2.06494   0.00001   0.00002   0.00000   0.00002   2.06496
    R3        2.06494   0.00001   0.00002   0.00000   0.00002   2.06496
    R4        2.06494   0.00001   0.00002   0.00000   0.00002   2.06496
    A1        1.91063   0.00000   0.00000   0.00000   0.00000   1.91063
    A2        1.91063   0.00000   0.00000   0.00000   0.00000   1.91063
    A3        1.91063   0.00000   0.00000   0.00000   0.00000   1.91063
    A4        1.91063   0.00000   0.00000   0.00000   0.00000   1.91063
    A5        1.91063   0.00000   0.00000   0.00000   0.00000   1.91063
    A6        1.91063   0.00000   0.00000   0.00000   0.00000   1.91063
    D1       -2.09440   0.00000   0.00000   0.00000   0.00000  -2.09440
    D2        2.09440   0.00000   0.00000   0.00000   0.00000   2.09440
    D3       -2.09440   0.00000   0.00000   0.00000   0.00000  -2.09440
    D4        2.09440   0.00000   0.00000   0.00000   0.00000   2.09440
         Item               Value     Threshold  Converged?
 Maximum Force            0.000007     0.000450     YES
 RMS     Force            0.000004     0.000300     YES
 Maximum Displacement     0.000019     0.001800     YES
 RMS     Displacement     0.000010     0.001200     YES
 Predicted change in Energy=-2.288094D-10
 Optimization completed.
    -- Stationary point found.
                           ----------------------------
                           !   Optimized Parameters   !
                           ! (Angstroms and Degrees)  !
 --------------------------                            --------------------------
 ! Name  Definition              Value          Derivative Info.                !
 --------------------------------------------------------------------------------
 ! R1    R(1,2)                  1.0927         -DE/DX =    0.0                 !
 ! R2    R(1,3)                  1.0927         -DE/DX =    0.0                 !
 ! R3    R(1,4)                  1.0927         -DE/DX =    0.0                 !
 ! R4    R(1,5)                  1.0927         -DE/DX =    0.0                 !
 ! A1    A(2,1,3)              109.4712         -DE/DX =    0.0                 !
 ! A2    A(2,1,4)              109.4712         -DE/DX =    0.0                 !
 ! A3    A(2,1,5)              109.4712         -DE/DX =    0.0                 !
 ! A4    A(3,1,4)              109.4712         -DE/DX =    0.0                 !
 ! A5    A(3,1,5)              109.4712         -DE/DX =    0.0                 !
 ! A6    A(4,1,5)              109.4712         -DE/DX =    0.0                 !
 ! D1    D(2,1,4,3)           -120.0            -DE/DX =    0.0                 !
 ! D2    D(2,1,5,3)            120.0            -DE/DX =    0.0                 !
 ! D3    D(2,1,5,4)           -120.0            -DE/DX =    0.0                 !
 ! D4    D(3,1,5,4)            120.0            -DE/DX =    0.0                 !
 --------------------------------------------------------------------------------
 GradGradGradGradGradGradGradGradGradGradGradGradGradGradGradGradGradGrad

                          Input orientation:                          
 ---------------------------------------------------------------------
 Center     Atomic      Atomic             Coordinates (Angstroms)
 Number     Number       Type             X           Y           Z
 ---------------------------------------------------------------------
      1          6           0       -5.601034    1.036955   -0.873652
      2          1           0       -5.236807    0.006725   -0.873652
      3          1           0       -5.236787    1.552063    0.018550
      4          1           0       -5.236789    1.552064   -1.765853
      5          1           0       -6.693753    1.036968   -0.873651
 ---------------------------------------------------------------------
                    Distance matrix (angstroms):
                    1          2          3          4          5
     1  C    0.000000
     2  H    1.092719   0.000000
     3  H    1.092719   1.784403   0.000000
     4  H    1.092719   1.784403   1.784403   0.000000
     5  H    1.092719   1.784403   1.784403   1.784403   0.000000
 Stoichiometry    CH4
 Framework group  TD[O(C),4C3(H)]
 Deg. of freedom     1
 Full point group                 TD      NOp  24
 Largest Abelian subgroup         D2      NOp   4
 Largest concise Abelian subgroup D2      NOp   4
                         Standard orientation:                         
 ---------------------------------------------------------------------
 Center     Atomic      Atomic             Coordinates (Angstroms)
 Number     Number       Type             X           Y           Z
 ---------------------------------------------------------------------
      1          6           0        0.000000    0.000000    0.000000
      2          1           0        0.630882    0.630882    0.630882
      3          1           0       -0.630882   -0.630882    0.630882
      4          1           0       -0.630882    0.630882   -0.630882
      5          1           0        0.630882   -0.630882   -0.630882
 ---------------------------------------------------------------------
 Rotational constants (GHZ):    157.4875670    157.4875670    157.4875670

 **********************************************************************

            Population analysis using the SCF density.

 **********************************************************************

 Orbital symmetries:
       Occupied  (A1) (A1) (T2) (T2) (T2)
       Virtual   (A1) (T2) (T2) (T2) (T2) (T2) (T2) (A1) (T2) (T2)
                 (T2) (T2) (T2) (T2) (A1) (A1) (E) (E) (T1) (T1)
                 (T1) (T2) (T2) (T2) (T2) (T2) (T2) (E) (E) (A1)
                 (T2) (T2) (T2) (A1)
 The electronic state is 1-A1.
 Alpha  occ. eigenvalues --  -10.17256  -0.69594  -0.39382  -0.39382  -0.39382
 Alpha virt. eigenvalues --    0.01597   0.06111   0.06111   0.06111   0.18119
 Alpha virt. eigenvalues --    0.18119   0.18119   0.27738   0.63809   0.63809
 Alpha virt. eigenvalues --    0.63809   0.91004   0.91004   0.91004   1.05089
 Alpha virt. eigenvalues --    1.11326   1.35762   1.35762   2.04253   2.04253
 Alpha virt. eigenvalues --    2.04253   2.08420   2.08420   2.08420   2.62349
 Alpha virt. eigenvalues --    2.62349   2.62349   2.90394   2.90394   3.16431
 Alpha virt. eigenvalues --    3.41320   3.41320   3.41320   4.41826
          Condensed to atoms (all electrons):
              1          2          3          4          5
     1  C    5.046993   0.390845   0.390845   0.390845   0.390845
     2  H    0.390845   0.530867  -0.024769  -0.024769  -0.024769
     3  H    0.390845  -0.024769   0.530867  -0.024769  -0.024769
     4  H    0.390845  -0.024769  -0.024769   0.530867  -0.024769
     5  H    0.390845  -0.024769  -0.024769  -0.024769   0.530867
 Mulliken atomic charges:
              1
     1  C   -0.610375
     2  H    0.152594
     3  H    0.152594
     4  H    0.152594
     5  H    0.152594
 Sum of Mulliken atomic charges =   0.00000
 Mulliken charges with hydrogens summed into heavy atoms:
              1
     1  C    0.000000
 Sum of Mulliken charges with hydrogens summed into heavy atoms =   0.00000
 Electronic spatial extent (au):  <R**2>=             36.0423
 Charge=              0.0000 electrons
 Dipole moment (field-independent basis, Debye):
    X=              0.0000    Y=              0.0000    Z=              0.0000  Tot=              0.0000
 Quadrupole moment (field-independent basis, Debye-Ang):
   XX=             -8.5124   YY=             -8.5124   ZZ=             -8.5124
   XY=              0.0000   XZ=              0.0000   YZ=              0.0000
 Traceless Quadrupole moment (field-independent basis, Debye-Ang):
   XX=              0.0000   YY=              0.0000   ZZ=              0.0000
   XY=              0.0000   XZ=              0.0000   YZ=              0.0000
 Octapole moment (field-independent basis, Debye-Ang**2):
  XXX=              0.0000  YYY=              0.0000  ZZZ=              0.0000  XYY=              0.0000
  XXY=              0.0000  XXZ=              0.0000  XZZ=              0.0000  YZZ=              0.0000
  YYZ=              0.0000  XYZ=              0.6943
 Hexadecapole moment (field-independent basis, Debye-Ang**3):
 XXXX=            -17.5890 YYYY=            -17.5890 ZZZZ=            -17.5890 XXXY=              0.0000
 XXXZ=              0.0000 YYYX=              0.0000 YYYZ=              0.0000 ZZZX=              0.0000
 ZZZY=              0.0000 XXYY=             -5.3975 XXZZ=             -5.3975 YYZZ=             -5.3975
 XXYZ=              0.0000 YYXZ=              0.0000 ZZXY=              0.0000
 N-N= 1.340195718135D+01 E-N=-1.198041278306D+02  KE= 4.006482558110D+01
 Symmetry A    KE= 3.431557381004D+01
 Symmetry B1   KE= 1.916417257021D+00
 Symmetry B2   KE= 1.916417257021D+00
 Symmetry B3   KE= 1.916417257021D+00
 1|1|UNPC-DESKTOP-319GPER|FOpt|RB3LYP|6-31+G(d,p)|C1H4|SAGAD|08-Oct-202
 0|0||#opt freq B3LYP/6-31+g(d,p)||Calculation of methane with B3LYP/6|
 |0,1|C,-5.60103382,1.036955126,-0.873651501|H,-5.2368066177,0.00672528
 91,-0.8736523813|H,-5.2367871672,1.5520629128,0.0185498864|H,-5.236788
 6025,1.5520639301,-1.7658528871|H,-6.6937528926,1.0369683721,-0.873650
 6221||Version=IA32W-G09RevA.02|State=1-A1|HF=-40.5261442|RMSD=4.924e-0
 09|RMSF=3.389e-006|Dipole=0.,0.,0.|Quadrupole=0.,0.,0.,0.,0.,0.|PG=TD 
 [O(C1),4C3(H1)]||@



 WE LOSE BECAUSE WE WIN

 GAMBLERS,

 RECOLLECTING WHICH,

 TOSS THEIR DICE AGAIN....


                          EMILY DICKINSON  BOLTS OF MELODY NO. 533
 Job cpu time:  0 days  0 hours  0 minutes  5.0 seconds.
 File lengths (MBytes):  RWF=      5 Int=      0 D2E=      0 Chk=      1 Scr=      1
 Normal termination of Gaussian 09 at Thu Oct 08 01:24:32 2020.
 Link1:  Proceeding to internal job step number  2.
 ----------------------------------------------------------------------
 #N Geom=AllCheck Guess=TCheck SCRF=Check GenChk RB3LYP/6-31+G(d,p) Fre
 q
 ----------------------------------------------------------------------
 1/10=4,29=7,30=1,38=1,40=1/1,3;
 2/12=2,40=1/2;
 3/5=1,6=6,7=111,11=2,14=-4,16=1,25=1,30=1,70=2,71=2,74=-5,116=1/1,2,3;
 4/5=101/1;
 5/5=2,98=1/2;
 8/6=4,10=90,11=11/1;
 11/6=1,8=1,9=11,15=111,16=1/1,2,10;
 10/6=1/2;
 6/7=2,8=2,9=2,10=2,18=1,28=1/1;
 7/8=1,10=1,25=1/1,2,3,16;
 1/10=4,30=1/3;
 99//99;
 -----------------------------------
 Calculation of methane with B3LYP/6
 -----------------------------------
 Redundant internal coordinates taken from checkpoint file:
 C:\Users\sagad\Documents\rayGit\FQ\quimicaComputacional\class4Metilo\reactivos\methaneB3LYP.chk
 Charge =  0 Multiplicity = 1
 C,0,-5.60103382,1.036955126,-0.873651501
 H,0,-5.2368066177,0.0067252891,-0.8736523813
 H,0,-5.2367871672,1.5520629128,0.0185498864
 H,0,-5.2367886025,1.5520639301,-1.7658528871
 H,0,-6.6937528926,1.0369683721,-0.8736506221
 Recover connectivity data from disk.

 GradGradGradGradGradGradGradGradGradGradGradGradGradGradGradGradGradGrad
 Berny optimization.
 Initialization pass.
                           ----------------------------
                           !    Initial Parameters    !
                           ! (Angstroms and Degrees)  !
 --------------------------                            --------------------------
 ! Name  Definition              Value          Derivative Info.                !
 --------------------------------------------------------------------------------
 ! R1    R(1,2)                  1.0927         calculate D2E/DX2 analytically  !
 ! R2    R(1,3)                  1.0927         calculate D2E/DX2 analytically  !
 ! R3    R(1,4)                  1.0927         calculate D2E/DX2 analytically  !
 ! R4    R(1,5)                  1.0927         calculate D2E/DX2 analytically  !
 ! A1    A(2,1,3)              109.4712         calculate D2E/DX2 analytically  !
 ! A2    A(2,1,4)              109.4712         calculate D2E/DX2 analytically  !
 ! A3    A(2,1,5)              109.4712         calculate D2E/DX2 analytically  !
 ! A4    A(3,1,4)              109.4712         calculate D2E/DX2 analytically  !
 ! A5    A(3,1,5)              109.4712         calculate D2E/DX2 analytically  !
 ! A6    A(4,1,5)              109.4712         calculate D2E/DX2 analytically  !
 ! D1    D(2,1,4,3)           -120.0            calculate D2E/DX2 analytically  !
 ! D2    D(2,1,5,3)            120.0            calculate D2E/DX2 analytically  !
 ! D3    D(2,1,5,4)           -120.0            calculate D2E/DX2 analytically  !
 ! D4    D(3,1,5,4)            120.0            calculate D2E/DX2 analytically  !
 --------------------------------------------------------------------------------
 Trust Radius=3.00D-01 FncErr=1.00D-07 GrdErr=1.00D-07
 Number of steps in this run=   2 maximum allowed number of steps=   2.
 GradGradGradGradGradGradGradGradGradGradGradGradGradGradGradGradGradGrad

                          Input orientation:                          
 ---------------------------------------------------------------------
 Center     Atomic      Atomic             Coordinates (Angstroms)
 Number     Number       Type             X           Y           Z
 ---------------------------------------------------------------------
      1          6           0       -5.601034    1.036955   -0.873652
      2          1           0       -5.236807    0.006725   -0.873652
      3          1           0       -5.236787    1.552063    0.018550
      4          1           0       -5.236789    1.552064   -1.765853
      5          1           0       -6.693753    1.036968   -0.873651
 ---------------------------------------------------------------------
                    Distance matrix (angstroms):
                    1          2          3          4          5
     1  C    0.000000
     2  H    1.092719   0.000000
     3  H    1.092719   1.784403   0.000000
     4  H    1.092719   1.784403   1.784403   0.000000
     5  H    1.092719   1.784403   1.784403   1.784403   0.000000
 Stoichiometry    CH4
 Framework group  TD[O(C),4C3(H)]
 Deg. of freedom     1
 Full point group                 TD      NOp  24
 Largest Abelian subgroup         D2      NOp   4
 Largest concise Abelian subgroup D2      NOp   4
                         Standard orientation:                         
 ---------------------------------------------------------------------
 Center     Atomic      Atomic             Coordinates (Angstroms)
 Number     Number       Type             X           Y           Z
 ---------------------------------------------------------------------
      1          6           0        0.000000    0.000000    0.000000
      2          1           0        0.630882    0.630882    0.630882
      3          1           0       -0.630882   -0.630882    0.630882
      4          1           0       -0.630882    0.630882   -0.630882
      5          1           0        0.630882   -0.630882   -0.630882
 ---------------------------------------------------------------------
 Rotational constants (GHZ):    157.4875670    157.4875670    157.4875670
 Standard basis: 6-31+G(d,p) (6D, 7F)
 There are    12 symmetry adapted basis functions of A   symmetry.
 There are     9 symmetry adapted basis functions of B1  symmetry.
 There are     9 symmetry adapted basis functions of B2  symmetry.
 There are     9 symmetry adapted basis functions of B3  symmetry.
 Integral buffers will be    262144 words long.
 Raffenetti 2 integral format.
 Two-electron integral symmetry is turned on.
    39 basis functions,    60 primitive gaussians,    39 cartesian basis functions
     5 alpha electrons        5 beta electrons
       nuclear repulsion energy        13.4019571814 Hartrees.
 NAtoms=    5 NActive=    5 NUniq=    2 SFac= 3.00D+00 NAtFMM=   80 NAOKFM=F Big=F
 One-electron integrals computed using PRISM.
 NBasis=    39 RedAO= T  NBF=    12     9     9     9
 NBsUse=    39 1.00D-06 NBFU=    12     9     9     9
 Initial guess read from the checkpoint file:  C:\Users\sagad\Documents\rayGit\FQ
 \quimicaComputacional\class4Metilo\reactivos\methaneB3LYP.chk
 B after Tr=     0.000000    0.000000    0.000000
         Rot=    1.000000    0.000000    0.000000    0.000000 Ang=   0.00 deg.
 Initial guess orbital symmetries:
       Occupied  (A1) (A1) (T2) (T2) (T2)
       Virtual   (A1) (T2) (T2) (T2) (T2) (T2) (T2) (A1) (T2) (T2)
                 (T2) (T2) (T2) (T2) (A1) (A1) (E) (E) (T1) (T1)
                 (T1) (T2) (T2) (T2) (T2) (T2) (T2) (E) (E) (A1)
                 (T2) (T2) (T2) (A1)
 Requested convergence on RMS density matrix=1.00D-08 within 128 cycles.
 Requested convergence on MAX density matrix=1.00D-06.
 Requested convergence on             energy=1.00D-06.
 No special actions if energy rises.
 Keep R1 ints in memory in canonical form, NReq=1226023.
 SCF Done:  E(RB3LYP) =  -40.5261442098     A.U. after    1 cycles
             Convg  =    0.2590D-09             -V/T =  2.0115
 Range of M.O.s used for correlation:     1    39
 NBasis=    39 NAE=     5 NBE=     5 NFC=     0 NFV=     0
 NROrb=     39 NOA=     5 NOB=     5 NVA=    34 NVB=    34
 Symmetrizing basis deriv contribution to polar:
 IMax=3 JMax=2 DiffMx= 0.00D+00
 G2DrvN: will do     6 centers at a time, making    1 passes doing MaxLOS=2.
 Calling FoFCou, ICntrl=  3107 FMM=F I1Cent=   0 AccDes= 0.00D+00.
 FoFDir/FoFCou used for L=0 through L=2.
 End of G2Drv Frequency-dependent properties file   721 does not exist.
 End of G2Drv Frequency-dependent properties file   722 does not exist.
          IDoAtm=11111
          Differentiating once with respect to electric field.
                with respect to dipole field.
          Differentiating once with respect to nuclear coordinates.
          Keep R1 ints in memory in canonical form, NReq=1125958.
          There are     9 degrees of freedom in the 1st order CPHF.  IDoFFX=4.
      9 vectors produced by pass  0 Test12= 1.89D-15 1.11D-08 XBig12= 7.02D+00 1.51D+00.
 AX will form     9 AO Fock derivatives at one time.
      9 vectors produced by pass  1 Test12= 1.89D-15 1.11D-08 XBig12= 1.64D-01 2.24D-01.
      9 vectors produced by pass  2 Test12= 1.89D-15 1.11D-08 XBig12= 5.81D-04 9.44D-03.
      9 vectors produced by pass  3 Test12= 1.89D-15 1.11D-08 XBig12= 1.67D-06 4.20D-04.
      9 vectors produced by pass  4 Test12= 1.89D-15 1.11D-08 XBig12= 1.21D-09 1.11D-05.
      4 vectors produced by pass  5 Test12= 1.89D-15 1.11D-08 XBig12= 3.95D-13 3.31D-07.
 Inverted reduced A of dimension    49 with in-core refinement.
 Isotropic polarizability for W=    0.000000       13.71 Bohr**3.
 End of Minotr Frequency-dependent properties file   721 does not exist.
 End of Minotr Frequency-dependent properties file   722 does not exist.

 **********************************************************************

            Population analysis using the SCF density.

 **********************************************************************

 Orbital symmetries:
       Occupied  (A1) (A1) (T2) (T2) (T2)
       Virtual   (A1) (T2) (T2) (T2) (T2) (T2) (T2) (A1) (T2) (T2)
                 (T2) (T2) (T2) (T2) (A1) (A1) (E) (E) (T1) (T1)
                 (T1) (T2) (T2) (T2) (T2) (T2) (T2) (E) (E) (A1)
                 (T2) (T2) (T2) (A1)
 The electronic state is 1-A1.
 Alpha  occ. eigenvalues --  -10.17256  -0.69594  -0.39382  -0.39382  -0.39382
 Alpha virt. eigenvalues --    0.01597   0.06111   0.06111   0.06111   0.18119
 Alpha virt. eigenvalues --    0.18119   0.18119   0.27738   0.63809   0.63809
 Alpha virt. eigenvalues --    0.63809   0.91004   0.91004   0.91004   1.05089
 Alpha virt. eigenvalues --    1.11326   1.35762   1.35762   2.04253   2.04253
 Alpha virt. eigenvalues --    2.04253   2.08420   2.08420   2.08420   2.62349
 Alpha virt. eigenvalues --    2.62349   2.62349   2.90394   2.90394   3.16431
 Alpha virt. eigenvalues --    3.41320   3.41320   3.41320   4.41826
          Condensed to atoms (all electrons):
              1          2          3          4          5
     1  C    5.046993   0.390845   0.390845   0.390845   0.390845
     2  H    0.390845   0.530867  -0.024769  -0.024769  -0.024769
     3  H    0.390845  -0.024769   0.530867  -0.024769  -0.024769
     4  H    0.390845  -0.024769  -0.024769   0.530867  -0.024769
     5  H    0.390845  -0.024769  -0.024769  -0.024769   0.530867
 Mulliken atomic charges:
              1
     1  C   -0.610375
     2  H    0.152594
     3  H    0.152594
     4  H    0.152594
     5  H    0.152594
 Sum of Mulliken atomic charges =   0.00000
 Mulliken charges with hydrogens summed into heavy atoms:
              1
     1  C    0.000000
 Sum of Mulliken charges with hydrogens summed into heavy atoms =   0.00000
 APT atomic charges:
              1
     1  C   -0.023858
     2  H    0.005965
     3  H    0.005965
     4  H    0.005965
     5  H    0.005965
 Sum of APT charges=   0.00000
 APT Atomic charges with hydrogens summed into heavy atoms:
              1
     1  C    0.000000
     2  H    0.000000
     3  H    0.000000
     4  H    0.000000
     5  H    0.000000
 Sum of APT charges=   0.00000
 Electronic spatial extent (au):  <R**2>=             36.0423
 Charge=              0.0000 electrons
 Dipole moment (field-independent basis, Debye):
    X=              0.0000    Y=              0.0000    Z=              0.0000  Tot=              0.0000
 Quadrupole moment (field-independent basis, Debye-Ang):
   XX=             -8.5124   YY=             -8.5124   ZZ=             -8.5124
   XY=              0.0000   XZ=              0.0000   YZ=              0.0000
 Traceless Quadrupole moment (field-independent basis, Debye-Ang):
   XX=              0.0000   YY=              0.0000   ZZ=              0.0000
   XY=              0.0000   XZ=              0.0000   YZ=              0.0000
 Octapole moment (field-independent basis, Debye-Ang**2):
  XXX=              0.0000  YYY=              0.0000  ZZZ=              0.0000  XYY=              0.0000
  XXY=              0.0000  XXZ=              0.0000  XZZ=              0.0000  YZZ=              0.0000
  YYZ=              0.0000  XYZ=              0.6943
 Hexadecapole moment (field-independent basis, Debye-Ang**3):
 XXXX=            -17.5890 YYYY=            -17.5890 ZZZZ=            -17.5890 XXXY=              0.0000
 XXXZ=              0.0000 YYYX=              0.0000 YYYZ=              0.0000 ZZZX=              0.0000
 ZZZY=              0.0000 XXYY=             -5.3975 XXZZ=             -5.3975 YYZZ=             -5.3975
 XXYZ=              0.0000 YYXZ=              0.0000 ZZXY=              0.0000
 N-N= 1.340195718135D+01 E-N=-1.198041279458D+02  KE= 4.006482562940D+01
 Symmetry A    KE= 3.431557382780D+01
 Symmetry B1   KE= 1.916417267202D+00
 Symmetry B2   KE= 1.916417267202D+00
 Symmetry B3   KE= 1.916417267202D+00
  Exact polarizability:  13.708   0.000  13.708   0.000   0.000  13.708
 Approx polarizability:  16.346   0.000  16.346   0.000   0.000  16.346
 Calling FoFJK, ICntrl=    100127 FMM=F ISym2X=1 I1Cent= 0 IOpClX= 0 NMat=1 NMatS=1 NMatT=0.
 Full mass-weighted force constant matrix:
 Low frequencies ---   -0.0005   -0.0003   -0.0001   61.6853   61.6853   61.6853
 Low frequencies --- 1347.7353 1347.7353 1347.7353
 Diagonal vibrational polarizability:
        0.3562949       0.3562949       0.3562949
 Harmonic frequencies (cm**-1), IR intensities (KM/Mole), Raman scattering
 activities (A**4/AMU), depolarization ratios for plane and unpolarized
 incident light, reduced masses (AMU), force constants (mDyne/A),
 and normal coordinates:
                     1                      2                      3
                    T2                     T2                     T2
 Frequencies --  1347.7353              1347.7353              1347.7353
 Red. masses --     1.1792                 1.1792                 1.1792
 Frc consts  --     1.2620                 1.2620                 1.2620
 IR Inten    --    19.3799                19.3799                19.3799
  Atom  AN      X      Y      Z        X      Y      Z        X      Y      Z
     1   6    -0.01  -0.02   0.12    -0.02   0.12   0.02     0.12   0.02   0.01
     2   1     0.21   0.28  -0.43     0.32  -0.36   0.13    -0.31   0.20   0.22
     3   1    -0.24  -0.18  -0.30     0.24  -0.44  -0.25    -0.36   0.15  -0.30
     4   1     0.30  -0.14  -0.34    -0.13  -0.37  -0.33    -0.37  -0.31   0.16
     5   1    -0.15   0.32  -0.39    -0.21  -0.29   0.20    -0.42  -0.25  -0.24
                     4                      5                      6
                     E                      E                     A1
 Frequencies --  1564.6134              1564.6134              3037.3419
 Red. masses --     1.0078                 1.0078                 1.0078
 Frc consts  --     1.4536                 1.4536                 5.4780
 IR Inten    --     0.0000                 0.0000                 0.0000
  Atom  AN      X      Y      Z        X      Y      Z        X      Y      Z
     1   6     0.00   0.00   0.00     0.00   0.00   0.00     0.00   0.00   0.00
     2   1    -0.28  -0.12   0.40    -0.30   0.39  -0.09    -0.29  -0.29  -0.29
     3   1     0.28   0.12   0.40     0.30  -0.39  -0.09     0.29   0.29  -0.29
     4   1     0.28  -0.12  -0.40     0.30   0.39   0.09     0.29  -0.29   0.29
     5   1    -0.28   0.12  -0.40    -0.30  -0.39   0.09    -0.29   0.29   0.29
                     7                      8                      9
                    T2                     T2                     T2
 Frequencies --  3150.7075              3150.7075              3150.7075
 Red. masses --     1.1014                 1.1014                 1.1014
 Frc consts  --     6.4421                 6.4421                 6.4421
 IR Inten    --    25.5140                25.5140                25.5140
  Atom  AN      X      Y      Z        X      Y      Z        X      Y      Z
     1   6     0.00   0.08   0.04     0.00  -0.04   0.08     0.09   0.00   0.00
     2   1    -0.40  -0.38  -0.39    -0.14  -0.15  -0.12    -0.26  -0.28  -0.28
     3   1    -0.14  -0.12   0.15     0.39   0.38  -0.37    -0.28  -0.30   0.30
     4   1     0.13  -0.11   0.14    -0.40   0.39  -0.38    -0.27   0.29  -0.29
     5   1     0.39  -0.37  -0.38     0.13  -0.14  -0.11    -0.28   0.30   0.30

 -------------------
 - Thermochemistry -
 -------------------
 Temperature   298.150 Kelvin.  Pressure   1.00000 Atm.
 Atom     1 has atomic number  6 and mass  12.00000
 Atom     2 has atomic number  1 and mass   1.00783
 Atom     3 has atomic number  1 and mass   1.00783
 Atom     4 has atomic number  1 and mass   1.00783
 Atom     5 has atomic number  1 and mass   1.00783
 Molecular mass:    16.03130 amu.
 Principal axes and moments of inertia in atomic units:
                           1         2         3
     Eigenvalues --    11.45958  11.45958  11.45958
           X            0.00000  -0.02675   0.99964
           Y            0.00000   0.99964   0.02675
           Z            1.00000   0.00000   0.00000
 This molecule is a spherical top.
 Rotational symmetry number 12.
 Rotational temperatures (Kelvin)      7.55820     7.55820     7.55820
 Rotational constants (GHZ):         157.48757   157.48757   157.48757
 Zero-point vibrational energy     117604.3 (Joules/Mol)
                                   28.10809 (Kcal/Mol)
 Vibrational temperatures:   1939.09  1939.09  1939.09  2251.13  2251.13
          (Kelvin)           4370.05  4533.16  4533.16  4533.16
 
 Zero-point correction=                           0.044793 (Hartree/Particle)
 Thermal correction to Energy=                    0.047661
 Thermal correction to Enthalpy=                  0.048605
 Thermal correction to Gibbs Free Energy=         0.027471
 Sum of electronic and zero-point Energies=            -40.481351
 Sum of electronic and thermal Energies=               -40.478483
 Sum of electronic and thermal Enthalpies=             -40.477539
 Sum of electronic and thermal Free Energies=          -40.498674
 
                     E (Thermal)             CV                S
                      KCal/Mol        Cal/Mol-Kelvin    Cal/Mol-Kelvin
 Total                   29.908              6.460             44.481
 Electronic               0.000              0.000              0.000
 Translational            0.889              2.981             34.261
 Rotational               0.889              2.981             10.135
 Vibrational             28.130              0.499              0.085
                       Q            Log10(Q)             Ln(Q)
 Total Bot       0.231412D-12        -12.635614        -29.094575
 Total V=0       0.928404D+08          7.967737         18.346392
 Vib (Bot)       0.250646D-20        -20.600940        -47.435417
 Vib (V=0)       0.100557D+01          0.002410          0.005550
 Electronic      0.100000D+01          0.000000          0.000000
 Translational   0.252295D+07          6.401908         14.740939
 Rotational      0.365947D+02          1.563418          3.599903
 ***** Axes restored to original set *****
 -------------------------------------------------------------------
 Center     Atomic                   Forces (Hartrees/Bohr)
 Number     Number              X              Y              Z
 -------------------------------------------------------------------
      1        6           0.000000000    0.000000000    0.000000000
      2        1           0.000002188   -0.000006189    0.000000000
      3        1           0.000002188    0.000003094    0.000005360
      4        1           0.000002188    0.000003094   -0.000005360
      5        1          -0.000006564    0.000000000    0.000000000
 -------------------------------------------------------------------
 Cartesian Forces:  Max     0.000006564 RMS     0.000003390

 GradGradGradGradGradGradGradGradGradGradGradGradGradGradGradGradGradGrad
 Berny optimization.
 Internal  Forces:  Max     0.000006564 RMS     0.000003509
 Search for a local minimum.
 Step number   1 out of a maximum of    2
 All quantities printed in internal units (Hartrees-Bohrs-Radians)
 Second derivative matrix not updated -- analytic derivatives used.
 The second derivative matrix:
                          R1        R2        R3        R4        A1
           R1           0.34584
           R2           0.00201   0.34584
           R3           0.00201   0.00201   0.34584
           R4           0.00201   0.00201   0.00201   0.34584
           A1           0.00192   0.00192  -0.00121  -0.00264   0.01969
           A2           0.00302  -0.00078   0.00336  -0.00560  -0.00872
           A3           0.00590  -0.00473  -0.00524   0.00407  -0.01304
           A4          -0.00078   0.00302   0.00336  -0.00560  -0.00872
           A5          -0.00473   0.00590  -0.00524   0.00407  -0.01304
           A6          -0.00533  -0.00533   0.00497   0.00569   0.02384
           D1          -0.00373  -0.00373  -0.00263   0.01009  -0.01343
           D2           0.00307   0.00307  -0.00790   0.00175   0.00814
           D3          -0.00404   0.00711  -0.00395   0.00088   0.00407
           D4          -0.00711   0.00404   0.00395  -0.00088  -0.00407
                          A2        A3        A4        A5        A6
           A2           0.03713
           A3          -0.02255   0.07253
           A4          -0.00204   0.02472   0.03713
           A5           0.02472  -0.03515  -0.02255   0.07253
           A6          -0.02852  -0.02650  -0.02852  -0.02650   0.08621
           D1          -0.01080   0.01465  -0.01080   0.01465   0.00573
           D2          -0.00936   0.00692  -0.00936   0.00692  -0.00326
           D3          -0.01419  -0.00056   0.00483   0.00748  -0.00163
           D4          -0.00483  -0.00748   0.01419   0.00056   0.00163
                          D1        D2        D3        D4
           D1           0.02967
           D2           0.00150   0.01844
           D3           0.00075   0.00922   0.01872
           D4          -0.00075  -0.00922   0.00950   0.01872
     Eigenvalues ---    0.03781   0.04260   0.06475   0.13105   0.13155
     Eigenvalues ---    0.34473   0.34475   0.34502   0.351861000.00000
     Eigenvalues --- 1000.000001000.000001000.000001000.00000
 Angle between quadratic step and forces=   0.00 degrees.
 Linear search not attempted -- first point.
 Iteration  1 RMS(Cart)=  0.00000997 RMS(Int)=  0.00000000
 Iteration  2 RMS(Cart)=  0.00000000 RMS(Int)=  0.00000000
 ClnCor:  largest displacement from symmetrization is 6.49D-14 for atom     3.
 Variable       Old X    -DE/DX   Delta X   Delta X   Delta X     New X
                                 (Linear)    (Quad)   (Total)
    R1        2.06494   0.00001   0.00000   0.00002   0.00002   2.06496
    R2        2.06494   0.00001   0.00000   0.00002   0.00002   2.06496
    R3        2.06494   0.00001   0.00000   0.00002   0.00002   2.06496
    R4        2.06494   0.00001   0.00000   0.00002   0.00002   2.06496
    A1        1.91063   0.00000   0.00000   0.00000   0.00000   1.91063
    A2        1.91063   0.00000   0.00000   0.00000   0.00000   1.91063
    A3        1.91063   0.00000   0.00000   0.00000   0.00000   1.91063
    A4        1.91063   0.00000   0.00000   0.00000   0.00000   1.91063
    A5        1.91063   0.00000   0.00000   0.00000   0.00000   1.91063
    A6        1.91063   0.00000   0.00000   0.00000   0.00000   1.91063
    D1       -2.09440   0.00000   0.00000   0.00000   0.00000  -2.09440
    D2        2.09440   0.00000   0.00000   0.00000   0.00000   2.09440
    D3       -2.09440   0.00000   0.00000   0.00000   0.00000  -2.09440
    D4        2.09440   0.00000   0.00000   0.00000   0.00000   2.09440
         Item               Value     Threshold  Converged?
 Maximum Force            0.000007     0.000450     YES
 RMS     Force            0.000004     0.000300     YES
 Maximum Displacement     0.000019     0.001800     YES
 RMS     Displacement     0.000010     0.001200     YES
 Predicted change in Energy=-2.449292D-10
 Optimization completed.
    -- Stationary point found.
                           ----------------------------
                           !   Optimized Parameters   !
                           ! (Angstroms and Degrees)  !
 --------------------------                            --------------------------
 ! Name  Definition              Value          Derivative Info.                !
 --------------------------------------------------------------------------------
 ! R1    R(1,2)                  1.0927         -DE/DX =    0.0                 !
 ! R2    R(1,3)                  1.0927         -DE/DX =    0.0                 !
 ! R3    R(1,4)                  1.0927         -DE/DX =    0.0                 !
 ! R4    R(1,5)                  1.0927         -DE/DX =    0.0                 !
 ! A1    A(2,1,3)              109.4712         -DE/DX =    0.0                 !
 ! A2    A(2,1,4)              109.4712         -DE/DX =    0.0                 !
 ! A3    A(2,1,5)              109.4712         -DE/DX =    0.0                 !
 ! A4    A(3,1,4)              109.4712         -DE/DX =    0.0                 !
 ! A5    A(3,1,5)              109.4712         -DE/DX =    0.0                 !
 ! A6    A(4,1,5)              109.4712         -DE/DX =    0.0                 !
 ! D1    D(2,1,4,3)           -120.0            -DE/DX =    0.0                 !
 ! D2    D(2,1,5,3)            120.0            -DE/DX =    0.0                 !
 ! D3    D(2,1,5,4)           -120.0            -DE/DX =    0.0                 !
 ! D4    D(3,1,5,4)            120.0            -DE/DX =    0.0                 !
 --------------------------------------------------------------------------------
 GradGradGradGradGradGradGradGradGradGradGradGradGradGradGradGradGradGrad

 1|1|UNPC-DESKTOP-319GPER|Freq|RB3LYP|6-31+G(d,p)|C1H4|SAGAD|08-Oct-202
 0|0||#N Geom=AllCheck Guess=TCheck SCRF=Check GenChk RB3LYP/6-31+G(d,p
 ) Freq||Calculation of methane with B3LYP/6||0,1|C,-5.60103382,1.03695
 5126,-0.873651501|H,-5.2368066177,0.0067252891,-0.8736523813|H,-5.2367
 871672,1.5520629128,0.0185498864|H,-5.2367886025,1.5520639301,-1.76585
 28871|H,-6.6937528926,1.0369683721,-0.8736506221||Version=IA32W-G09Rev
 A.02|State=1-A1|HF=-40.5261442|RMSD=2.590e-010|RMSF=3.390e-006|ZeroPoi
 nt=0.0447931|Thermal=0.0476608|Dipole=0.,0.,0.|DipoleDeriv=-0.0238581,
 0.,0.,0.,-0.0238581,0.,0.,0.,-0.0238581,0.0566401,0.0716614,0.,0.07166
 14,-0.1207217,-0.0000002,0.,-0.0000002,0.0819752,0.0566373,-0.0358321,
 -0.0620636,-0.0358321,0.0313024,-0.0877687,-0.0620636,-0.0877687,-0.07
 00462,0.0566375,-0.0358321,0.0620634,-0.0358321,0.0313022,0.0877689,0.
 0620634,0.0877689,-0.0700462,-0.1460568,0.0000028,0.0000002,0.0000028,
 0.0819752,0.,0.0000002,0.,0.0819752|Polar=13.7081036,0.,13.7081036,0.,
 0.,13.7081036|PG=TD [O(C1),4C3(H1)]|NImag=0||0.54916090,0.,0.54916090,
 0.,0.,0.54916090,-0.07641180,0.08608956,0.00000007,0.07853154,0.086089
 56,-0.28948317,-0.00000021,-0.09450365,0.31242773,0.00000007,-0.000000
 21,-0.04597571,-0.00000008,0.00000023,0.04512074,-0.07641505,-0.043046
 48,-0.07455941,0.00325983,0.00467067,0.01068982,0.07853511,-0.04304648
 ,-0.10685089,-0.10543991,-0.01159357,-0.01257459,-0.02524801,0.0472536
 9,0.11194564,-0.07455941,-0.10543991,-0.22860474,0.00129998,0.00131146
 ,0.00124498,0.08184658,0.11574522,0.24559927,-0.07641481,-0.04304640,0
 .07455912,0.00325981,0.00467068,-0.01068982,0.00326007,0.00692256,-0.0
 0939033,0.07853484,-0.04304640,-0.10685113,0.10544012,-0.01159353,-0.0
 1257462,0.02524802,0.00692253,0.00815468,-0.01327956,0.04725360,0.1119
 4590,0.07455912,0.10544012,-0.22860474,-0.00129999,-0.00131148,0.00124
 502,0.00939030,0.01327958,-0.01948453,-0.08184626,-0.11574545,0.245599
 27,-0.31991925,0.00000332,0.00000022,-0.00863939,-0.00092728,0.,-0.008
 63997,0.00046380,0.00080319,-0.00863992,0.00046380,-0.00080317,0.34583
 853,0.00000332,-0.04597571,0.,0.03160118,0.00220464,-0.00000002,-0.015
 80041,-0.00067484,0.00166279,-0.01580044,-0.00067483,-0.00166276,-0.00
 000365,0.04512074,0.00000022,0.,-0.04597571,0.00000002,0.,-0.00163503,
 -0.02736729,0.00166312,0.00124502,0.02736729,-0.00166312,0.00124498,-0
 .00000024,0.,0.04512074||0.,0.,0.,-0.00000219,0.00000619,0.,-0.0000021
 9,-0.00000309,-0.00000536,-0.00000219,-0.00000309,0.00000536,0.0000065
 6,0.,0.|||@



 WE LOSE BECAUSE WE WIN

 GAMBLERS,

 RECOLLECTING WHICH,

 TOSS THEIR DICE AGAIN....


                          EMILY DICKINSON  BOLTS OF MELODY NO. 533
 Job cpu time:  0 days  0 hours  0 minutes  5.0 seconds.
 File lengths (MBytes):  RWF=      5 Int=      0 D2E=      0 Chk=      1 Scr=      1
 Normal termination of Gaussian 09 at Thu Oct 08 01:24:37 2020.
