 Entering Link 1 = C:\G09W\l1.exe PID=     12196.
  
 Copyright (c) 1988,1990,1992,1993,1995,1998,2003,2009, Gaussian, Inc.
                  All Rights Reserved.
  
 This is part of the Gaussian(R) 09 program.  It is based on
 the Gaussian(R) 03 system (copyright 2003, Gaussian, Inc.),
 the Gaussian(R) 98 system (copyright 1998, Gaussian, Inc.),
 the Gaussian(R) 94 system (copyright 1995, Gaussian, Inc.),
 the Gaussian 92(TM) system (copyright 1992, Gaussian, Inc.),
 the Gaussian 90(TM) system (copyright 1990, Gaussian, Inc.),
 the Gaussian 88(TM) system (copyright 1988, Gaussian, Inc.),
 the Gaussian 86(TM) system (copyright 1986, Carnegie Mellon
 University), and the Gaussian 82(TM) system (copyright 1983,
 Carnegie Mellon University). Gaussian is a federally registered
 trademark of Gaussian, Inc.
  
 This software contains proprietary and confidential information,
 including trade secrets, belonging to Gaussian, Inc.
  
 This software is provided under written license and may be
 used, copied, transmitted, or stored only in accord with that
 written license.
  
 The following legend is applicable only to US Government
 contracts under FAR:
  
                    RESTRICTED RIGHTS LEGEND
  
 Use, reproduction and disclosure by the US Government is
 subject to restrictions as set forth in subparagraphs (a)
 and (c) of the Commercial Computer Software - Restricted
 Rights clause in FAR 52.227-19.
  
 Gaussian, Inc.
 340 Quinnipiac St., Bldg. 40, Wallingford CT 06492
  
  
 ---------------------------------------------------------------
 Warning -- This program may not be used in any manner that
 competes with the business of Gaussian, Inc. or will provide
 assistance to any competitor of Gaussian, Inc.  The licensee
 of this program is prohibited from giving any competitor of
 Gaussian, Inc. access to this program.  By using this program,
 the user acknowledges that Gaussian, Inc. is engaged in the
 business of creating and licensing software in the field of
 computational chemistry and represents and warrants to the
 licensee that it is not a competitor of Gaussian, Inc. and that
 it will not use this program in any manner prohibited above.
 ---------------------------------------------------------------
  

 Cite this work as:
 Gaussian 09, Revision A.02,
 M. J. Frisch, G. W. Trucks, H. B. Schlegel, G. E. Scuseria, 
 M. A. Robb, J. R. Cheeseman, G. Scalmani, V. Barone, B. Mennucci, 
 G. A. Petersson, H. Nakatsuji, M. Caricato, X. Li, H. P. Hratchian, 
 A. F. Izmaylov, J. Bloino, G. Zheng, J. L. Sonnenberg, M. Hada, 
 M. Ehara, K. Toyota, R. Fukuda, J. Hasegawa, M. Ishida, T. Nakajima, 
 Y. Honda, O. Kitao, H. Nakai, T. Vreven, J. A. Montgomery, Jr., 
 J. E. Peralta, F. Ogliaro, M. Bearpark, J. J. Heyd, E. Brothers, 
 K. N. Kudin, V. N. Staroverov, R. Kobayashi, J. Normand, 
 K. Raghavachari, A. Rendell, J. C. Burant, S. S. Iyengar, J. Tomasi, 
 M. Cossi, N. Rega, J. M. Millam, M. Klene, J. E. Knox, J. B. Cross, 
 V. Bakken, C. Adamo, J. Jaramillo, R. Gomperts, R. E. Stratmann, 
 O. Yazyev, A. J. Austin, R. Cammi, C. Pomelli, J. W. Ochterski, 
 R. L. Martin, K. Morokuma, V. G. Zakrzewski, G. A. Voth, 
 P. Salvador, J. J. Dannenberg, S. Dapprich, A. D. Daniels, 
 O. Farkas, J. B. Foresman, J. V. Ortiz, J. Cioslowski, 
 and D. J. Fox, Gaussian, Inc., Wallingford CT, 2009.
 
 ******************************************
 Gaussian 09:  IA32W-G09RevA.02 11-Jun-2009
                08-Feb-2021 
 ******************************************
 %chk=D:\Documents\rayGit\FQ\quimicaComputacional\proyecto\decompositionHydrogenP
 eroxide\descompositionByRadicals\gasPhase\step4\ts\tsm062x.chk
 %mem=1500MB
 %nprocshared=4
 Will use up to    4 processors via shared memory.
 ----------------------------------------------------------------------
 # opt=(calcfc,ts,noeigen,maxcycles=100) freq=noraman 6-31+g(d,p) m062x
 ----------------------------------------------------------------------
 1/5=1,6=100,10=4,11=1,14=-1,18=20,26=3,38=1/1,3;
 2/9=110,12=2,17=6,18=5,40=1/2;
 3/5=1,6=6,7=111,11=2,16=1,25=1,30=1,71=2,74=-55/1,2,3;
 4//1;
 5/5=2,38=5/2;
 8/6=4,10=90,11=11/1;
 11/6=1,8=1,9=11,15=111,16=1/1,2,10;
 10/6=1,7=6,13=1/2;
 6/7=2,8=2,9=2,10=2,28=1/1;
 7/10=1,18=20,25=1/1,2,3,16;
 1/5=1,6=100,10=4,11=1,14=-1,18=20/3(2);
 2/9=110/2;
 99//99;
 2/9=110/2;
 3/5=1,6=6,7=111,11=2,16=1,25=1,30=1,71=1,74=-55/1,2,3;
 4/5=5,16=3/1;
 5/5=2,38=5/2;
 7//1,2,3,16;
 1/5=1,6=100,11=1,14=-1,18=20/3(-5);
 2/9=110/2;
 6/7=2,8=2,9=2,10=2,19=2,28=1/1;
 99/9=1/99;
 ---
 ts2
 ---
 Symbolic Z-matrix:
 Charge =  0 Multiplicity = 1
 O                    -1.20732   0.34506   0. 
 H                    -1.52778   1.25      0. 
 O                     0.11268   0.34506   0. 
 O                    -1.84823   2.15494   0. 
 H                    -1.10187   2.75871   0. 
 

 GradGradGradGradGradGradGradGradGradGradGradGradGradGradGradGradGradGrad
 Berny optimization.
 Initialization pass.
                           ----------------------------
                           !    Initial Parameters    !
                           ! (Angstroms and Degrees)  !
 --------------------------                            --------------------------
 ! Name  Definition              Value          Derivative Info.                !
 --------------------------------------------------------------------------------
 ! R1    R(1,2)                  0.96           calculate D2E/DX2 analytically  !
 ! R2    R(1,3)                  1.32           calculate D2E/DX2 analytically  !
 ! R3    R(2,4)                  0.96           calculate D2E/DX2 analytically  !
 ! R4    R(4,5)                  0.96           calculate D2E/DX2 analytically  !
 ! A1    A(2,1,3)              109.5            calculate D2E/DX2 analytically  !
 ! A2    A(2,4,5)              109.4712         calculate D2E/DX2 analytically  !
 ! A3    L(1,2,4,3,-1)         180.0            calculate D2E/DX2 analytically  !
 ! A4    L(1,2,4,3,-2)         180.0            calculate D2E/DX2 analytically  !
 ! D1    D(3,1,4,5)              0.0            calculate D2E/DX2 analytically  !
 --------------------------------------------------------------------------------
 Trust Radius=3.00D-01 FncErr=1.00D-07 GrdErr=1.00D-06
 Number of steps in this run= 100 maximum allowed number of steps= 100.
 Search for a saddle point of order  1.
 GradGradGradGradGradGradGradGradGradGradGradGradGradGradGradGradGradGrad

                          Input orientation:                          
 ---------------------------------------------------------------------
 Center     Atomic      Atomic             Coordinates (Angstroms)
 Number     Number       Type             X           Y           Z
 ---------------------------------------------------------------------
      1          8           0       -1.207323    0.345064    0.000000
      2          1           0       -1.527778    1.250000    0.000000
      3          8           0        0.112677    0.345064    0.000000
      4          8           0       -1.848232    2.154936    0.000000
      5          1           0       -1.101869    2.758709    0.000000
 ---------------------------------------------------------------------
                    Distance matrix (angstroms):
                    1          2          3          4          5
     1  O    0.000000
     2  H    0.960000   0.000000
     3  O    1.320000   1.873499   0.000000
     4  O    1.920000   0.960000   2.668483   0.000000
     5  H    2.415947   1.567673   2.701999   0.960000   0.000000
 Stoichiometry    H2O3
 Framework group  CS[SG(H2O3)]
 Deg. of freedom     7
 Full point group                 CS      NOp   2
 Largest Abelian subgroup         CS      NOp   2
 Largest concise Abelian subgroup C1      NOp   1
                         Standard orientation:                         
 ---------------------------------------------------------------------
 Center     Atomic      Atomic             Coordinates (Angstroms)
 Number     Number       Type             X           Y           Z
 ---------------------------------------------------------------------
      1          8           0       -0.708624   -0.081819    0.000000
      2          1           0        0.000000    0.565832    0.000000
      3          8           0       -0.194430   -1.297551    0.000000
      4          8           0        0.708624    1.213483    0.000000
      5          1           0        1.555443    0.761269    0.000000
 ---------------------------------------------------------------------
 Rotational constants (GHZ):     52.5179556      8.2987654      7.1663547
 Standard basis: 6-31+G(d,p) (6D, 7F)
 There are    50 symmetry adapted basis functions of A'  symmetry.
 There are    17 symmetry adapted basis functions of A"  symmetry.
 Integral buffers will be    262144 words long.
 Raffenetti 2 integral format.
 Two-electron integral symmetry is turned on.
    67 basis functions,   110 primitive gaussians,    67 cartesian basis functions
    13 alpha electrons       13 beta electrons
       nuclear repulsion energy        75.1335969342 Hartrees.
 NAtoms=    5 NActive=    5 NUniq=    5 SFac= 7.50D-01 NAtFMM=   80 NAOKFM=F Big=F
 One-electron integrals computed using PRISM.
 NBasis=    67 RedAO= T  NBF=    50    17
 NBsUse=    67 1.00D-06 NBFU=    50    17
 Harris functional with IExCor= 1009 diagonalized for initial guess.
 ExpMin= 8.45D-02 ExpMax= 5.48D+03 ExpMxC= 8.25D+02 IAcc=2 IRadAn=         0 AccDes= 0.00D+00
 HarFok:  IExCor= 1009 AccDes= 0.00D+00 IRadAn=         0 IDoV= 1
 ScaDFX=  1.000000  1.000000  1.000000  1.000000
 FoFCou: FMM=F IPFlag=           0 FMFlag=      100000 FMFlg1=           0
         NFxFlg=           0 DoJE=T BraDBF=F KetDBF=T FulRan=T
         Omega=  0.000000  0.000000  1.000000  0.000000  0.000000 ICntrl=     500 IOpCl=  0
         NMat0=    1 NMatS0=    1 NMatT0=    0 NMatD0=    1 NMtDS0=    0 NMtDT0=    0
         I1Cent=           4 NGrid=           0.
 Petite list used in FoFCou.
 Initial guess orbital symmetries:
       Occupied  (A') (A') (A') (A') (A') (A') (A') (A') (A') (A")
                 (A") (A') (A')
       Virtual   (A") (A') (A') (A') (A") (A') (A') (A') (A") (A')
                 (A") (A') (A') (A') (A') (A') (A') (A') (A') (A")
                 (A') (A') (A") (A') (A") (A') (A') (A") (A') (A')
                 (A") (A") (A') (A') (A') (A") (A') (A") (A') (A')
                 (A') (A') (A") (A") (A') (A') (A") (A') (A') (A')
                 (A') (A') (A') (A')
 The electronic state of the initial guess is 1-A'.
 Requested convergence on RMS density matrix=1.00D-08 within 128 cycles.
 Requested convergence on MAX density matrix=1.00D-06.
 Requested convergence on             energy=1.00D-06.
 No special actions if energy rises.
 Keep R1 ints in memory in canonical form, NReq=3550797.
 Integral accuracy reduced to 1.0D-05 until final iterations.
 Initial convergence to 1.0D-05 achieved.  Increase integral accuracy.
 SCF Done:  E(RM062X) =  -226.449523399     A.U. after   20 cycles
             Convg  =    0.5104D-08             -V/T =  2.0052
 Range of M.O.s used for correlation:     1    67
 NBasis=    67 NAE=    13 NBE=    13 NFC=     0 NFV=     0
 NROrb=     67 NOA=    13 NOB=    13 NVA=    54 NVB=    54

 **** Warning!!: The largest alpha MO coefficient is  0.15802829D+02

 Symmetrizing basis deriv contribution to polar:
 IMax=3 JMax=2 DiffMx= 0.00D+00
 G2DrvN: will do     6 centers at a time, making    1 passes doing MaxLOS=2.
 Calling FoFCou, ICntrl=  3107 FMM=F I1Cent=   0 AccDes= 0.00D+00.
 FoFDir/FoFCou used for L=0 through L=2.
 End of G2Drv Frequency-dependent properties file   721 does not exist.
 End of G2Drv Frequency-dependent properties file   722 does not exist.
          IDoAtm=11111
          Differentiating once with respect to nuclear coordinates.
          Keep R1 ints in memory in canonical form, NReq=3416965.
          There are    18 degrees of freedom in the 1st order CPHF.  IDoFFX=5.
     12 vectors produced by pass  0 Test12= 3.90D-11 5.56D-07 XBig12= 1.79D-01 3.33D-01.
 AX will form    12 AO Fock derivatives at one time.
     12 vectors produced by pass  1 Test12= 3.90D-11 5.56D-07 XBig12= 2.51D-02 8.67D-02.
     12 vectors produced by pass  2 Test12= 3.90D-11 5.56D-07 XBig12= 2.07D-03 1.05D-02.
     12 vectors produced by pass  3 Test12= 3.90D-11 5.56D-07 XBig12= 3.41D-05 1.58D-03.
     12 vectors produced by pass  4 Test12= 3.90D-11 5.56D-07 XBig12= 7.87D-07 2.37D-04.
      8 vectors produced by pass  5 Test12= 3.90D-11 5.56D-07 XBig12= 5.64D-09 1.92D-05.
      1 vectors produced by pass  6 Test12= 3.90D-11 5.56D-07 XBig12= 2.09D-11 1.45D-06.
 Inverted reduced A of dimension    69 with in-core refinement.
 End of Minotr Frequency-dependent properties file   721 does not exist.
 End of Minotr Frequency-dependent properties file   722 does not exist.

 **********************************************************************

            Population analysis using the SCF density.

 **********************************************************************

 Orbital symmetries:
       Occupied  (A') (A') (A') (A') (A') (A') (A') (A') (A") (A')
                 (A') (A") (A')
       Virtual   (A") (A') (A') (A') (A") (A') (A') (A') (A') (A")
                 (A") (A') (A') (A') (A') (A') (A') (A') (A') (A")
                 (A') (A') (A") (A') (A') (A") (A') (A") (A') (A')
                 (A") (A') (A") (A') (A') (A") (A') (A") (A') (A')
                 (A') (A") (A') (A") (A') (A') (A") (A') (A') (A')
                 (A') (A') (A') (A')
 The electronic state is 1-A'.
 Alpha  occ. eigenvalues --  -19.84762 -19.84716 -19.62552  -1.40948  -1.16212
 Alpha  occ. eigenvalues --   -1.01081  -0.73886  -0.63990  -0.60399  -0.54589
 Alpha  occ. eigenvalues --   -0.46320  -0.38017  -0.37569
 Alpha virt. eigenvalues --   -0.19945   0.06615   0.07315   0.12235   0.13710
 Alpha virt. eigenvalues --    0.17484   0.17998   0.19004   0.20199   0.20961
 Alpha virt. eigenvalues --    0.22358   0.25414   0.28072   0.33336   0.35657
 Alpha virt. eigenvalues --    0.58695   0.96866   0.99202   1.05264   1.05858
 Alpha virt. eigenvalues --    1.08755   1.13167   1.13734   1.19104   1.20505
 Alpha virt. eigenvalues --    1.24005   1.29058   1.41180   1.42156   1.49979
 Alpha virt. eigenvalues --    1.50570   1.59833   1.64087   1.66305   1.73769
 Alpha virt. eigenvalues --    1.74955   1.92520   1.97657   2.22436   2.23350
 Alpha virt. eigenvalues --    2.40567   2.44408   2.53082   2.67410   2.67837
 Alpha virt. eigenvalues --    2.96823   3.11340   3.36259   3.50612   3.57277
 Alpha virt. eigenvalues --    3.81367   4.06874   4.25922   4.36736
          Condensed to atoms (all electrons):
              1          2          3          4          5
     1  O    7.981283   0.007776   0.259100  -0.226967  -0.000120
     2  H    0.007776   0.314580  -0.005455   0.242451  -0.011050
     3  O    0.259100  -0.005455   7.713048   0.045195   0.004090
     4  O   -0.226967   0.242451   0.045195   8.439427   0.274461
     5  H   -0.000120  -0.011050   0.004090   0.274461   0.372700
 Mulliken atomic charges:
              1
     1  O   -0.021072
     2  H    0.451697
     3  O   -0.015977
     4  O   -0.774567
     5  H    0.359919
 Sum of Mulliken atomic charges =   0.00000
 Mulliken charges with hydrogens summed into heavy atoms:
              1
     1  O   -0.021072
     3  O   -0.015977
     4  O    0.037049
 Sum of Mulliken charges with hydrogens summed into heavy atoms =   0.00000
 APT atomic charges:
              1
     1  O   -0.023568
     2  H    0.355039
     3  O    0.043118
     4  O   -0.896267
     5  H    0.521678
 Sum of APT charges=   0.00000
 APT Atomic charges with hydrogens summed into heavy atoms:
              1
     1  O   -0.023568
     2  H    0.000000
     3  O    0.043118
     4  O   -0.019550
     5  H    0.000000
 Sum of APT charges=   0.00000
 Electronic spatial extent (au):  <R**2>=            172.3040
 Charge=              0.0000 electrons
 Dipole moment (field-independent basis, Debye):
    X=              0.2811    Y=             -1.9992    Z=              0.0000  Tot=              2.0188
 Quadrupole moment (field-independent basis, Debye-Ang):
   XX=            -15.2680   YY=            -21.9738   ZZ=            -16.9919
   XY=             -1.5966   XZ=              0.0000   YZ=              0.0000
 Traceless Quadrupole moment (field-independent basis, Debye-Ang):
   XX=              2.8099   YY=             -3.8959   ZZ=              1.0860
   XY=             -1.5966   XZ=              0.0000   YZ=              0.0000
 Octapole moment (field-independent basis, Debye-Ang**2):
  XXX=              5.7609  YYY=            -10.0128  ZZZ=              0.0000  XYY=             -3.2078
  XXY=              0.6942  XXZ=              0.0000  XZZ=             -1.0740  YZZ=             -2.1354
  YYZ=              0.0000  XYZ=              0.0000
 Hexadecapole moment (field-independent basis, Debye-Ang**3):
 XXXX=            -45.3915 YYYY=           -136.1614 ZZZZ=            -13.8888 XXXY=            -19.1018
 XXXZ=              0.0000 YYYX=            -30.0748 YYYZ=              0.0000 ZZZX=              0.0000
 ZZZY=              0.0000 XXYY=            -31.4554 XXZZ=            -11.6214 YYZZ=            -23.2364
 XXYZ=              0.0000 YYXZ=              0.0000 ZZXY=             -7.9334
 N-N= 7.513359693424D+01 E-N=-6.846403790690D+02  KE= 2.252721507569D+02
 Symmetry A'   KE= 2.165649113726D+02
 Symmetry A"   KE= 8.707239384357D+00
  Exact polarizability:   0.000   0.000   0.000   0.000   0.000   0.000
 Approx polarizability:  27.748  13.603  65.444   0.000   0.000  13.592
 Calling FoFJK, ICntrl=    100147 FMM=F ISym2X=1 I1Cent= 0 IOpClX= 0 NMat=1 NMatS=1 NMatT=0.
 ***** Axes restored to original set *****
 -------------------------------------------------------------------
 Center     Atomic                   Forces (Hartrees/Bohr)
 Number     Number              X              Y              Z
 -------------------------------------------------------------------
      1        8           0.210380515   -0.275794714    0.000000000
      2        1          -0.024298091    0.089201661    0.000000000
      3        8          -0.118275496   -0.002097943    0.000000000
      4        8          -0.066784726    0.178873682    0.000000000
      5        1          -0.001022202    0.009817314    0.000000000
 -------------------------------------------------------------------
 Cartesian Forces:  Max     0.275794714 RMS     0.109366945

 GradGradGradGradGradGradGradGradGradGradGradGradGradGradGradGradGradGrad
 Berny optimization.
 Internal  Forces:  Max     0.292718900 RMS     0.124916391
 Search for a saddle point.
 Step number   1 out of a maximum of  100
 All quantities printed in internal units (Hartrees-Bohrs-Radians)
 Swaping is turned off.
 Second derivative matrix not updated -- analytic derivatives used.
 The second derivative matrix:
                          R1        R2        R3        R4        A1
           R1           0.70684
           R2           0.04658   0.35508
           R3           0.38358  -0.01208   0.72548
           R4           0.01010  -0.00652  -0.00427   0.56910
           A1           0.01947   0.02145   0.02915  -0.00094   0.11707
           A2           0.02300   0.01238   0.01283   0.02385   0.01909
           A3           0.02447  -0.00672   0.01778  -0.00391  -0.01253
           A4           0.00000   0.00000   0.00000   0.00000   0.00000
           D1           0.00000   0.00000   0.00000   0.00000   0.00000
                          A2        A3        A4        D1
           A2           0.07197
           A3          -0.01340   0.12473
           A4           0.00000   0.00000   0.14840
           D1           0.00000   0.00000  -0.02946   0.02691
     Eigenvalues ---    0.02015   0.06213   0.10582   0.13831   0.15517
     Eigenvalues ---    0.30197   0.38781   0.57079   1.10343
 Eigenvectors required to have negative eigenvalues:
                          D1        A4        A2        A3        A1
   1                    0.97462   0.22389   0.00000   0.00000   0.00000
                          R4        R1        R3        R2
   1                    0.00000   0.00000   0.00000   0.00000
 RFO step:  Lambda0=2.014553365D-02 Lambda=-1.42949099D-01.
 Linear search not attempted -- option 19 set.
 Maximum step size (   0.300) exceeded in Quadratic search.
    -- Step size scaled by   0.702
 Iteration  1 RMS(Cart)=  0.10608423 RMS(Int)=  0.00804614
 Iteration  2 RMS(Cart)=  0.00881190 RMS(Int)=  0.00000468
 Iteration  3 RMS(Cart)=  0.00000398 RMS(Int)=  0.00000000
 Iteration  4 RMS(Cart)=  0.00000000 RMS(Int)=  0.00000000
 ClnCor:  largest displacement from symmetrization is 1.16D-03 for atom     4.
 Variable       Old X    -DE/DX   Delta X   Delta X   Delta X     New X
                                 (Linear)    (Quad)   (Total)
    R1        1.81414   0.29272   0.00000   0.22375   0.22375   2.03789
    R2        2.49444  -0.11833   0.00000  -0.18715  -0.18715   2.30729
    R3        1.81414   0.20050   0.00000   0.05973   0.05973   1.87387
    R4        1.81414   0.00544   0.00000  -0.00017  -0.00017   1.81397
    A1        1.91114   0.00540   0.00000   0.00492   0.00492   1.91606
    A2        1.91063   0.01493   0.00000   0.03261   0.03261   1.94324
    A3        3.14159   0.01640   0.00000   0.01576   0.01576   3.15735
    A4        3.14159   0.00000   0.00000   0.00052   0.00000   3.14159
    D1        0.00000   0.00000   0.00000   0.00225   0.00000   0.00000
         Item               Value     Threshold  Converged?
 Maximum Force            0.292719     0.000450     NO 
 RMS     Force            0.124916     0.000300     NO 
 Maximum Displacement     0.167185     0.001800     NO 
 RMS     Displacement     0.113138     0.001200     NO 
 Predicted change in Energy=-7.157146D-02
 GradGradGradGradGradGradGradGradGradGradGradGradGradGradGradGradGradGrad

                          Input orientation:                          
 ---------------------------------------------------------------------
 Center     Atomic      Atomic             Coordinates (Angstroms)
 Number     Number       Type             X           Y           Z
 ---------------------------------------------------------------------
      1          8           0       -1.136154    0.262163    0.000000
      2          1           0       -1.506679    1.274916    0.000000
      3          8           0        0.084792    0.268842    0.000000
      4          8           0       -1.862017    2.200673    0.000000
      5          1           0       -1.152467    2.847179    0.000000
 ---------------------------------------------------------------------
                    Distance matrix (angstroms):
                    1          2          3          4          5
     1  O    0.000000
     2  H    1.078405   0.000000
     3  O    1.220965   1.882808   0.000000
     4  O    2.069951   0.991610   2.742633   0.000000
     5  H    2.585068   1.611669   2.859831   0.959911   0.000000
 Stoichiometry    H2O3
 Framework group  CS[SG(H2O3)]
 Deg. of freedom     7
 Full point group                 CS      NOp   2
 Largest Abelian subgroup         CS      NOp   2
 Largest concise Abelian subgroup C1      NOp   1
                         Standard orientation:                         
 ---------------------------------------------------------------------
 Center     Atomic      Atomic             Coordinates (Angstroms)
 Number     Number       Type             X           Y           Z
 ---------------------------------------------------------------------
      1          8           0       -0.713168   -0.230869    0.000000
      2          1           0        0.000000    0.578049    0.000000
      3          8           0       -0.124636   -1.300629    0.000000
      4          8           0        0.643965    1.332105    0.000000
      5          1           0        1.550716    1.017092    0.000000
 ---------------------------------------------------------------------
 Rotational constants (GHZ):     57.4573539      7.6318741      6.7370178
 Standard basis: 6-31+G(d,p) (6D, 7F)
 There are    50 symmetry adapted basis functions of A'  symmetry.
 There are    17 symmetry adapted basis functions of A"  symmetry.
 Integral buffers will be    262144 words long.
 Raffenetti 2 integral format.
 Two-electron integral symmetry is turned on.
    67 basis functions,   110 primitive gaussians,    67 cartesian basis functions
    13 alpha electrons       13 beta electrons
       nuclear repulsion energy        74.7479097879 Hartrees.
 NAtoms=    5 NActive=    5 NUniq=    5 SFac= 7.50D-01 NAtFMM=   80 NAOKFM=F Big=F
 One-electron integrals computed using PRISM.
 NBasis=    67 RedAO= T  NBF=    50    17
 NBsUse=    67 1.00D-06 NBFU=    50    17
 Initial guess read from the read-write file.
 B after Tr=     0.000000    0.000000    0.000000
         Rot=    1.000000    0.000000    0.000000    0.000000 Ang=   0.00 deg.
 Initial guess orbital symmetries:
       Occupied  (A') (A') (A') (A') (A') (A') (A') (A') (A") (A')
                 (A') (A") (A')
       Virtual   (A") (A') (A') (A') (A") (A') (A') (A') (A') (A")
                 (A") (A') (A') (A') (A') (A') (A') (A') (A') (A")
                 (A') (A') (A") (A') (A') (A") (A') (A") (A') (A')
                 (A") (A') (A") (A') (A') (A") (A') (A") (A') (A')
                 (A') (A") (A') (A") (A') (A') (A") (A') (A') (A')
                 (A') (A') (A') (A')
 Harris functional with IExCor= 1009 diagonalized for initial guess.
 ExpMin= 8.45D-02 ExpMax= 5.48D+03 ExpMxC= 8.25D+02 IAcc=2 IRadAn=         0 AccDes= 0.00D+00
 HarFok:  IExCor= 1009 AccDes= 0.00D+00 IRadAn=         0 IDoV= 1
 ScaDFX=  1.000000  1.000000  1.000000  1.000000
 FoFCou: FMM=F IPFlag=           0 FMFlag=      100000 FMFlg1=           0
         NFxFlg=           0 DoJE=T BraDBF=F KetDBF=T FulRan=T
         Omega=  0.000000  0.000000  1.000000  0.000000  0.000000 ICntrl=     500 IOpCl=  0
         NMat0=    1 NMatS0=    1 NMatT0=    0 NMatD0=    1 NMtDS0=    0 NMtDT0=    0
         I1Cent=           4 NGrid=           0.
 Petite list used in FoFCou.
 Requested convergence on RMS density matrix=1.00D-08 within 128 cycles.
 Requested convergence on MAX density matrix=1.00D-06.
 Requested convergence on             energy=1.00D-06.
 No special actions if energy rises.
 Keep R1 ints in memory in canonical form, NReq=3550801.
 Integral accuracy reduced to 1.0D-05 until final iterations.
 Initial convergence to 1.0D-05 achieved.  Increase integral accuracy.
 SCF Done:  E(RM062X) =  -226.523396633     A.U. after   18 cycles
             Convg  =    0.8275D-08             -V/T =  2.0060
 Calling FoFJK, ICntrl=      2127 FMM=F ISym2X=1 I1Cent= 0 IOpClX= 0 NMat=1 NMatS=1 NMatT=0.
 ***** Axes restored to original set *****
 -------------------------------------------------------------------
 Center     Atomic                   Forces (Hartrees/Bohr)
 Number     Number              X              Y              Z
 -------------------------------------------------------------------
      1        8           0.083775466   -0.156031183    0.000000000
      2        1          -0.021935224    0.072179553    0.000000000
      3        8          -0.028987188   -0.001385021    0.000000000
      4        8          -0.031305394    0.080479374    0.000000000
      5        1          -0.001547660    0.004757276    0.000000000
 -------------------------------------------------------------------
 Cartesian Forces:  Max     0.156031183 RMS     0.055002582

 GradGradGradGradGradGradGradGradGradGradGradGradGradGradGradGradGradGrad
 Berny optimization.
 Internal  Forces:  Max     0.166665041 RMS     0.064216669
 Search for a saddle point.
 Step number   2 out of a maximum of  100
 All quantities printed in internal units (Hartrees-Bohrs-Radians)
 Swaping is turned off.
 Update second derivatives using D2CorX and points    1    2
 The second derivative matrix:
                          R1        R2        R3        R4        A1
           R1           0.48838
           R2           0.00838   0.48342
           R3           0.29359  -0.00846   0.69118
           R4           0.00867  -0.00579  -0.00472   0.56910
           A1           0.01608   0.01999   0.02762  -0.00097   0.11703
           A2           0.01486  -0.00353   0.00740   0.02369   0.01906
           A3           0.01550  -0.01221   0.01352  -0.00400  -0.01264
           A4           0.00000   0.00000   0.00000   0.00000   0.00000
           D1           0.00000   0.00000   0.00000   0.00000   0.00000
                          A2        A3        A4        D1
           A2           0.07322
           A3          -0.01331   0.12448
           A4           0.00000   0.00000   0.14840
           D1           0.00000   0.00000  -0.02946   0.02691
     Eigenvalues ---    0.02015   0.06325   0.10656   0.13964   0.15517
     Eigenvalues ---    0.27866   0.48528   0.57096   0.90246
 Eigenvectors required to have negative eigenvalues:
                          D1        A4        A2        A3        A1
   1                    0.97462   0.22389   0.00000   0.00000   0.00000
                          R4        R2        R3        R1
   1                    0.00000   0.00000   0.00000   0.00000
 RFO step:  Lambda0=2.014553365D-02 Lambda=-5.33058458D-02.
 Linear search not attempted -- option 19 set.
 Maximum step size (   0.300) exceeded in Quadratic search.
    -- Step size scaled by   0.953
 Iteration  1 RMS(Cart)=  0.08153560 RMS(Int)=  0.03093499
 Iteration  2 RMS(Cart)=  0.03355882 RMS(Int)=  0.00003487
 Iteration  3 RMS(Cart)=  0.00003328 RMS(Int)=  0.00000000
 Iteration  4 RMS(Cart)=  0.00000000 RMS(Int)=  0.00000000
 ClnCor:  largest displacement from symmetrization is 1.47D-04 for atom     4.
 Variable       Old X    -DE/DX   Delta X   Delta X   Delta X     New X
                                 (Linear)    (Quad)   (Total)
    R1        2.03789   0.16667   0.00000   0.29280   0.29280   2.33069
    R2        2.30729  -0.02902   0.00000  -0.05528  -0.05528   2.25201
    R3        1.87387   0.09135   0.00000   0.00050   0.00050   1.87437
    R4        1.81397   0.00208   0.00000  -0.00242  -0.00242   1.81155
    A1        1.91606   0.00289   0.00000  -0.00709  -0.00709   1.90897
    A2        1.94324   0.00823   0.00000   0.02936   0.02936   1.97260
    A3        3.15735   0.00837   0.00000   0.01714   0.01714   3.17449
    A4        3.14159   0.00000   0.00000   0.00007   0.00000   3.14159
    D1        0.00000   0.00000   0.00000   0.00030   0.00000   0.00000
         Item               Value     Threshold  Converged?
 Maximum Force            0.166665     0.000450     NO 
 RMS     Force            0.064217     0.000300     NO 
 Maximum Displacement     0.175535     0.001800     NO 
 RMS     Displacement     0.113895     0.001200     NO 
 Predicted change in Energy=-2.899320D-02
 GradGradGradGradGradGradGradGradGradGradGradGradGradGradGradGradGradGrad

                          Input orientation:                          
 ---------------------------------------------------------------------
 Center     Atomic      Atomic             Coordinates (Angstroms)
 Number     Number       Type             X           Y           Z
 ---------------------------------------------------------------------
      1          8           0       -1.087432    0.169274    0.000000
      2          1           0       -1.509464    1.328169    0.000000
      3          8           0        0.104210    0.182461    0.000000
      4          8           0       -1.879340    2.248499    0.000000
      5          1           0       -1.200500    2.925370    0.000000
 ---------------------------------------------------------------------
                    Distance matrix (angstroms):
                    1          2          3          4          5
     1  O    0.000000
     2  H    1.233349   0.000000
     3  O    1.191714   1.979037   0.000000
     4  O    2.224926   0.991874   2.864084   0.000000
     5  H    2.758414   1.626809   3.037403   0.958633   0.000000
 Stoichiometry    H2O3
 Framework group  CS[SG(H2O3)]
 Deg. of freedom     7
 Full point group                 CS      NOp   2
 Largest Abelian subgroup         CS      NOp   2
 Largest concise Abelian subgroup C1      NOp   1
                         Standard orientation:                         
 ---------------------------------------------------------------------
 Center     Atomic      Atomic             Coordinates (Angstroms)
 Number     Number       Type             X           Y           Z
 ---------------------------------------------------------------------
      1          8           0       -0.710766   -0.369275    0.000000
      2          1           0        0.000000    0.638673    0.000000
      3          8           0       -0.019852   -1.340264    0.000000
      4          8           0        0.544634    1.467641    0.000000
      5          1           0        1.487870    1.296512    0.000000
 ---------------------------------------------------------------------
 Rotational constants (GHZ):     58.2394052      6.8536845      6.1320566
 Standard basis: 6-31+G(d,p) (6D, 7F)
 There are    50 symmetry adapted basis functions of A'  symmetry.
 There are    17 symmetry adapted basis functions of A"  symmetry.
 Integral buffers will be    262144 words long.
 Raffenetti 2 integral format.
 Two-electron integral symmetry is turned on.
    67 basis functions,   110 primitive gaussians,    67 cartesian basis functions
    13 alpha electrons       13 beta electrons
       nuclear repulsion energy        72.9751993493 Hartrees.
 NAtoms=    5 NActive=    5 NUniq=    5 SFac= 7.50D-01 NAtFMM=   80 NAOKFM=F Big=F
 One-electron integrals computed using PRISM.
 NBasis=    67 RedAO= T  NBF=    50    17
 NBsUse=    67 1.00D-06 NBFU=    50    17
 Initial guess read from the read-write file.
 B after Tr=     0.000000    0.000000    0.000000
         Rot=    1.000000    0.000000    0.000000    0.000000 Ang=   0.00 deg.
 Initial guess orbital symmetries:
       Occupied  (A') (A') (A') (A') (A') (A') (A') (A') (A") (A')
                 (A') (A') (A")
       Virtual   (A") (A') (A') (A') (A") (A') (A') (A') (A") (A")
                 (A') (A') (A') (A') (A') (A') (A') (A') (A') (A")
                 (A') (A') (A") (A') (A') (A") (A') (A') (A") (A")
                 (A') (A') (A') (A") (A') (A") (A') (A") (A') (A')
                 (A') (A') (A") (A') (A") (A') (A") (A') (A') (A')
                 (A') (A') (A') (A')
 Harris functional with IExCor= 1009 diagonalized for initial guess.
 ExpMin= 8.45D-02 ExpMax= 5.48D+03 ExpMxC= 8.25D+02 IAcc=2 IRadAn=         0 AccDes= 0.00D+00
 HarFok:  IExCor= 1009 AccDes= 0.00D+00 IRadAn=         0 IDoV= 1
 ScaDFX=  1.000000  1.000000  1.000000  1.000000
 FoFCou: FMM=F IPFlag=           0 FMFlag=      100000 FMFlg1=           0
         NFxFlg=           0 DoJE=T BraDBF=F KetDBF=T FulRan=T
         Omega=  0.000000  0.000000  1.000000  0.000000  0.000000 ICntrl=     500 IOpCl=  0
         NMat0=    1 NMatS0=    1 NMatT0=    0 NMatD0=    1 NMtDS0=    0 NMtDT0=    0
         I1Cent=           4 NGrid=           0.
 Petite list used in FoFCou.
 Requested convergence on RMS density matrix=1.00D-08 within 128 cycles.
 Requested convergence on MAX density matrix=1.00D-06.
 Requested convergence on             energy=1.00D-06.
 No special actions if energy rises.
 Keep R1 ints in memory in canonical form, NReq=3550801.
 Integral accuracy reduced to 1.0D-05 until final iterations.
 Initial convergence to 1.0D-05 achieved.  Increase integral accuracy.
 SCF Done:  E(RM062X) =  -226.560632439     A.U. after   18 cycles
             Convg  =    0.7449D-08             -V/T =  2.0067
 Calling FoFJK, ICntrl=      2127 FMM=F ISym2X=1 I1Cent= 0 IOpClX= 0 NMat=1 NMatS=1 NMatT=0.
 ***** Axes restored to original set *****
 -------------------------------------------------------------------
 Center     Atomic                   Forces (Hartrees/Bohr)
 Number     Number              X              Y              Z
 -------------------------------------------------------------------
      1        8           0.019806924   -0.084859540    0.000000000
      2        1          -0.013058934    0.051744407    0.000000000
      3        8           0.009510777   -0.000208290    0.000000000
      4        8          -0.017236145    0.032908429    0.000000000
      5        1           0.000977378    0.000414995    0.000000000
 -------------------------------------------------------------------
 Cartesian Forces:  Max     0.084859540 RMS     0.028181732

 GradGradGradGradGradGradGradGradGradGradGradGradGradGradGradGradGradGrad
 Berny optimization.
 Internal  Forces:  Max     0.089962847 RMS     0.032612245
 Search for a saddle point.
 Step number   3 out of a maximum of  100
 All quantities printed in internal units (Hartrees-Bohrs-Radians)
 Swaping is turned off.
 Update second derivatives using D2CorX and points    1    2    3
 The second derivative matrix:
                          R1        R2        R3        R4        A1
           R1           0.25266
           R2          -0.03580   0.49633
           R3           0.18131  -0.01425   0.65027
           R4           0.00527  -0.00565  -0.00570   0.56908
           A1           0.01298   0.02034   0.02698  -0.00097   0.11704
           A2           0.02301  -0.00762   0.00697   0.02359   0.01889
           A3           0.00476  -0.01484   0.00794  -0.00417  -0.01281
           A4           0.00000   0.00000   0.00000   0.00000   0.00000
           D1           0.00000   0.00000   0.00000   0.00000   0.00000
                          A2        A3        A4        D1
           A2           0.07447
           A3          -0.01277   0.12400
           A4           0.00000   0.00000   0.14840
           D1           0.00000   0.00000  -0.02946   0.02691
     Eigenvalues ---    0.02015   0.06255   0.10631   0.13770   0.15517
     Eigenvalues ---    0.18363   0.49726   0.57099   0.72542
 Eigenvectors required to have negative eigenvalues:
                          D1        A4        A2        A3        A1
   1                    0.97462   0.22389   0.00000   0.00000   0.00000
                          R4        R2        R1        R3
   1                    0.00000   0.00000   0.00000   0.00000
 RFO step:  Lambda0=2.014553365D-02 Lambda=-3.08591962D-02.
 Linear search not attempted -- option 19 set.
 Maximum step size (   0.300) exceeded in Quadratic search.
    -- Step size scaled by   0.821
 Iteration  1 RMS(Cart)=  0.06153519 RMS(Int)=  0.02992473
 Iteration  2 RMS(Cart)=  0.03234163 RMS(Int)=  0.00003292
 Iteration  3 RMS(Cart)=  0.00003370 RMS(Int)=  0.00000000
 Iteration  4 RMS(Cart)=  0.00000000 RMS(Int)=  0.00000000
 ClnCor:  largest displacement from symmetrization is 1.02D-04 for atom     4.
 Variable       Old X    -DE/DX   Delta X   Delta X   Delta X     New X
                                 (Linear)    (Quad)   (Total)
    R1        2.33069   0.08996   0.00000   0.28965   0.28965   2.62034
    R2        2.25201   0.00951   0.00000   0.03359   0.03359   2.28560
    R3        1.87437   0.03698   0.00000  -0.03089  -0.03089   1.84348
    R4        1.81155   0.00098   0.00000   0.00129   0.00129   1.81284
    A1        1.90897   0.00069   0.00000  -0.01166  -0.01166   1.89731
    A2        1.97260  -0.00071   0.00000  -0.06098  -0.06098   1.91162
    A3        3.17449   0.00430   0.00000   0.01273   0.01273   3.18722
    A4        3.14159   0.00000   0.00000  -0.00005   0.00000   3.14159
    D1        0.00000   0.00000   0.00000  -0.00021   0.00000   0.00000
         Item               Value     Threshold  Converged?
 Maximum Force            0.089963     0.000450     NO 
 RMS     Force            0.032612     0.000300     NO 
 Maximum Displacement     0.140789     0.001800     NO 
 RMS     Displacement     0.091015     0.001200     NO 
 Predicted change in Energy=-1.632225D-02
 GradGradGradGradGradGradGradGradGradGradGradGradGradGradGradGradGradGrad

                          Input orientation:                          
 ---------------------------------------------------------------------
 Center     Atomic      Atomic             Coordinates (Angstroms)
 Number     Number       Type             X           Y           Z
 ---------------------------------------------------------------------
      1          8           0       -1.058764    0.094772    0.000000
      2          1           0       -1.538364    1.395816    0.000000
      3          8           0        0.150293    0.127013    0.000000
      4          8           0       -1.917178    2.294791    0.000000
      5          1           0       -1.208513    2.941380    0.000000
 ---------------------------------------------------------------------
                    Distance matrix (angstroms):
                    1          2          3          4          5
     1  O    0.000000
     2  H    1.386627   0.000000
     3  O    1.209487   2.112209   0.000000
     4  O    2.361558   0.975528   2.995613   0.000000
     5  H    2.850544   1.580370   3.125222   0.959314   0.000000
 Stoichiometry    H2O3
 Framework group  CS[SG(H2O3)]
 Deg. of freedom     7
 Full point group                 CS      NOp   2
 Largest Abelian subgroup         CS      NOp   2
 Largest concise Abelian subgroup C1      NOp   1
                         Standard orientation:                         
 ---------------------------------------------------------------------
 Center     Atomic      Atomic             Coordinates (Angstroms)
 Number     Number       Type             X           Y           Z
 ---------------------------------------------------------------------
      1          8           0       -0.711158   -0.466485    0.000000
      2          1           0        0.000000    0.723889    0.000000
      3          8           0        0.073332   -1.387047    0.000000
      4          8           0        0.461595    1.583298    0.000000
      5          1           0        1.409838    1.437978    0.000000
 ---------------------------------------------------------------------
 Rotational constants (GHZ):     55.5103276      6.2152106      5.5893944
 Standard basis: 6-31+G(d,p) (6D, 7F)
 There are    50 symmetry adapted basis functions of A'  symmetry.
 There are    17 symmetry adapted basis functions of A"  symmetry.
 Integral buffers will be    262144 words long.
 Raffenetti 2 integral format.
 Two-electron integral symmetry is turned on.
    67 basis functions,   110 primitive gaussians,    67 cartesian basis functions
    13 alpha electrons       13 beta electrons
       nuclear repulsion energy        70.6325934166 Hartrees.
 NAtoms=    5 NActive=    5 NUniq=    5 SFac= 7.50D-01 NAtFMM=   80 NAOKFM=F Big=F
 One-electron integrals computed using PRISM.
 NBasis=    67 RedAO= T  NBF=    50    17
 NBsUse=    67 1.00D-06 NBFU=    50    17
 Initial guess read from the read-write file.
 B after Tr=     0.000000    0.000000    0.000000
         Rot=    1.000000    0.000000    0.000000    0.000000 Ang=   0.00 deg.
 Initial guess orbital symmetries:
       Occupied  (A') (A') (A') (A') (A') (A') (A') (A') (A") (A')
                 (A') (A') (A")
       Virtual   (A") (A') (A') (A') (A") (A') (A') (A') (A") (A")
                 (A') (A') (A') (A') (A') (A') (A') (A') (A') (A")
                 (A') (A') (A") (A') (A') (A") (A') (A') (A") (A")
                 (A') (A') (A") (A') (A') (A") (A') (A") (A') (A')
                 (A') (A') (A") (A') (A") (A") (A') (A') (A') (A')
                 (A') (A') (A') (A')
 Harris functional with IExCor= 1009 diagonalized for initial guess.
 ExpMin= 8.45D-02 ExpMax= 5.48D+03 ExpMxC= 8.25D+02 IAcc=2 IRadAn=         0 AccDes= 0.00D+00
 HarFok:  IExCor= 1009 AccDes= 0.00D+00 IRadAn=         0 IDoV= 1
 ScaDFX=  1.000000  1.000000  1.000000  1.000000
 FoFCou: FMM=F IPFlag=           0 FMFlag=      100000 FMFlg1=           0
         NFxFlg=           0 DoJE=T BraDBF=F KetDBF=T FulRan=T
         Omega=  0.000000  0.000000  1.000000  0.000000  0.000000 ICntrl=     500 IOpCl=  0
         NMat0=    1 NMatS0=    1 NMatT0=    0 NMatD0=    1 NMtDS0=    0 NMtDT0=    0
         I1Cent=           4 NGrid=           0.
 Petite list used in FoFCou.
 Requested convergence on RMS density matrix=1.00D-08 within 128 cycles.
 Requested convergence on MAX density matrix=1.00D-06.
 Requested convergence on             energy=1.00D-06.
 No special actions if energy rises.
 Keep R1 ints in memory in canonical form, NReq=3551239.
 Integral accuracy reduced to 1.0D-05 until final iterations.
 Initial convergence to 1.0D-05 achieved.  Increase integral accuracy.
 SCF Done:  E(RM062X) =  -226.579601572     A.U. after   18 cycles
             Convg  =    0.1950D-08             -V/T =  2.0075
 Calling FoFJK, ICntrl=      2127 FMM=F ISym2X=1 I1Cent= 0 IOpClX= 0 NMat=1 NMatS=1 NMatT=0.
 ***** Axes restored to original set *****
 -------------------------------------------------------------------
 Center     Atomic                   Forces (Hartrees/Bohr)
 Number     Number              X              Y              Z
 -------------------------------------------------------------------
      1        8           0.040095082   -0.048437859    0.000000000
      2        1          -0.007516102    0.027641663    0.000000000
      3        8          -0.023159479   -0.000129714    0.000000000
      4        8          -0.009894240    0.019851224    0.000000000
      5        1           0.000474738    0.001074687    0.000000000
 -------------------------------------------------------------------
 Cartesian Forces:  Max     0.048437859 RMS     0.019670826

 GradGradGradGradGradGradGradGradGradGradGradGradGradGradGradGradGradGrad
 Berny optimization.
 Internal  Forces:  Max     0.051441041 RMS     0.020320070
 Search for a saddle point.
 Step number   4 out of a maximum of  100
 All quantities printed in internal units (Hartrees-Bohrs-Radians)
 Swaping is turned off.
 Update second derivatives using D2CorX and points    2    3    4
 The second derivative matrix:
                          R1        R2        R3        R4        A1
           R1           0.14290
           R2           0.05711   0.46886
           R3           0.12021   0.00094   0.64237
           R4           0.00198  -0.00447  -0.00638   0.56903
           A1           0.01632   0.01715   0.02909  -0.00086   0.11694
           A2           0.01503  -0.01321   0.01123   0.02372   0.01924
           A3           0.00237  -0.01137   0.00557  -0.00429  -0.01275
           A4           0.00000   0.00000   0.00000   0.00000   0.00000
           D1           0.00000   0.00000   0.00000   0.00000   0.00000
                          A2        A3        A4        D1
           A2           0.07709
           A3          -0.01328   0.12399
           A4           0.00000   0.00000   0.14840
           D1           0.00000   0.00000  -0.02946   0.02691
     Eigenvalues ---    0.02015   0.06345   0.09909   0.11616   0.14126
     Eigenvalues ---    0.15517   0.47767   0.57015   0.67341
 Eigenvectors required to have negative eigenvalues:
                          D1        A4        A2        A3        A1
   1                    0.97462   0.22389   0.00000   0.00000   0.00000
                          R1        R2        R4        R3
   1                    0.00000   0.00000   0.00000   0.00000
 RFO step:  Lambda0=2.014553365D-02 Lambda=-2.07946744D-02.
 Linear search not attempted -- option 19 set.
 Maximum step size (   0.300) exceeded in Quadratic search.
    -- Step size scaled by   0.760
 Iteration  1 RMS(Cart)=  0.05358702 RMS(Int)=  0.02891747
 Iteration  2 RMS(Cart)=  0.03182339 RMS(Int)=  0.00003414
 Iteration  3 RMS(Cart)=  0.00003702 RMS(Int)=  0.00000000
 Iteration  4 RMS(Cart)=  0.00000000 RMS(Int)=  0.00000000
 ClnCor:  largest displacement from symmetrization is 2.64D-04 for atom     4.
 Variable       Old X    -DE/DX   Delta X   Delta X   Delta X     New X
                                 (Linear)    (Quad)   (Total)
    R1        2.62034   0.05144   0.00000   0.28692   0.28692   2.90727
    R2        2.28560  -0.02320   0.00000  -0.06999  -0.06999   2.21561
    R3        1.84348   0.02294   0.00000  -0.02394  -0.02394   1.81954
    R4        1.81284   0.00112   0.00000   0.00129   0.00129   1.81413
    A1        1.89731  -0.00101   0.00000  -0.02056  -0.02056   1.87674
    A2        1.91162   0.00079   0.00000  -0.04170  -0.04170   1.86992
    A3        3.18722   0.00164   0.00000  -0.00626  -0.00626   3.18097
    A4        3.14159   0.00000   0.00000  -0.00012   0.00000   3.14159
    D1        0.00000   0.00000   0.00000  -0.00054   0.00000   0.00000
         Item               Value     Threshold  Converged?
 Maximum Force            0.051441     0.000450     NO 
 RMS     Force            0.020320     0.000300     NO 
 Maximum Displacement     0.147584     0.001800     NO 
 RMS     Displacement     0.081261     0.001200     NO 
 Predicted change in Energy=-1.073649D-02
 GradGradGradGradGradGradGradGradGradGradGradGradGradGradGradGradGradGrad

                          Input orientation:                          
 ---------------------------------------------------------------------
 Center     Atomic      Atomic             Coordinates (Angstroms)
 Number     Number       Type             X           Y           Z
 ---------------------------------------------------------------------
      1          8           0       -1.009882    0.016674    0.000000
      2          1           0       -1.563380    1.452118    0.000000
      3          8           0        0.160310    0.089409    0.000000
      4          8           0       -1.944886    2.336174    0.000000
      5          1           0       -1.214688    2.959398    0.000000
 ---------------------------------------------------------------------
                    Distance matrix (angstroms):
                    1          2          3          4          5
     1  O    0.000000
     2  H    1.538461   0.000000
     3  O    1.172450   2.197290   0.000000
     4  O    2.500863   0.962861   3.078929   0.000000
     5  H    2.949842   1.547087   3.182366   0.959998   0.000000
 Stoichiometry    H2O3
 Framework group  CS[SG(H2O3)]
 Deg. of freedom     7
 Full point group                 CS      NOp   2
 Largest Abelian subgroup         CS      NOp   2
 Largest concise Abelian subgroup C1      NOp   1
                         Standard orientation:                         
 ---------------------------------------------------------------------
 Center     Atomic      Atomic             Coordinates (Angstroms)
 Number     Number       Type             X           Y           Z
 ---------------------------------------------------------------------
      1          8           0       -0.704395   -0.568989    0.000000
      2          1           0        0.000000    0.798742    0.000000
      3          8           0        0.127852   -1.394825    0.000000
      4          8           0        0.406816    1.671440    0.000000
      5          1           0        1.357808    1.540249    0.000000
 ---------------------------------------------------------------------
 Rotational constants (GHZ):     55.9090197      5.7733915      5.2330098
 Standard basis: 6-31+G(d,p) (6D, 7F)
 There are    50 symmetry adapted basis functions of A'  symmetry.
 There are    17 symmetry adapted basis functions of A"  symmetry.
 Integral buffers will be    262144 words long.
 Raffenetti 2 integral format.
 Two-electron integral symmetry is turned on.
    67 basis functions,   110 primitive gaussians,    67 cartesian basis functions
    13 alpha electrons       13 beta electrons
       nuclear repulsion energy        70.0202844640 Hartrees.
 NAtoms=    5 NActive=    5 NUniq=    5 SFac= 7.50D-01 NAtFMM=   80 NAOKFM=F Big=F
 One-electron integrals computed using PRISM.
 NBasis=    67 RedAO= T  NBF=    50    17
 NBsUse=    67 1.00D-06 NBFU=    50    17
 Initial guess read from the read-write file.
 B after Tr=     0.000000    0.000000    0.000000
         Rot=    1.000000    0.000000    0.000000    0.000000 Ang=   0.00 deg.
 Initial guess orbital symmetries:
       Occupied  (A') (A') (A') (A') (A') (A') (A') (A') (A") (A')
                 (A') (A') (A")
       Virtual   (A") (A') (A') (A') (A") (A') (A') (A') (A") (A")
                 (A') (A') (A') (A') (A') (A') (A') (A') (A') (A")
                 (A') (A') (A") (A') (A') (A") (A') (A') (A") (A")
                 (A') (A') (A") (A') (A') (A") (A') (A") (A') (A')
                 (A') (A') (A") (A') (A") (A") (A') (A') (A') (A')
                 (A') (A') (A') (A')
 Harris functional with IExCor= 1009 diagonalized for initial guess.
 ExpMin= 8.45D-02 ExpMax= 5.48D+03 ExpMxC= 8.25D+02 IAcc=2 IRadAn=         0 AccDes= 0.00D+00
 HarFok:  IExCor= 1009 AccDes= 0.00D+00 IRadAn=         0 IDoV= 1
 ScaDFX=  1.000000  1.000000  1.000000  1.000000
 FoFCou: FMM=F IPFlag=           0 FMFlag=      100000 FMFlg1=           0
         NFxFlg=           0 DoJE=T BraDBF=F KetDBF=T FulRan=T
         Omega=  0.000000  0.000000  1.000000  0.000000  0.000000 ICntrl=     500 IOpCl=  0
         NMat0=    1 NMatS0=    1 NMatT0=    0 NMatD0=    1 NMtDS0=    0 NMtDT0=    0
         I1Cent=           4 NGrid=           0.
 Petite list used in FoFCou.
 Requested convergence on RMS density matrix=1.00D-08 within 128 cycles.
 Requested convergence on MAX density matrix=1.00D-06.
 Requested convergence on             energy=1.00D-06.
 No special actions if energy rises.
 Keep R1 ints in memory in canonical form, NReq=3551239.
 Integral accuracy reduced to 1.0D-05 until final iterations.
 Initial convergence to 1.0D-05 achieved.  Increase integral accuracy.
 SCF Done:  E(RM062X) =  -226.589568426     A.U. after   16 cycles
             Convg  =    0.3279D-08             -V/T =  2.0071
 Calling FoFJK, ICntrl=      2127 FMM=F ISym2X=1 I1Cent= 0 IOpClX= 0 NMat=1 NMatS=1 NMatT=0.
 ***** Axes restored to original set *****
 -------------------------------------------------------------------
 Center     Atomic                   Forces (Hartrees/Bohr)
 Number     Number              X              Y              Z
 -------------------------------------------------------------------
      1        8          -0.035550334   -0.030285549    0.000000000
      2        1          -0.004011521    0.008646127    0.000000000
      3        8           0.045682554    0.003057230    0.000000000
      4        8          -0.005823698    0.016433289    0.000000000
      5        1          -0.000297001    0.002148903    0.000000000
 -------------------------------------------------------------------
 Cartesian Forces:  Max     0.045682554 RMS     0.017657492

 GradGradGradGradGradGradGradGradGradGradGradGradGradGradGradGradGradGrad
 Berny optimization.
 Internal  Forces:  Max     0.045812272 RMS     0.019249918
 Search for a saddle point.
 Step number   5 out of a maximum of  100
 All quantities printed in internal units (Hartrees-Bohrs-Radians)
 Swaping is turned off.
 Update second derivatives using D2CorX and points    3    4    5
 The second derivative matrix:
                          R1        R2        R3        R4        A1
           R1           0.06002
           R2          -0.11133   0.50654
           R3           0.07622   0.01930   0.64962
           R4          -0.00105  -0.00506  -0.00640   0.56900
           A1           0.01888   0.02808   0.03207  -0.00068   0.11695
           A2           0.00925   0.01526   0.01960   0.02410   0.02001
           A3           0.00255  -0.01045   0.00580  -0.00428  -0.01274
           A4           0.00000   0.00000   0.00000   0.00000   0.00000
           D1           0.00000   0.00000   0.00000   0.00000   0.00000
                          A2        A3        A4        D1
           A2           0.08097
           A3          -0.01322   0.12401
           A4           0.00000   0.00000   0.14840
           D1           0.00000   0.00000  -0.02946   0.02691
     Eigenvalues ---    0.01871   0.02015   0.07005   0.10926   0.14143
     Eigenvalues ---    0.15517   0.53431   0.57029   0.66308
 Eigenvectors required to have negative eigenvalues:
                          R1        R2        A1        A2        R3
   1                    0.94006   0.23278  -0.19377  -0.10998  -0.10707
                          A3        R4        D1        A4
   1                   -0.03073   0.00703   0.00000   0.00000
 RFO step:  Lambda0=4.617500451D-02 Lambda=-3.96097124D-03.
 Linear search not attempted -- option 19 set.
 Maximum step size (   0.300) exceeded in Quadratic search.
    -- Step size scaled by   0.231
 Iteration  1 RMS(Cart)=  0.06027513 RMS(Int)=  0.02719477
 Iteration  2 RMS(Cart)=  0.03062708 RMS(Int)=  0.00002486
 Iteration  3 RMS(Cart)=  0.00002421 RMS(Int)=  0.00000000
 Iteration  4 RMS(Cart)=  0.00000000 RMS(Int)=  0.00000000
 ClnCor:  largest displacement from symmetrization is 4.29D-09 for atom     1.
 Variable       Old X    -DE/DX   Delta X   Delta X   Delta X     New X
                                 (Linear)    (Quad)   (Total)
    R1        2.90727   0.02904   0.00000  -0.28137  -0.28137   2.62590
    R2        2.21561   0.04581   0.00000  -0.05357  -0.05357   2.16204
    R3        1.81954   0.01949   0.00000   0.03907   0.03907   1.85861
    R4        1.81413   0.00114   0.00000  -0.00211  -0.00211   1.81203
    A1        1.87674  -0.00054   0.00000   0.06263   0.06263   1.93937
    A2        1.86992   0.00335   0.00000   0.04789   0.04789   1.91782
    A3        3.18097   0.00028   0.00000   0.01468   0.01468   3.19565
    A4        3.14159   0.00000   0.00000   0.00000   0.00000   3.14159
    D1        0.00000   0.00000   0.00000   0.00000   0.00000   0.00000
         Item               Value     Threshold  Converged?
 Maximum Force            0.045812     0.000450     NO 
 RMS     Force            0.019250     0.000300     NO 
 Maximum Displacement     0.158284     0.001800     NO 
 RMS     Displacement     0.079699     0.001200     NO 
 Predicted change in Energy= 1.067664D-02
 GradGradGradGradGradGradGradGradGradGradGradGradGradGradGradGradGradGrad

                          Input orientation:                          
 ---------------------------------------------------------------------
 Center     Atomic      Atomic             Coordinates (Angstroms)
 Number     Number       Type             X           Y           Z
 ---------------------------------------------------------------------
      1          8           0       -1.023669    0.100434    0.000000
      2          1           0       -1.519852    1.398394    0.000000
      3          8           0        0.120424    0.096501    0.000000
      4          8           0       -1.920173    2.296773    0.000000
      5          1           0       -1.229256    2.961671    0.000000
 ---------------------------------------------------------------------
                    Distance matrix (angstroms):
                    1          2          3          4          5
     1  O    0.000000
     2  H    1.389567   0.000000
     3  O    1.144100   2.094142   0.000000
     4  O    2.372261   0.983535   3.000872   0.000000
     5  H    2.868614   1.590057   3.167150   0.958883   0.000000
 Stoichiometry    H2O3
 Framework group  CS[SG(H2O3)]
 Deg. of freedom     7
 Full point group                 CS      NOp   2
 Largest Abelian subgroup         CS      NOp   2
 Largest concise Abelian subgroup C1      NOp   1
                         Standard orientation:                         
 ---------------------------------------------------------------------
 Center     Atomic      Atomic             Coordinates (Angstroms)
 Number     Number       Type             X           Y           Z
 ---------------------------------------------------------------------
      1          8           0       -0.667826   -0.502903    0.000000
      2          1           0        0.000000    0.715665    0.000000
      3          8           0        0.069996   -1.377308    0.000000
      4          8           0        0.425397    1.602444    0.000000
      5          1           0        1.379463    1.506463    0.000000
 ---------------------------------------------------------------------
 Rotational constants (GHZ):     63.3222853      6.1502950      5.6058193
 Standard basis: 6-31+G(d,p) (6D, 7F)
 There are    50 symmetry adapted basis functions of A'  symmetry.
 There are    17 symmetry adapted basis functions of A"  symmetry.
 Integral buffers will be    262144 words long.
 Raffenetti 2 integral format.
 Two-electron integral symmetry is turned on.
    67 basis functions,   110 primitive gaussians,    67 cartesian basis functions
    13 alpha electrons       13 beta electrons
       nuclear repulsion energy        72.0965648717 Hartrees.
 NAtoms=    5 NActive=    5 NUniq=    5 SFac= 7.50D-01 NAtFMM=   80 NAOKFM=F Big=F
 One-electron integrals computed using PRISM.
 NBasis=    67 RedAO= T  NBF=    50    17
 NBsUse=    67 1.00D-06 NBFU=    50    17
 Initial guess read from the read-write file.
 B after Tr=     0.000000    0.000000    0.000000
         Rot=    1.000000    0.000000    0.000000    0.000000 Ang=   0.00 deg.
 Initial guess orbital symmetries:
       Occupied  (A') (A') (A') (A') (A') (A') (A') (A') (A") (A')
                 (A') (A") (A')
       Virtual   (A") (A') (A') (A') (A") (A') (A') (A') (A") (A")
                 (A') (A') (A') (A') (A') (A') (A') (A') (A') (A")
                 (A') (A') (A") (A') (A') (A") (A') (A') (A') (A")
                 (A") (A') (A") (A') (A') (A") (A') (A') (A") (A')
                 (A') (A') (A") (A') (A") (A") (A') (A') (A') (A')
                 (A') (A') (A') (A')
 Harris functional with IExCor= 1009 diagonalized for initial guess.
 ExpMin= 8.45D-02 ExpMax= 5.48D+03 ExpMxC= 8.25D+02 IAcc=2 IRadAn=         0 AccDes= 0.00D+00
 HarFok:  IExCor= 1009 AccDes= 0.00D+00 IRadAn=         0 IDoV= 1
 ScaDFX=  1.000000  1.000000  1.000000  1.000000
 FoFCou: FMM=F IPFlag=           0 FMFlag=      100000 FMFlg1=           0
         NFxFlg=           0 DoJE=T BraDBF=F KetDBF=T FulRan=T
         Omega=  0.000000  0.000000  1.000000  0.000000  0.000000 ICntrl=     500 IOpCl=  0
         NMat0=    1 NMatS0=    1 NMatT0=    0 NMatD0=    1 NMtDS0=    0 NMtDT0=    0
         I1Cent=           4 NGrid=           0.
 Petite list used in FoFCou.
 Requested convergence on RMS density matrix=1.00D-08 within 128 cycles.
 Requested convergence on MAX density matrix=1.00D-06.
 Requested convergence on             energy=1.00D-06.
 No special actions if energy rises.
 Keep R1 ints in memory in canonical form, NReq=3551239.
 Integral accuracy reduced to 1.0D-05 until final iterations.
 Initial convergence to 1.0D-05 achieved.  Increase integral accuracy.
 SCF Done:  E(RM062X) =  -226.575373508     A.U. after   16 cycles
             Convg  =    0.6180D-08             -V/T =  2.0063
 Calling FoFJK, ICntrl=      2127 FMM=F ISym2X=1 I1Cent= 0 IOpClX= 0 NMat=1 NMatS=1 NMatT=0.
 ***** Axes restored to original set *****
 -------------------------------------------------------------------
 Center     Atomic                   Forces (Hartrees/Bohr)
 Number     Number              X              Y              Z
 -------------------------------------------------------------------
      1        8          -0.093580117   -0.046861885    0.000000000
      2        1          -0.009833208    0.032380811    0.000000000
      3        8           0.110344416    0.000225027    0.000000000
      4        8          -0.007903018    0.013233154    0.000000000
      5        1           0.000971927    0.001022892    0.000000000
 -------------------------------------------------------------------
 Cartesian Forces:  Max     0.110344416 RMS     0.040426055

 GradGradGradGradGradGradGradGradGradGradGradGradGradGradGradGradGradGrad
 Berny optimization.
 Internal  Forces:  Max     0.110358435 RMS     0.040674661
 Search for a saddle point.
 Step number   6 out of a maximum of  100
 All quantities printed in internal units (Hartrees-Bohrs-Radians)
 Swaping is turned off.
 Update second derivatives using D2CorX and points    3    4    5    6
 The second derivative matrix:
                          R1        R2        R3        R4        A1
           R1           0.08408
           R2           0.03208   1.09856
           R3           0.08143   0.03790   0.65236
           R4          -0.00017  -0.00109  -0.00621   0.56902
           A1           0.01995   0.02748   0.03322  -0.00009   0.09421
           A2           0.00783   0.00369   0.01877   0.02401   0.02027
           A3           0.00476  -0.00310   0.00733  -0.00402  -0.01912
           A4           0.00000   0.00000   0.00000   0.00000   0.00000
           D1           0.00000   0.00000   0.00000   0.00000   0.00000
                          A2        A3        A4        D1
           A2           0.08040
           A3          -0.01285   0.12217
           A4           0.00000   0.00000   0.14840
           D1           0.00000   0.00000  -0.02946   0.02691
     Eigenvalues ---    0.02015   0.06017   0.06820   0.09665   0.13876
     Eigenvalues ---    0.15517   0.56997   0.66277   1.10427
 Eigenvectors required to have negative eigenvalues:
                          D1        A4        A2        A1        A3
   1                    0.97462   0.22389   0.00000   0.00000   0.00000
                          R4        R3        R1        R2
   1                    0.00000   0.00000   0.00000   0.00000
 RFO step:  Lambda0=2.014553365D-02 Lambda=-3.13406184D-02.
 Linear search not attempted -- option 19 set.
 Maximum step size (   0.300) exceeded in Quadratic search.
    -- Step size scaled by   0.649
 Iteration  1 RMS(Cart)=  0.05946863 RMS(Int)=  0.02926010
 Iteration  2 RMS(Cart)=  0.03096178 RMS(Int)=  0.00002272
 Iteration  3 RMS(Cart)=  0.00002338 RMS(Int)=  0.00000000
 Iteration  4 RMS(Cart)=  0.00000000 RMS(Int)=  0.00000000
 ClnCor:  largest displacement from symmetrization is 1.07D-04 for atom     4.
 Variable       Old X    -DE/DX   Delta X   Delta X   Delta X     New X
                                 (Linear)    (Quad)   (Total)
    R1        2.62590   0.04954   0.00000   0.28732   0.28732   2.91322
    R2        2.16204   0.11036   0.00000   0.05729   0.05729   2.21933
    R3        1.85861   0.01585   0.00000  -0.01908  -0.01908   1.83953
    R4        1.81203   0.00139   0.00000   0.00176   0.00176   1.81379
    A1        1.93937  -0.00134   0.00000  -0.06019  -0.06019   1.87918
    A2        1.91782   0.00014   0.00000  -0.00863  -0.00863   1.90918
    A3        3.19565   0.00118   0.00000  -0.01003  -0.01003   3.18561
    A4        3.14159   0.00000   0.00000   0.00005   0.00000   3.14159
    D1        0.00000   0.00000   0.00000   0.00023   0.00000   0.00000
         Item               Value     Threshold  Converged?
 Maximum Force            0.110358     0.000450     NO 
 RMS     Force            0.040675     0.000300     NO 
 Maximum Displacement     0.179584     0.001800     NO 
 RMS     Displacement     0.086368     0.001200     NO 
 Predicted change in Energy=-1.514486D-02
 GradGradGradGradGradGradGradGradGradGradGradGradGradGradGradGradGradGrad

                          Input orientation:                          
 ---------------------------------------------------------------------
 Center     Atomic      Atomic             Coordinates (Angstroms)
 Number     Number       Type             X           Y           Z
 ---------------------------------------------------------------------
      1          8           0       -1.008416    0.005402    0.000000
      2          1           0       -1.554859    1.446916    0.000000
      3          8           0        0.164292    0.068741    0.000000
      4          8           0       -1.939628    2.341083    0.000000
      5          1           0       -1.233914    2.991630    0.000000
 ---------------------------------------------------------------------
                    Distance matrix (angstroms):
                    1          2          3          4          5
     1  O    0.000000
     2  H    1.541610   0.000000
     3  O    1.174417   2.203371   0.000000
     4  O    2.514470   0.973438   3.096775   0.000000
     5  H    2.994730   1.577704   3.240102   0.959815   0.000000
 Stoichiometry    H2O3
 Framework group  CS[SG(H2O3)]
 Deg. of freedom     7
 Full point group                 CS      NOp   2
 Largest Abelian subgroup         CS      NOp   2
 Largest concise Abelian subgroup C1      NOp   1
                         Standard orientation:                         
 ---------------------------------------------------------------------
 Center     Atomic      Atomic             Coordinates (Angstroms)
 Number     Number       Type             X           Y           Z
 ---------------------------------------------------------------------
      1          8           0       -0.704506   -0.575288    0.000000
      2          1           0        0.000000    0.795927    0.000000
      3          8           0        0.127927   -1.403727    0.000000
      4          8           0        0.406322    1.680508    0.000000
      5          1           0        1.362060    1.592132    0.000000
 ---------------------------------------------------------------------
 Rotational constants (GHZ):     55.9858230      5.6969281      5.1707682
 Standard basis: 6-31+G(d,p) (6D, 7F)
 There are    50 symmetry adapted basis functions of A'  symmetry.
 There are    17 symmetry adapted basis functions of A"  symmetry.
 Integral buffers will be    262144 words long.
 Raffenetti 2 integral format.
 Two-electron integral symmetry is turned on.
    67 basis functions,   110 primitive gaussians,    67 cartesian basis functions
    13 alpha electrons       13 beta electrons
       nuclear repulsion energy        69.7255128363 Hartrees.
 NAtoms=    5 NActive=    5 NUniq=    5 SFac= 7.50D-01 NAtFMM=   80 NAOKFM=F Big=F
 One-electron integrals computed using PRISM.
 NBasis=    67 RedAO= T  NBF=    50    17
 NBsUse=    67 1.00D-06 NBFU=    50    17
 Initial guess read from the read-write file.
 B after Tr=     0.000000    0.000000    0.000000
         Rot=    1.000000    0.000000    0.000000    0.000000 Ang=   0.00 deg.
 Initial guess orbital symmetries:
       Occupied  (A') (A') (A') (A') (A') (A') (A') (A') (A") (A')
                 (A') (A") (A')
       Virtual   (A") (A') (A') (A') (A") (A') (A') (A') (A") (A")
                 (A') (A') (A') (A') (A') (A') (A') (A') (A') (A")
                 (A') (A') (A") (A') (A') (A") (A') (A') (A") (A')
                 (A") (A') (A") (A') (A') (A") (A') (A") (A') (A')
                 (A') (A") (A') (A') (A") (A") (A') (A') (A') (A')
                 (A') (A') (A') (A')
 Harris functional with IExCor= 1009 diagonalized for initial guess.
 ExpMin= 8.45D-02 ExpMax= 5.48D+03 ExpMxC= 8.25D+02 IAcc=2 IRadAn=         0 AccDes= 0.00D+00
 HarFok:  IExCor= 1009 AccDes= 0.00D+00 IRadAn=         0 IDoV= 1
 ScaDFX=  1.000000  1.000000  1.000000  1.000000
 FoFCou: FMM=F IPFlag=           0 FMFlag=      100000 FMFlg1=           0
         NFxFlg=           0 DoJE=T BraDBF=F KetDBF=T FulRan=T
         Omega=  0.000000  0.000000  1.000000  0.000000  0.000000 ICntrl=     500 IOpCl=  0
         NMat0=    1 NMatS0=    1 NMatT0=    0 NMatD0=    1 NMtDS0=    0 NMtDT0=    0
         I1Cent=           4 NGrid=           0.
 Petite list used in FoFCou.
 Requested convergence on RMS density matrix=1.00D-08 within 128 cycles.
 Requested convergence on MAX density matrix=1.00D-06.
 Requested convergence on             energy=1.00D-06.
 No special actions if energy rises.
 Keep R1 ints in memory in canonical form, NReq=3551239.
 Integral accuracy reduced to 1.0D-05 until final iterations.
 Initial convergence to 1.0D-05 achieved.  Increase integral accuracy.
 SCF Done:  E(RM062X) =  -226.590185922     A.U. after   16 cycles
             Convg  =    0.2860D-08             -V/T =  2.0072
 Calling FoFJK, ICntrl=      2127 FMM=F ISym2X=1 I1Cent= 0 IOpClX= 0 NMat=1 NMatS=1 NMatT=0.
 ***** Axes restored to original set *****
 -------------------------------------------------------------------
 Center     Atomic                   Forces (Hartrees/Bohr)
 Number     Number              X              Y              Z
 -------------------------------------------------------------------
      1        8          -0.032057825   -0.028223856    0.000000000
      2        1          -0.004994546    0.019270509    0.000000000
      3        8           0.041365727    0.002478616    0.000000000
      4        8          -0.005444569    0.007153397    0.000000000
      5        1           0.001131212   -0.000678666    0.000000000
 -------------------------------------------------------------------
 Cartesian Forces:  Max     0.041365727 RMS     0.016371540

 GradGradGradGradGradGradGradGradGradGradGradGradGradGradGradGradGradGrad
 Berny optimization.
 Internal  Forces:  Max     0.041469426 RMS     0.016776093
 Search for a saddle point.
 Step number   7 out of a maximum of  100
 All quantities printed in internal units (Hartrees-Bohrs-Radians)
 Swaping is turned off.
 Update second derivatives using D2CorX and points    3    4    5    6    7
 The second derivative matrix:
                          R1        R2        R3        R4        A1
           R1           0.07832
           R2           0.02862   1.09454
           R3           0.06367   0.03078   0.59475
           R4           0.00085  -0.00091  -0.00388   0.56899
           A1           0.01061   0.02685   0.01153   0.00021   0.09098
           A2           0.01017  -0.01279  -0.01813   0.02795  -0.01548
           A3           0.00226  -0.00530  -0.00247  -0.00354  -0.02357
           A4           0.00000   0.00000   0.00000   0.00000   0.00000
           D1           0.00000   0.00000   0.00000   0.00000   0.00000
                          A2        A3        A4        D1
           A2           0.14963
           A3          -0.01679   0.12041
           A4           0.00000   0.00000   0.14840
           D1           0.00000   0.00000  -0.02946   0.02691
     Eigenvalues ---    0.02015   0.05841   0.08185   0.13066   0.15517
     Eigenvalues ---    0.15636   0.57017   0.60167   1.09848
 Eigenvectors required to have negative eigenvalues:
                          D1        A4        A1        R4        A3
   1                    0.97462   0.22389   0.00000   0.00000   0.00000
                          A2        R1        R3        R2
   1                    0.00000   0.00000   0.00000   0.00000
 RFO step:  Lambda0=2.014553365D-02 Lambda=-1.01950387D-02.
 Linear search not attempted -- option 19 set.
 Maximum step size (   0.300) exceeded in Quadratic search.
    -- Step size scaled by   0.886
 Iteration  1 RMS(Cart)=  0.05657638 RMS(Int)=  0.03045481
 Iteration  2 RMS(Cart)=  0.03258871 RMS(Int)=  0.00002503
 Iteration  3 RMS(Cart)=  0.00002860 RMS(Int)=  0.00000000
 Iteration  4 RMS(Cart)=  0.00000000 RMS(Int)=  0.00000000
 ClnCor:  largest displacement from symmetrization is 4.42D-06 for atom     4.
 Variable       Old X    -DE/DX   Delta X   Delta X   Delta X     New X
                                 (Linear)    (Quad)   (Total)
    R1        2.91322   0.02737   0.00000   0.29097   0.29097   3.20419
    R2        2.21933   0.04147   0.00000   0.02700   0.02700   2.24633
    R3        1.83953   0.00766   0.00000  -0.02102  -0.02102   1.81851
    R4        1.81379   0.00034   0.00000   0.00176   0.00176   1.81554
    A1        1.87918  -0.00060   0.00000  -0.04991  -0.04991   1.82927
    A2        1.90918  -0.00226   0.00000  -0.03797  -0.03797   1.87121
    A3        3.18561   0.00044   0.00000  -0.01521  -0.01521   3.17040
    A4        3.14159   0.00000   0.00000   0.00000   0.00000   3.14159
    D1        0.00000   0.00000   0.00000  -0.00001   0.00000   0.00000
         Item               Value     Threshold  Converged?
 Maximum Force            0.041469     0.000450     NO 
 RMS     Force            0.016776     0.000300     NO 
 Maximum Displacement     0.166754     0.001800     NO 
 RMS     Displacement     0.082530     0.001200     NO 
 Predicted change in Energy=-5.489802D-03
 GradGradGradGradGradGradGradGradGradGradGradGradGradGradGradGradGradGrad

                          Input orientation:                          
 ---------------------------------------------------------------------
 Center     Atomic      Atomic             Coordinates (Angstroms)
 Number     Number       Type             X           Y           Z
 ---------------------------------------------------------------------
      1          8           0       -0.983128   -0.082840    0.000000
      2          1           0       -1.593381    1.499118    0.000000
      3          8           0        0.198433    0.047295    0.000000
      4          8           0       -1.965440    2.386596    0.000000
      5          1           0       -1.229009    3.003604    0.000000
 ---------------------------------------------------------------------
                    Distance matrix (angstroms):
                    1          2          3          4          5
     1  O    0.000000
     2  H    1.695583   0.000000
     3  O    1.188705   2.306163   0.000000
     4  O    2.657641   0.962313   3.186641   0.000000
     5  H    3.096222   1.547981   3.282888   0.960744   0.000000
 Stoichiometry    H2O3
 Framework group  CS[SG(H2O3)]
 Deg. of freedom     7
 Full point group                 CS      NOp   2
 Largest Abelian subgroup         CS      NOp   2
 Largest concise Abelian subgroup C1      NOp   1
                         Standard orientation:                         
 ---------------------------------------------------------------------
 Center     Atomic      Atomic             Coordinates (Angstroms)
 Number     Number       Type             X           Y           Z
 ---------------------------------------------------------------------
      1          8           0        0.731871   -0.651489    0.000000
      2          1           0        0.000000    0.878010    0.000000
      3          8           0       -0.173633   -1.421608    0.000000
      4          8           0       -0.390193    1.757666    0.000000
      5          1           0       -1.344360    1.645435    0.000000
 ---------------------------------------------------------------------
 Rotational constants (GHZ):     51.4231906      5.3001456      4.8049078
 Standard basis: 6-31+G(d,p) (6D, 7F)
 There are    50 symmetry adapted basis functions of A'  symmetry.
 There are    17 symmetry adapted basis functions of A"  symmetry.
 Integral buffers will be    262144 words long.
 Raffenetti 2 integral format.
 Two-electron integral symmetry is turned on.
    67 basis functions,   110 primitive gaussians,    67 cartesian basis functions
    13 alpha electrons       13 beta electrons
       nuclear repulsion energy        67.9989676562 Hartrees.
 NAtoms=    5 NActive=    5 NUniq=    5 SFac= 7.50D-01 NAtFMM=   80 NAOKFM=F Big=F
 One-electron integrals computed using PRISM.
 NBasis=    67 RedAO= T  NBF=    50    17
 NBsUse=    67 1.00D-06 NBFU=    50    17
 Initial guess read from the read-write file.
 B after Tr=     0.000000    0.000000    0.000000
         Rot=    1.000000    0.000000    0.000000    0.000000 Ang=   0.00 deg.
 Initial guess orbital symmetries:
       Occupied  (A') (A') (A') (A') (A') (A') (A') (A') (A") (A')
                 (A') (A") (A')
       Virtual   (A") (A') (A') (A') (A") (A') (A') (A") (A') (A")
                 (A') (A') (A') (A') (A') (A') (A') (A') (A') (A")
                 (A') (A') (A") (A') (A") (A') (A') (A') (A') (A")
                 (A") (A') (A") (A') (A') (A") (A') (A') (A") (A')
                 (A') (A') (A") (A') (A") (A") (A') (A') (A') (A')
                 (A') (A') (A') (A')
[...]
 Calling FoFCou, ICntrl=  3107 FMM=F I1Cent=   0 AccDes= 0.00D+00.
 FoFDir/FoFCou used for L=0 through L=2.
 End of G2Drv Frequency-dependent properties file   721 does not exist.
 End of G2Drv Frequency-dependent properties file   722 does not exist.
          IDoAtm=11111
          Differentiating once with respect to electric field.
                with respect to dipole field.
          Differentiating once with respect to nuclear coordinates.
          Keep R1 ints in memory in canonical form, NReq=3416970.
          There are    18 degrees of freedom in the 1st order CPHF.  IDoFFX=5.
     15 vectors produced by pass  0 Test12= 3.90D-15 5.56D-09 XBig12= 9.65D+00 2.34D+00.
 AX will form    15 AO Fock derivatives at one time.
     15 vectors produced by pass  1 Test12= 3.90D-15 5.56D-09 XBig12= 6.55D+00 8.91D-01.
     15 vectors produced by pass  2 Test12= 3.90D-15 5.56D-09 XBig12= 2.22D-01 1.42D-01.
     15 vectors produced by pass  3 Test12= 3.90D-15 5.56D-09 XBig12= 2.46D-03 1.25D-02.
     15 vectors produced by pass  4 Test12= 3.90D-15 5.56D-09 XBig12= 3.83D-05 2.30D-03.
     15 vectors produced by pass  5 Test12= 3.90D-15 5.56D-09 XBig12= 3.74D-07 1.96D-04.
      9 vectors produced by pass  6 Test12= 3.90D-15 5.56D-09 XBig12= 1.24D-09 7.91D-06.
      3 vectors produced by pass  7 Test12= 3.90D-15 5.56D-09 XBig12= 3.27D-12 4.46D-07.
      1 vectors produced by pass  8 Test12= 3.90D-15 5.56D-09 XBig12= 5.06D-15 1.46D-08.
 Inverted reduced A of dimension   103 with in-core refinement.
 Isotropic polarizability for W=    0.000000       15.32 Bohr**3.
 End of Minotr Frequency-dependent properties file   721 does not exist.
 End of Minotr Frequency-dependent properties file   722 does not exist.

 **********************************************************************

            Population analysis using the SCF density.

 **********************************************************************

 Orbital symmetries:
       Occupied  (A') (A') (A') (A') (A') (A') (A') (A') (A") (A')
                 (A') (A") (A')
       Virtual   (A") (A') (A') (A') (A") (A') (A') (A') (A") (A")
                 (A') (A') (A') (A') (A') (A') (A') (A') (A') (A")
                 (A') (A') (A') (A") (A') (A") (A') (A') (A') (A")
                 (A') (A") (A") (A') (A') (A") (A') (A') (A") (A')
                 (A') (A') (A') (A") (A') (A") (A") (A') (A') (A')
                 (A') (A') (A') (A')
 The electronic state is 1-A'.
 Alpha  occ. eigenvalues --  -19.83543 -19.83471 -19.64491  -1.45697  -1.12998
 Alpha  occ. eigenvalues --   -0.93702  -0.65234  -0.64516  -0.62331  -0.60266
 Alpha  occ. eigenvalues --   -0.46365  -0.39216  -0.36351
 Alpha virt. eigenvalues --   -0.13868   0.06006   0.09348   0.11217   0.12645
 Alpha virt. eigenvalues --    0.16463   0.18373   0.18970   0.20740   0.21181
 Alpha virt. eigenvalues --    0.23077   0.27010   0.29238   0.31591   0.33276
 Alpha virt. eigenvalues --    0.36003   0.97511   1.03083   1.05684   1.10340
 Alpha virt. eigenvalues --    1.11447   1.15306   1.17245   1.17422   1.19603
 Alpha virt. eigenvalues --    1.20318   1.21698   1.34155   1.37802   1.53400
 Alpha virt. eigenvalues --    1.55397   1.56186   1.56940   1.60508   1.65292
 Alpha virt. eigenvalues --    1.69549   1.72713   1.96369   1.96524   2.29336
 Alpha virt. eigenvalues --    2.31508   2.53441   2.58741   2.60602   2.63672
 Alpha virt. eigenvalues --    2.68014   2.68703   2.94991   3.08199   3.43434
 Alpha virt. eigenvalues --    3.62582   3.72914   4.00300   4.07976
          Condensed to atoms (all electrons):
              1          2          3          4          5
     1  O    7.694063  -0.014094   0.293171   0.003905  -0.002296
     2  H   -0.014094   0.368410   0.017141   0.276403  -0.022319
     3  O    0.293171   0.017141   7.707761   0.003395   0.002116
     4  O    0.003905   0.276403   0.003395   8.176448   0.281079
     5  H   -0.002296  -0.022319   0.002116   0.281079   0.376314
 Mulliken atomic charges:
              1
     1  O    0.025251
     2  H    0.374459
     3  O   -0.023585
     4  O   -0.741230
     5  H    0.365106
 Sum of Mulliken atomic charges =   0.00000
 Mulliken charges with hydrogens summed into heavy atoms:
              1
     1  O    0.025251
     3  O   -0.023585
     4  O   -0.001666
 Sum of Mulliken charges with hydrogens summed into heavy atoms =   0.00000
 APT atomic charges:
              1
     1  O    0.016797
     2  H    0.308090
     3  O   -0.017364
     4  O   -0.602755
     5  H    0.295233
 Sum of APT charges=   0.00000
 APT Atomic charges with hydrogens summed into heavy atoms:
              1
     1  O    0.016797
     2  H    0.000000
     3  O   -0.017364
     4  O    0.000568
     5  H    0.000000
 Sum of APT charges=   0.00000
 Electronic spatial extent (au):  <R**2>=            286.1324
 Charge=              0.0000 electrons
 Dipole moment (field-independent basis, Debye):
    X=              1.9361    Y=             -1.1008    Z=              0.0000  Tot=              2.2272
 Quadrupole moment (field-independent basis, Debye-Ang):
   XX=            -17.0755   YY=            -19.2128   ZZ=            -17.0039
   XY=              4.8825   XZ=              0.0000   YZ=              0.0000
 Traceless Quadrupole moment (field-independent basis, Debye-Ang):
   XX=              0.6886   YY=             -1.4487   ZZ=              0.7602
   XY=              4.8825   XZ=              0.0000   YZ=              0.0000
 Octapole moment (field-independent basis, Debye-Ang**2):
  XXX=              1.6418  YYY=              0.0317  ZZZ=              0.0000  XYY=             11.6552
  XXY=              0.4594  XXZ=              0.0000  XZZ=              0.5861  YZZ=             -4.1708
  YYZ=              0.0000  XYZ=              0.0000
 Hexadecapole moment (field-independent basis, Debye-Ang**3):
 XXXX=            -37.2857 YYYY=           -258.2100 ZZZZ=            -13.7509 XXXY=              9.7431
 XXXZ=              0.0000 YYYX=             35.0520 YYYZ=              0.0000 ZZZX=              0.0000
 ZZZY=              0.0000 XXYY=            -49.0051 XXZZ=             -8.3560 YYZZ=            -48.7431
 XXYZ=              0.0000 YYXZ=              0.0000 ZZXY=              2.8783
 N-N= 6.398640777372D+01 E-N=-6.623409571728D+02  KE= 2.247824719548D+02
 Symmetry A'   KE= 2.159192464602D+02
 Symmetry A"   KE= 8.863225494594D+00
  Exact polarizability:  19.141   0.804  15.186   0.000   0.000  11.621
 Approx polarizability:  25.488   1.269  14.383   0.000   0.000  12.246
 Calling FoFJK, ICntrl=    100127 FMM=F ISym2X=1 I1Cent= 0 IOpClX= 0 NMat=1 NMatS=1 NMatT=0.
 Full mass-weighted force constant matrix:
 Low frequencies --- -157.1853  -27.2553   -0.0019   -0.0015   -0.0012   15.5947
 Low frequencies ---   38.7698   68.8502  103.8376
 ******    1 imaginary frequencies (negative Signs) ****** 
 Diagonal vibrational polarizability:
       39.7954818     268.6133868     434.6385120
 Harmonic frequencies (cm**-1), IR intensities (KM/Mole), Raman scattering
 activities (A**4/AMU), depolarization ratios for plane and unpolarized
 incident light, reduced masses (AMU), force constants (mDyne/A),
 and normal coordinates:
                     1                      2                      3
                    A'                     A'                     A'
 Frequencies --  -157.0963                65.6237               103.2526
 Red. masses --     1.5856                 3.5116                 4.1063
 Frc consts  --     0.0231                 0.0089                 0.0258
 IR Inten    --    62.8387                33.8041                10.9509
  Atom  AN      X      Y      Z        X      Y      Z        X      Y      Z
     1   8    -0.03  -0.12   0.00     0.01   0.32   0.00     0.02  -0.10   0.00
     2   1     0.75   0.10   0.00     0.66  -0.03   0.00     0.34   0.40   0.00
     3   8    -0.04   0.13   0.00     0.04  -0.16   0.00     0.03  -0.30   0.00
     4   8     0.04  -0.05   0.00    -0.07  -0.19   0.00    -0.05   0.32   0.00
     5   1    -0.28   0.56   0.00    -0.42   0.47   0.00    -0.24   0.68   0.00
                     4                      5                      6
                    A"                     A"                     A'
 Frequencies --   136.6958               173.7762              1593.2046
 Red. masses --     1.1164                 1.0622                 1.0855
 Frc consts  --     0.0123                 0.0189                 1.6234
 IR Inten    --   290.7839                17.7879                71.8279
  Atom  AN      X      Y      Z        X      Y      Z        X      Y      Z
     1   8     0.00   0.00   0.02     0.00   0.00   0.04     0.00   0.00   0.00
     2   1     0.00   0.00   0.86     0.00   0.00  -0.57     0.68   0.15   0.00
     3   8     0.00   0.00  -0.04     0.00   0.00  -0.03     0.00   0.00   0.00
     4   8     0.00   0.00  -0.07     0.00   0.00  -0.03    -0.07   0.03   0.00
     5   1     0.00   0.00   0.51     0.00   0.00   0.82     0.34  -0.63   0.00
                     7                      8                      9
                    A'                     A'                     A'
 Frequencies --  1765.4217              3893.0809              4013.7297
 Red. masses --    15.9641                 1.0443                 1.0828
 Frc consts  --    29.3150                 9.3256                10.2779
 IR Inten    --     0.0995                22.9856               118.8341
  Atom  AN      X      Y      Z        X      Y      Z        X      Y      Z
     1   8     0.70   0.04   0.00     0.00   0.00   0.00     0.00   0.00   0.00
     2   1    -0.03   0.00   0.00    -0.11   0.69   0.00     0.15  -0.70   0.00
     3   8    -0.71  -0.04   0.00     0.00   0.00   0.00     0.00   0.00   0.00
     4   8     0.00   0.00   0.00     0.05  -0.02   0.00     0.03   0.06   0.00
     5   1    -0.01   0.03   0.00    -0.61  -0.37   0.00    -0.61  -0.33   0.00

 -------------------
 - Thermochemistry -
 -------------------
 Temperature   298.150 Kelvin.  Pressure   1.00000 Atm.
 Atom     1 has atomic number  8 and mass  15.99491
 Atom     2 has atomic number  1 and mass   1.00783
 Atom     3 has atomic number  8 and mass  15.99491
 Atom     4 has atomic number  8 and mass  15.99491
 Atom     5 has atomic number  1 and mass   1.00783
 Molecular mass:    50.00039 amu.
 Principal axes and moments of inertia in atomic units:
                           1         2         3
     Eigenvalues --    43.56798 421.82772 465.39570
           X           -0.06347   0.99798   0.00000
           Y            0.99798   0.06347   0.00000
           Z            0.00000   0.00000   1.00000
 This molecule is an asymmetric top.
 Rotational symmetry number  1.
 Rotational temperatures (Kelvin)      1.98802     0.20533     0.18611
 Rotational constants (GHZ):          41.42357     4.27838     3.87786
    1 imaginary frequencies ignored.
 Zero-point vibrational energy      70249.4 (Joules/Mol)
                                   16.79001 (Kcal/Mol)
 Warning -- explicit consideration of   4 degrees of freedom as
           vibrations may cause significant error
 Vibrational temperatures:     94.42   148.56   196.67   250.02  2292.26
          (Kelvin)           2540.04  5601.27  5774.85
 
 Zero-point correction=                           0.026757 (Hartree/Particle)
 Thermal correction to Energy=                    0.032395
 Thermal correction to Enthalpy=                  0.033339
 Thermal correction to Gibbs Free Energy=        -0.001936
 Sum of electronic and zero-point Energies=           -226.574982
 Sum of electronic and thermal Energies=              -226.569343
 Sum of electronic and thermal Enthalpies=            -226.568399
 Sum of electronic and thermal Free Energies=         -226.603674
 
                     E (Thermal)             CV                S
                      KCal/Mol        Cal/Mol-Kelvin    Cal/Mol-Kelvin
 Total                   20.328             13.753             74.243
 Electronic               0.000              0.000              0.000
 Translational            0.889              2.981             37.652
 Rotational               0.889              2.981             23.663
 Vibrational             18.551              7.791             12.928
 Vibration     1          0.597              1.971              4.281
 Vibration     2          0.605              1.947              3.392
 Vibration     3          0.614              1.917              2.850
 Vibration     4          0.627              1.875              2.394
                       Q            Log10(Q)             Ln(Q)
 Total Bot       0.777189D+01          0.890527          2.050514
 Total V=0       0.157644D+14         13.197677         30.388775
 Vib (Bot)       0.168928D-10        -10.772297        -24.804131
 Vib (Bot)    1  0.314462D+01          0.497568          1.145693
 Vib (Bot)    2  0.198636D+01          0.298058          0.686303
 Vib (Bot)    3  0.148882D+01          0.172841          0.397981
 Vib (Bot)    4  0.115824D+01          0.063800          0.146905
 Vib (V=0)       0.342652D+02          1.534853          3.534130
 Vib (V=0)    1  0.368412D+01          0.566334          1.304032
 Vib (V=0)    2  0.254832D+01          0.406254          0.935435
 Vib (V=0)    3  0.207053D+01          0.316082          0.727806
 Vib (V=0)    4  0.176156D+01          0.245897          0.566199
 Electronic      0.100000D+01          0.000000          0.000000
 Translational   0.138968D+08          7.142915         16.447170
 Rotational      0.331062D+05          4.519909         10.407475
 ***** Axes restored to original set *****
 -------------------------------------------------------------------
 Center     Atomic                   Forces (Hartrees/Bohr)
 Number     Number              X              Y              Z
 -------------------------------------------------------------------
      1        8          -0.000071118   -0.000013430    0.000000000
      2        1           0.000011237   -0.000003500    0.000000000
      3        8          -0.000004094   -0.000012889    0.000000000
      4        8           0.000021265    0.000029567    0.000000000
      5        1           0.000042710    0.000000252    0.000000000
 -------------------------------------------------------------------
 Cartesian Forces:  Max     0.000071118 RMS     0.000024097

 GradGradGradGradGradGradGradGradGradGradGradGradGradGradGradGradGradGrad
 Berny optimization.
 Internal  Forces:  Max     0.000031003 RMS     0.000011420
 Search for a saddle point.
 Step number   1 out of a maximum of    2
 All quantities printed in internal units (Hartrees-Bohrs-Radians)
 Swaping is turned off.
 Second derivative matrix not updated -- analytic derivatives used.
 The second derivative matrix:
                          R1        R2        R3        R4        A1
           R1           0.00377
           R2           0.00070   0.94406
           R3           0.00037  -0.00040   0.55924
           R4          -0.00003  -0.00040  -0.00726   0.56122
           A1           0.00593   0.00726   0.00071  -0.00024  -0.00040
           A2           0.00008   0.00002   0.02742   0.02904  -0.00259
           A3          -0.00014   0.00336  -0.00057  -0.00021   0.00321
           A4           0.00000   0.00000   0.00000   0.00000   0.00000
           D1           0.00000   0.00000   0.00000   0.00000   0.00000
                          A2        A3        A4        D1
           A2           0.15349
           A3           0.00080   0.00067
           A4           0.00000   0.00000   0.00001
           D1           0.00000   0.00000  -0.00003   0.00149
     Eigenvalues ---   -0.00583   0.00001   0.00139   0.00149   0.00835
     Eigenvalues ---    0.14959   0.55681   0.56761   0.94413
 Eigenvectors required to have negative eigenvalues:
                          A1        R1        A3        A2        R2
   1                    0.77890  -0.48697  -0.39486   0.01530  -0.00420
                          R3        R4        A4        D1
   1                   -0.00181  -0.00065   0.00000   0.00000
 Angle between quadratic step and forces=  81.40 degrees.
 Linear search not attempted -- option 19 set.
 Iteration  1 RMS(Cart)=  0.00180600 RMS(Int)=  0.00000230
 Iteration  2 RMS(Cart)=  0.00000194 RMS(Int)=  0.00000000
 Iteration  3 RMS(Cart)=  0.00000000 RMS(Int)=  0.00000000
 ClnCor:  largest displacement from symmetrization is 2.62D-09 for atom     2.
 Variable       Old X    -DE/DX   Delta X   Delta X   Delta X     New X
                                 (Linear)    (Quad)   (Total)
    R1        4.46699  -0.00001   0.00000   0.00068   0.00068   4.46767
    R2        2.26274   0.00003   0.00000   0.00005   0.00005   2.26280
    R3        1.81864   0.00000   0.00000   0.00001   0.00001   1.81865
    R4        1.81723  -0.00001   0.00000  -0.00001  -0.00001   1.81722
    A1        1.28388   0.00000   0.00000  -0.00171  -0.00171   1.28217
    A2        1.84818  -0.00001   0.00000  -0.00007  -0.00007   1.84811
    A3        3.58413  -0.00001   0.00000  -0.00211  -0.00211   3.58202
    A4        3.14159   0.00000   0.00000   0.00000   0.00000   3.14159
    D1        0.00000   0.00000   0.00000   0.00000   0.00000   0.00000
         Item               Value     Threshold  Converged?
 Maximum Force            0.000031     0.000450     YES
 RMS     Force            0.000011     0.000300     YES
 Maximum Displacement     0.003362     0.001800     NO 
 RMS     Displacement     0.001806     0.001200     NO 
 Predicted change in Energy=-7.165264D-09
 GradGradGradGradGradGradGradGradGradGradGradGradGradGradGradGradGradGrad

 1|1|UNPC-DESKTOP-319GPER|Freq|RM062X|6-31+G(d,p)|H2O3|SAGAD|08-Feb-202
 1|0||#N Geom=AllCheck Guess=TCheck SCRF=Check GenChk RM062X/6-31+G(d,p
 ) Freq||ts2||0,1|O,-0.8871833309,-0.5879975988,0.|H,-1.4075419093,1.71
 78457751,0.|O,0.1584940629,-0.0046394367,0.|O,-2.0009993616,2.47546311
 61,0.|H,-1.4352947511,3.2531008043,0.||Version=IA32W-G09RevA.02|State=
 1-A'|HF=-226.6017381|RMSD=1.150e-009|RMSF=2.410e-005|ZeroPoint=0.02675
 66|Thermal=0.0323948|Dipole=0.8743082,-0.0581347,0.|DipoleDeriv=0.0172
 635,0.0305113,0.,0.0019447,0.016307,0.,0.,0.,0.0168192,0.2021639,0.012
 8559,0.,-0.002597,0.3492419,0.,0.,0.,0.3728636,-0.0048206,0.0026682,0.
 ,0.0134933,-0.0491044,0.,0.,0.,0.0018315,-0.4184994,0.0415628,0.,0.045
 8406,-0.6054361,0.,0.,0.,-0.7843287,0.2038926,-0.0875982,0.,-0.0586816
 ,0.2889915,0.,0.,0.,0.3928143|Polar=17.7606537,2.0491332,16.5666659,0.
 ,0.,11.6205129|PG=CS [SG(H2O3)]|NImag=1||0.72238353,0.39988064,0.22025
 270,0.,0.,0.00060000,-0.00056924,0.00288929,0.,0.22527693,-0.00106286,
 -0.00074693,0.,-0.24768743,0.38121890,0.,0.,-0.00025875,0.,0.,0.000841
 44,-0.72184600,-0.40146520,0.,0.00074085,0.00341722,0.,0.72190617,-0.3
 9989458,-0.21897301,0.,-0.00078807,-0.00176987,0.,0.39926017,0.2205530
 5,0.,0.,-0.00039230,0.,0.,-0.00035091,0.,0.,0.00073986,0.00046559,-0.0
 0146408,0.,-0.23703510,0.21532433,0.,-0.00122057,0.00150957,0.,0.45910
 891,0.00085292,-0.00016353,0.,0.27512144,-0.35159214,0.,-0.00084791,-0
 .00018679,0.,-0.00512905,0.72310870,0.,0.,-0.00021397,0.,0.,-0.0000221
 2,0.,0.,0.00022398,0.,0.,0.00083790,-0.00043387,0.00015935,0.,0.011586
 56,0.03000873,0.,0.00041955,-0.00008709,0.,-0.22131883,-0.26999740,0.,
 0.20974659,0.00022388,-0.00036924,0.,-0.02953524,-0.02710996,0.,-0.000
 36428,0.00037662,0.,-0.21024078,-0.37116625,0.,0.23991641,0.39826883,0
 .,0.,0.00026502,0.,0.,-0.00020967,0.,0.,-0.00022063,0.,0.,-0.00082579,
 0.,0.,0.00099107||0.00007112,0.00001343,0.,-0.00001124,0.00000350,0.,0
 .00000409,0.00001289,0.,-0.00002126,-0.00002957,0.,-0.00004271,-0.0000
 0025,0.|||@


 HOW IS IT THAT THE SKY FEEDS THE STARS?

                           -- LUCRETIUS
 Job cpu time:  0 days  0 hours  0 minutes  8.0 seconds.
 File lengths (MBytes):  RWF=      6 Int=      0 D2E=      0 Chk=      1 Scr=      1
 Normal termination of Gaussian 09 at Mon Feb 08 07:00:08 2021.
