 Entering Link 1 = C:\G09W\l1.exe PID=     13540.
  
 Copyright (c) 1988,1990,1992,1993,1995,1998,2003,2009, Gaussian, Inc.
                  All Rights Reserved.
  
 This is part of the Gaussian(R) 09 program.  It is based on
 the Gaussian(R) 03 system (copyright 2003, Gaussian, Inc.),
 the Gaussian(R) 98 system (copyright 1998, Gaussian, Inc.),
 the Gaussian(R) 94 system (copyright 1995, Gaussian, Inc.),
 the Gaussian 92(TM) system (copyright 1992, Gaussian, Inc.),
 the Gaussian 90(TM) system (copyright 1990, Gaussian, Inc.),
 the Gaussian 88(TM) system (copyright 1988, Gaussian, Inc.),
 the Gaussian 86(TM) system (copyright 1986, Carnegie Mellon
 University), and the Gaussian 82(TM) system (copyright 1983,
 Carnegie Mellon University). Gaussian is a federally registered
 trademark of Gaussian, Inc.
  
 This software contains proprietary and confidential information,
 including trade secrets, belonging to Gaussian, Inc.
  
 This software is provided under written license and may be
 used, copied, transmitted, or stored only in accord with that
 written license.
  
 The following legend is applicable only to US Government
 contracts under FAR:
  
                    RESTRICTED RIGHTS LEGEND
  
 Use, reproduction and disclosure by the US Government is
 subject to restrictions as set forth in subparagraphs (a)
 and (c) of the Commercial Computer Software - Restricted
 Rights clause in FAR 52.227-19.
  
 Gaussian, Inc.
 340 Quinnipiac St., Bldg. 40, Wallingford CT 06492
  
  
 ---------------------------------------------------------------
 Warning -- This program may not be used in any manner that
 competes with the business of Gaussian, Inc. or will provide
 assistance to any competitor of Gaussian, Inc.  The licensee
 of this program is prohibited from giving any competitor of
 Gaussian, Inc. access to this program.  By using this program,
 the user acknowledges that Gaussian, Inc. is engaged in the
 business of creating and licensing software in the field of
 computational chemistry and represents and warrants to the
 licensee that it is not a competitor of Gaussian, Inc. and that
 it will not use this program in any manner prohibited above.
 ---------------------------------------------------------------
  

 Cite this work as:
 Gaussian 09, Revision A.02,
 M. J. Frisch, G. W. Trucks, H. B. Schlegel, G. E. Scuseria, 
 M. A. Robb, J. R. Cheeseman, G. Scalmani, V. Barone, B. Mennucci, 
 G. A. Petersson, H. Nakatsuji, M. Caricato, X. Li, H. P. Hratchian, 
 A. F. Izmaylov, J. Bloino, G. Zheng, J. L. Sonnenberg, M. Hada, 
 M. Ehara, K. Toyota, R. Fukuda, J. Hasegawa, M. Ishida, T. Nakajima, 
 Y. Honda, O. Kitao, H. Nakai, T. Vreven, J. A. Montgomery, Jr., 
 J. E. Peralta, F. Ogliaro, M. Bearpark, J. J. Heyd, E. Brothers, 
 K. N. Kudin, V. N. Staroverov, R. Kobayashi, J. Normand, 
 K. Raghavachari, A. Rendell, J. C. Burant, S. S. Iyengar, J. Tomasi, 
 M. Cossi, N. Rega, J. M. Millam, M. Klene, J. E. Knox, J. B. Cross, 
 V. Bakken, C. Adamo, J. Jaramillo, R. Gomperts, R. E. Stratmann, 
 O. Yazyev, A. J. Austin, R. Cammi, C. Pomelli, J. W. Ochterski, 
 R. L. Martin, K. Morokuma, V. G. Zakrzewski, G. A. Voth, 
 P. Salvador, J. J. Dannenberg, S. Dapprich, A. D. Daniels, 
 O. Farkas, J. B. Foresman, J. V. Ortiz, J. Cioslowski, 
 and D. J. Fox, Gaussian, Inc., Wallingford CT, 2009.
 
 ******************************************
 Gaussian 09:  IA32W-G09RevA.02 11-Jun-2009
                08-Feb-2021 
 ******************************************
 %chk=D:\Documents\rayGit\FQ\quimicaComputacional\proyecto\decompositionHydrogenP
 eroxide\descompositionByRadicals\gasPhase\step4\ts\tsM062X.chk
 %mem=1500MB
 %nprocshared=4
 Will use up to    4 processors via shared memory.
 ----------------------------------------------------------------------
 # opt=(readfc,ts,noeigen) geom=check guess=check freq=noraman 6-31+g(d
 ,p) m062x
 ----------------------------------------------------------------------
 1/5=1,10=3,11=1,14=-1,18=20,26=3,29=2,38=1/1,3;
 2/9=110,12=2,40=1/2;
 3/5=1,6=6,7=111,11=2,14=-4,16=1,25=1,30=1,71=1,74=-55,116=-2/1,2,3;
 4/5=1/1;
 5/5=2,38=6/2;
 6/7=2,8=2,9=2,10=2,28=1/1;
 7//1,2,3,16;
 1/5=1,11=1,14=-1,18=20/3(2);
 2/9=110/2;
 99//99;
 2/9=110/2;
 3/5=1,6=6,7=111,11=2,14=-2,16=1,25=1,30=1,71=1,74=-55/1,2,3;
 4/5=5,16=3/1;
 5/5=2,38=5/2;
 7//1,2,3,16;
 1/5=1,11=1,14=-1,18=20/3(-5);
 2/9=110/2;
 6/7=2,8=2,9=2,10=2,19=2,28=1/1;
 99/9=1/99;
 ---
 ts2
 ---
 Redundant internal coordinates taken from checkpoint file:
 D:\Documents\rayGit\FQ\quimicaComputacional\proyecto\decompositionHydrogenPeroxide\descompositionByRadicals\gasPhase\step4\ts\tsM062X.chk
 Charge =  0 Multiplicity = 1
 O,0,-0.6013004777,-0.4371092181,-0.1852283424
 H,0,-1.1172121193,0.4022488218,-2.169111664
 O,0,0.2813767568,-1.019563158,0.3811832208
 O,0,-1.8064850065,0.072773136,-2.7473679966
 H,0,-2.1595315134,-0.7083011716,-2.3099377978
 Recover connectivity data from disk.

 GradGradGradGradGradGradGradGradGradGradGradGradGradGradGradGradGradGrad
 Berny optimization.
 Initialization pass.
 Force constant matrix read from checkpoint file:
 D:\Documents\rayGit\FQ\quimicaComputacional\proyecto\decompositionHydrogenPeroxi
 de\descompositionByRadicals\gasPhase\step4\ts\tsM062X.chk
                           ----------------------------
                           !    Initial Parameters    !
                           ! (Angstroms and Degrees)  !
 --------------------------                            --------------------------
 ! Name  Definition              Value          Derivative Info.                !
 --------------------------------------------------------------------------------
 ! R1    R(1,2)                  2.2151         D2E/DX2 =    0.0128             !
 ! R2    R(1,3)                  1.1997         D2E/DX2 =    0.6442             !
 ! R3    R(2,4)                  0.9581         D2E/DX2 =    0.3057             !
 ! R4    R(4,5)                  0.9623         D2E/DX2 =    0.5665             !
 ! A1    A(2,1,3)              141.0973         D2E/DX2 =    0.0439             !
 ! A2    A(2,4,5)              105.5864         D2E/DX2 =    0.1238             !
 ! A3    L(1,2,4,5,-1)         125.356          D2E/DX2 =    0.0262             !
 ! A4    L(1,2,4,5,-2)         176.924          D2E/DX2 =    0.0033             !
 ! D1    D(3,1,4,5)             88.1765         D2E/DX2 =    0.0096             !
 --------------------------------------------------------------------------------
 Trust Radius=3.00D-01 FncErr=1.00D-07 GrdErr=1.00D-06
 Number of steps in this run=  20 maximum allowed number of steps= 100.
 Search for a saddle point of order  1.
 GradGradGradGradGradGradGradGradGradGradGradGradGradGradGradGradGradGrad

                          Input orientation:                          
 ---------------------------------------------------------------------
 Center     Atomic      Atomic             Coordinates (Angstroms)
 Number     Number       Type             X           Y           Z
 ---------------------------------------------------------------------
      1          8           0       -0.601300   -0.437109   -0.185228
      2          1           0       -1.117212    0.402249   -2.169112
      3          8           0        0.281377   -1.019563    0.381183
      4          8           0       -1.806485    0.072773   -2.747368
      5          1           0       -2.159532   -0.708301   -2.309938
 ---------------------------------------------------------------------
                    Distance matrix (angstroms):
                    1          2          3          4          5
     1  O    0.000000
     2  H    2.215058   0.000000
     3  O    1.199664   3.237531   0.000000
     4  O    2.876979   0.958140   3.916656   0.000000
     5  H    2.648777   1.529570   3.646512   0.962322   0.000000
 Stoichiometry    H2O3
 Framework group  C1[X(H2O3)]
 Deg. of freedom     9
 Full point group                 C1      NOp   1
 Largest Abelian subgroup         C1      NOp   1
 Largest concise Abelian subgroup C1      NOp   1
                         Standard orientation:                         
 ---------------------------------------------------------------------
 Center     Atomic      Atomic             Coordinates (Angstroms)
 Number     Number       Type             X           Y           Z
 ---------------------------------------------------------------------
      1          8           0        0.725025    0.310384    0.078562
      2          1           0       -1.376480    0.161179   -0.605464
      3          8           0        1.789804   -0.226548   -0.052370
      4          8           0       -2.123718   -0.069896   -0.052045
      5          1           0       -1.752411   -0.272694    0.812286
 ---------------------------------------------------------------------
 Rotational constants (GHZ):    134.5085888      3.6689329      3.6302343
 Standard basis: 6-31+G(d,p) (6D, 7F)
 There are    67 symmetry adapted basis functions of A   symmetry.
 Integral buffers will be    262144 words long.
 Raffenetti 2 integral format.
 Two-electron integral symmetry is turned on.
    67 basis functions,   110 primitive gaussians,    67 cartesian basis functions
    13 alpha electrons       13 beta electrons
       nuclear repulsion energy        63.7910485232 Hartrees.
 NAtoms=    5 NActive=    5 NUniq=    5 SFac= 7.50D-01 NAtFMM=   80 NAOKFM=F Big=F
 One-electron integrals computed using PRISM.
 NBasis=    67 RedAO= T  NBF=    67
 NBsUse=    67 1.00D-06 NBFU=    67
 Initial guess read from the checkpoint file:  D:\Documents\rayGit\FQ\quimicaComp
 utacional\proyecto\decompositionHydrogenPeroxide\descompositionByRadicals\gasPha
 se\step4\ts\tsM062X.chk
 B after Tr=     0.000000    0.000000    0.000000
         Rot=    1.000000    0.000000    0.000000    0.000000 Ang=   0.00 deg.
 Initial guess orbital symmetries:
       Occupied  (A) (A) (A) (A) (A) (A) (A) (A) (A) (A) (A) (A)
                 (A)
       Virtual   (A) (A) (A) (A) (A) (A) (A) (A) (A) (A) (A) (A)
                 (A) (A) (A) (A) (A) (A) (A) (A) (A) (A) (A) (A)
                 (A) (A) (A) (A) (A) (A) (A) (A) (A) (A) (A) (A)
                 (A) (A) (A) (A) (A) (A) (A) (A) (A) (A) (A) (A)
                 (A) (A) (A) (A) (A) (A)
 Requested convergence on RMS density matrix=1.00D-08 within 128 cycles.
 Requested convergence on MAX density matrix=1.00D-06.
 Requested convergence on             energy=1.00D-06.
 No special actions if energy rises.
 Keep R1 ints in memory in canonical form, NReq=3551229.
 SCF Done:  E(RM062X) =  -226.601059546     A.U. after    4 cycles
             Convg  =    0.9864D-08             -V/T =  2.0081

 **********************************************************************

            Population analysis using the SCF density.

 **********************************************************************

 Orbital symmetries:
       Occupied  (A) (A) (A) (A) (A) (A) (A) (A) (A) (A) (A) (A)
                 (A)
       Virtual   (A) (A) (A) (A) (A) (A) (A) (A) (A) (A) (A) (A)
                 (A) (A) (A) (A) (A) (A) (A) (A) (A) (A) (A) (A)
                 (A) (A) (A) (A) (A) (A) (A) (A) (A) (A) (A) (A)
                 (A) (A) (A) (A) (A) (A) (A) (A) (A) (A) (A) (A)
                 (A) (A) (A) (A) (A) (A)
 The electronic state is 1-A.
 Alpha  occ. eigenvalues --  -19.83667 -19.83596 -19.64851  -1.45469  -1.13449
 Alpha  occ. eigenvalues --   -0.94037  -0.65086  -0.64528  -0.62389  -0.60904
 Alpha  occ. eigenvalues --   -0.46659  -0.39559  -0.36459
 Alpha virt. eigenvalues --   -0.14195   0.06910   0.09505   0.11520   0.12420
 Alpha virt. eigenvalues --    0.15827   0.17088   0.18312   0.21332   0.22992
 Alpha virt. eigenvalues --    0.24169   0.27771   0.29438   0.32633   0.35358
 Alpha virt. eigenvalues --    0.37223   1.00192   1.00785   1.07387   1.10378
 Alpha virt. eigenvalues --    1.11083   1.13086   1.16219   1.16921   1.18333
 Alpha virt. eigenvalues --    1.19541   1.20595   1.27641   1.36076   1.53932
 Alpha virt. eigenvalues --    1.55735   1.56119   1.56560   1.57503   1.61815
 Alpha virt. eigenvalues --    1.69773   1.72948   1.96189   1.96967   2.29579
 Alpha virt. eigenvalues --    2.31836   2.53737   2.57524   2.60274   2.63191
 Alpha virt. eigenvalues --    2.67670   2.69137   2.95821   3.10824   3.40084
 Alpha virt. eigenvalues --    3.59184   3.67599   3.96711   4.08287
          Condensed to atoms (all electrons):
              1          2          3          4          5
     1  O    7.949847   0.012946   0.099341   0.022133   0.008670
     2  H    0.012946   0.358511   0.000523   0.271602  -0.022034
     3  O    0.099341   0.000523   7.851911  -0.010278   0.000600
     4  O    0.022133   0.271602  -0.010278   8.148479   0.271353
     5  H    0.008670  -0.022034   0.000600   0.271353   0.381542
 Mulliken atomic charges:
              1
     1  O   -0.092936
     2  H    0.378452
     3  O    0.057904
     4  O   -0.703289
     5  H    0.359869
 Sum of Mulliken atomic charges =   0.00000
 Mulliken charges with hydrogens summed into heavy atoms:
              1
     1  O   -0.092936
     3  O    0.057904
     4  O    0.035032
 Sum of Mulliken charges with hydrogens summed into heavy atoms =   0.00000
 Electronic spatial extent (au):  <R**2>=            304.5335
 Charge=              0.0000 electrons
 Dipole moment (field-independent basis, Debye):
    X=              2.2291    Y=              0.0312    Z=              0.5542  Tot=              2.2972
 Quadrupole moment (field-independent basis, Debye-Ang):
   XX=            -24.6668   YY=            -17.0140   ZZ=            -15.7579
   XY=              0.4927   XZ=             -1.7631   YZ=             -1.0949
 Traceless Quadrupole moment (field-independent basis, Debye-Ang):
   XX=             -5.5206   YY=              2.1322   ZZ=              3.3884
   XY=              0.4927   XZ=             -1.7631   YZ=             -1.0949
 Octapole moment (field-independent basis, Debye-Ang**2):
  XXX=             26.3718  YYY=              0.2793  ZZZ=              0.8533  XYY=              3.6328
  XXY=              1.1908  XXZ=              3.6720  XZZ=             -3.2394  YZZ=             -0.2306
  YYZ=              0.2527  XYZ=              1.4887
 Hexadecapole moment (field-independent basis, Debye-Ang**3):
 XXXX=           -360.9608 YYYY=            -18.4166 ZZZZ=            -15.2272 XXXY=              3.1047
 XXXZ=            -10.7161 YYYX=             -0.5055 YYYZ=             -0.6813 ZZZX=             -1.9964
 ZZZY=             -1.2052 XXYY=            -55.2191 XXZZ=            -49.2148 YYZZ=             -5.9445
 XXYZ=             -3.4683 YYXZ=             -0.6664 ZZXY=              0.7131
 N-N= 6.379104852316D+01 E-N=-6.618867832468D+02  KE= 2.247702074689D+02
 Calling FoFJK, ICntrl=      2127 FMM=F ISym2X=0 I1Cent= 0 IOpClX= 0 NMat=1 NMatS=1 NMatT=0.
 ***** Axes restored to original set *****
 -------------------------------------------------------------------
 Center     Atomic                   Forces (Hartrees/Bohr)
 Number     Number              X              Y              Z
 -------------------------------------------------------------------
      1        8           0.004834552   -0.004210510    0.004063159
      2        1           0.003150302    0.002839544    0.001783205
      3        8          -0.004312284    0.003379559   -0.002780783
      4        8          -0.003014840   -0.002396642   -0.002961581
      5        1          -0.000657730    0.000388049   -0.000104001
 -------------------------------------------------------------------
 Cartesian Forces:  Max     0.004834552 RMS     0.003062960

 GradGradGradGradGradGradGradGradGradGradGradGradGradGradGradGradGradGrad
 Berny optimization.
 Internal  Forces:  Max     0.006132505 RMS     0.002780153
 Search for a saddle point.
 Step number   1 out of a maximum of   20
 All quantities printed in internal units (Hartrees-Bohrs-Radians)
 Swaping is turned off.
 Second derivative matrix not updated -- first step.
 The second derivative matrix:
                          R1        R2        R3        R4        A1
           R1           0.01282
           R2           0.01504   0.64424
           R3          -0.01513   0.02596   0.30572
           R4          -0.00044  -0.00251  -0.00684   0.56647
           A1          -0.01170   0.01224   0.00701   0.00011   0.04394
           A2           0.00220   0.00101   0.02317   0.01777  -0.00489
           A3           0.00691   0.00651   0.00929  -0.00092   0.00376
           A4           0.00108  -0.00693   0.00694  -0.00051   0.00487
           D1           0.00047  -0.02017  -0.00441  -0.00053   0.00200
                          A2        A3        A4        D1
           A2           0.12379
           A3          -0.00118   0.02620
           A4          -0.00171   0.00816   0.00333
           D1           0.00371  -0.00639  -0.00597   0.00960
     Eigenvalues ---   -0.00235   0.00359   0.01052   0.03311   0.04728
     Eigenvalues ---    0.12106   0.30800   0.56720   0.64770
 Eigenvectors required to have negative eigenvalues:
                          A4        D1        R1        A1        A3
   1                    0.83006   0.47342  -0.23255  -0.16825  -0.05406
                          R2        R3        A2        R4
   1                    0.03364  -0.02054  -0.00228   0.00093
 RFO step:  Lambda0=2.782882422D-06 Lambda=-7.93369760D-04.
 Linear search not attempted -- option 19 set.
 Maximum step size (   0.300) exceeded in Quadratic search.
    -- Step size scaled by   0.877
 Iteration  1 RMS(Cart)=  0.08459984 RMS(Int)=  0.01636189
 Iteration  2 RMS(Cart)=  0.01473385 RMS(Int)=  0.00002968
 Iteration  3 RMS(Cart)=  0.00004174 RMS(Int)=  0.00000000
 Iteration  4 RMS(Cart)=  0.00000000 RMS(Int)=  0.00000000
 Variable       Old X    -DE/DX   Delta X   Delta X   Delta X     New X
                                 (Linear)    (Quad)   (Total)
    R1        4.18585   0.00154   0.00000   0.24933   0.24933   4.43518
    R2        2.26704  -0.00613   0.00000  -0.01393  -0.01393   2.25311
    R3        1.81062   0.00529   0.00000   0.02804   0.02804   1.83866
    R4        1.81853  -0.00012   0.00000   0.00025   0.00025   1.81878
    A1        2.46261   0.00051   0.00000   0.07079   0.07079   2.53340
    A2        1.84283   0.00079   0.00000  -0.00122  -0.00122   1.84161
    A3        2.18788   0.00019   0.00000  -0.10200  -0.10200   2.08587
    A4        3.08791   0.00045   0.00000   0.10562   0.10562   3.19352
    D1        1.53897   0.00068   0.00000   0.01675   0.01675   1.55572
         Item               Value     Threshold  Converged?
 Maximum Force            0.006133     0.000450     NO 
 RMS     Force            0.002780     0.000300     NO 
 Maximum Displacement     0.144481     0.001800     NO 
 RMS     Displacement     0.094112     0.001200     NO 
 Predicted change in Energy=-4.246231D-04
 GradGradGradGradGradGradGradGradGradGradGradGradGradGradGradGradGradGrad

                          Input orientation:                          
 ---------------------------------------------------------------------
 Center     Atomic      Atomic             Coordinates (Angstroms)
 Number     Number       Type             X           Y           Z
 ---------------------------------------------------------------------
      1          8           0       -0.569621   -0.476665   -0.171922
      2          1           0       -1.150071    0.478705   -2.235595
      3          8           0        0.284162   -1.041518    0.439274
      4          8           0       -1.825081    0.048789   -2.788964
      5          1           0       -2.142541   -0.699263   -2.273256
 ---------------------------------------------------------------------
                    Distance matrix (angstroms):
                    1          2          3          4          5
     1  O    0.000000
     2  H    2.346999   0.000000
     3  O    1.192294   3.394559   0.000000
     4  O    2.949778   0.972976   4.007393   0.000000
     5  H    2.634242   1.540786   3.655659   0.962455   0.000000
 Stoichiometry    H2O3
 Framework group  C1[X(H2O3)]
 Deg. of freedom     9
 Full point group                 C1      NOp   1
 Largest Abelian subgroup         C1      NOp   1
 Largest concise Abelian subgroup C1      NOp   1
                         Standard orientation:                         
 ---------------------------------------------------------------------
 Center     Atomic      Atomic             Coordinates (Angstroms)
 Number     Number       Type             X           Y           Z
 ---------------------------------------------------------------------
      1          8           0       -0.749422   -0.166669    0.240346
      2          1           0        1.483120   -0.602544   -0.337730
      3          8           0       -1.828548    0.124929   -0.174412
      4          8           0        2.176546    0.028846   -0.078522
      5          1           0        1.728273    0.705693    0.438439
 ---------------------------------------------------------------------
 Rotational constants (GHZ):    149.0247240      3.4990121      3.4738224
 Standard basis: 6-31+G(d,p) (6D, 7F)
 There are    67 symmetry adapted basis functions of A   symmetry.
 Integral buffers will be    262144 words long.
 Raffenetti 2 integral format.
 Two-electron integral symmetry is turned on.
    67 basis functions,   110 primitive gaussians,    67 cartesian basis functions
    13 alpha electrons       13 beta electrons
       nuclear repulsion energy        63.2467199211 Hartrees.
 NAtoms=    5 NActive=    5 NUniq=    5 SFac= 7.50D-01 NAtFMM=   80 NAOKFM=F Big=F
 One-electron integrals computed using PRISM.
 NBasis=    67 RedAO= T  NBF=    67
 NBsUse=    67 1.00D-06 NBFU=    67
 Initial guess read from the read-write file.
 B after Tr=     0.000000    0.000000    0.000000
         Rot=    1.000000    0.000000    0.000000    0.000000 Ang=   0.00 deg.
 Initial guess orbital symmetries:
       Occupied  (A) (A) (A) (A) (A) (A) (A) (A) (A) (A) (A) (A)
                 (A)
       Virtual   (A) (A) (A) (A) (A) (A) (A) (A) (A) (A) (A) (A)
                 (A) (A) (A) (A) (A) (A) (A) (A) (A) (A) (A) (A)
                 (A) (A) (A) (A) (A) (A) (A) (A) (A) (A) (A) (A)
                 (A) (A) (A) (A) (A) (A) (A) (A) (A) (A) (A) (A)
                 (A) (A) (A) (A) (A) (A)
 Harris functional with IExCor= 1009 diagonalized for initial guess.
 ExpMin= 8.45D-02 ExpMax= 5.48D+03 ExpMxC= 8.25D+02 IAcc=2 IRadAn=         0 AccDes= 0.00D+00
 HarFok:  IExCor= 1009 AccDes= 0.00D+00 IRadAn=         0 IDoV= 1
 ScaDFX=  1.000000  1.000000  1.000000  1.000000
 FoFCou: FMM=F IPFlag=           0 FMFlag=      100000 FMFlg1=           0
         NFxFlg=           0 DoJE=T BraDBF=F KetDBF=T FulRan=T
         Omega=  0.000000  0.000000  1.000000  0.000000  0.000000 ICntrl=     500 IOpCl=  0
         NMat0=    1 NMatS0=    1 NMatT0=    0 NMatD0=    1 NMtDS0=    0 NMtDT0=    0
         I1Cent=           4 NGrid=           0.
 Petite list used in FoFCou.
 Requested convergence on RMS density matrix=1.00D-08 within 128 cycles.
 Requested convergence on MAX density matrix=1.00D-06.
 Requested convergence on             energy=1.00D-06.
 No special actions if energy rises.
 Keep R1 ints in memory in canonical form, NReq=3551229.
 Integral accuracy reduced to 1.0D-05 until final iterations.
 Initial convergence to 1.0D-05 achieved.  Increase integral accuracy.
 SCF Done:  E(RM062X) =  -226.601298778     A.U. after   53 cycles
             Convg  =    0.6178D-08             -V/T =  2.0082
 Calling FoFJK, ICntrl=      2127 FMM=F ISym2X=0 I1Cent= 0 IOpClX= 0 NMat=1 NMatS=1 NMatT=0.
 ***** Axes restored to original set *****
 -------------------------------------------------------------------
 Center     Atomic                   Forces (Hartrees/Bohr)
 Number     Number              X              Y              Z
 -------------------------------------------------------------------
      1        8          -0.005137759    0.002603346   -0.003683580
      2        1          -0.007700002   -0.004030708   -0.006307731
      3        8           0.005304810   -0.003134484    0.003895273
      4        8           0.008016823    0.004244383    0.005749544
      5        1          -0.000483872    0.000317462    0.000346495
 -------------------------------------------------------------------
 Cartesian Forces:  Max     0.008016823 RMS     0.004697535

 GradGradGradGradGradGradGradGradGradGradGradGradGradGradGradGradGradGrad
 Berny optimization.
 Internal  Forces:  Max     0.010581093 RMS     0.004299381
 Search for a saddle point.
 Step number   2 out of a maximum of   20
 All quantities printed in internal units (Hartrees-Bohrs-Radians)
 Swaping is turned off.
 Update second derivatives using D2CorX and points    1    2
 The second derivative matrix:
                          R1        R2        R3        R4        A1
           R1           0.01061
           R2          -0.00702   0.64781
           R3           0.01565   0.02021   0.31482
           R4          -0.00079  -0.00249  -0.00687   0.56647
           A1          -0.01373   0.00613   0.01550   0.00001   0.04297
           A2           0.00252   0.00109   0.02307   0.01777  -0.00479
           A3           0.00893   0.01542  -0.00310  -0.00078   0.00490
           A4          -0.00118  -0.01613   0.01974  -0.00066   0.00364
           D1          -0.00096  -0.02152  -0.00257  -0.00056   0.00150
                          A2        A3        A4        D1
           A2           0.12379
           A3          -0.00132   0.02492
           A4          -0.00157   0.00956   0.00181
           D1           0.00374  -0.00573  -0.00666   0.00942
     Eigenvalues ---   -0.00731   0.00092   0.01009   0.03316   0.04753
     Eigenvalues ---    0.12117   0.31914   0.56723   0.65070
 Eigenvectors required to have negative eigenvalues:
                          A4        R1        A3        D1        A1
   1                    0.80351   0.39254  -0.34282   0.25707   0.09421
                          R3        R2        A2        R4
   1                   -0.07728   0.04200   0.00793   0.00026
 RFO step:  Lambda0=5.670587650D-04 Lambda=-5.79690086D-04.
 Linear search not attempted -- option 19 set.
 Maximum step size (   0.300) exceeded in Quadratic search.
    -- Step size scaled by   0.779
 Iteration  1 RMS(Cart)=  0.08118794 RMS(Int)=  0.02057626
 Iteration  2 RMS(Cart)=  0.01967807 RMS(Int)=  0.00086015
 Iteration  3 RMS(Cart)=  0.00068899 RMS(Int)=  0.00000078
 Iteration  4 RMS(Cart)=  0.00000057 RMS(Int)=  0.00000000
 Variable       Old X    -DE/DX   Delta X   Delta X   Delta X     New X
                                 (Linear)    (Quad)   (Total)
    R1        4.43518   0.00039   0.00000   0.06590   0.06590   4.50109
    R2        2.25311   0.00728   0.00000  -0.00171  -0.00171   2.25140
    R3        1.83866  -0.01058   0.00000  -0.01792  -0.01792   1.82073
    R4        1.81878   0.00011   0.00000  -0.00055  -0.00055   1.81822
    A1        2.53340   0.00063   0.00000   0.06242   0.06242   2.59582
    A2        1.84161  -0.00002   0.00000   0.00542   0.00542   1.84702
    A3        2.08587  -0.00046   0.00000   0.01732   0.01732   2.10319
    A4        3.19352   0.00060   0.00000  -0.25118  -0.25118   2.94234
    D1        1.55572   0.00055   0.00000  -0.13421  -0.13421   1.42151
         Item               Value     Threshold  Converged?
 Maximum Force            0.010581     0.000450     NO 
 RMS     Force            0.004299     0.000300     NO 
 Maximum Displacement     0.132458     0.001800     NO 
 RMS     Displacement     0.094694     0.001200     NO 
 Predicted change in Energy=-7.008561D-06
 GradGradGradGradGradGradGradGradGradGradGradGradGradGradGradGradGradGrad

                          Input orientation:                          
 ---------------------------------------------------------------------
 Center     Atomic      Atomic             Coordinates (Angstroms)
 Number     Number       Type             X           Y           Z
 ---------------------------------------------------------------------
      1          8           0       -0.534595   -0.503149   -0.177831
      2          1           0       -1.129034    0.447071   -2.279508
      3          8           0        0.287444   -1.027913    0.506479
      4          8           0       -1.895175    0.109857   -2.756613
      5          1           0       -2.131793   -0.715818   -2.322989
 ---------------------------------------------------------------------
                    Distance matrix (angstroms):
                    1          2          3          4          5
     1  O    0.000000
     2  H    2.381874   0.000000
     3  O    1.191388   3.455968   0.000000
     4  O    2.979441   0.963491   4.087312   0.000000
     5  H    2.682903   1.536140   3.735773   0.962163   0.000000
 Stoichiometry    H2O3
 Framework group  C1[X(H2O3)]
 Deg. of freedom     9
 Full point group                 C1      NOp   1
 Largest Abelian subgroup         C1      NOp   1
 Largest concise Abelian subgroup C1      NOp   1
                         Standard orientation:                         
 ---------------------------------------------------------------------
 Center     Atomic      Atomic             Coordinates (Angstroms)
 Number     Number       Type             X           Y           Z
 ---------------------------------------------------------------------
      1          8           0       -0.752308   -0.044136    0.233584
      2          1           0        1.512800   -0.663779   -0.164728
      3          8           0       -1.871801    0.034926   -0.166279
      4          8           0        2.213547   -0.012741   -0.048889
      5          1           0        1.771699    0.839393    0.017405
 ---------------------------------------------------------------------
 Rotational constants (GHZ):    195.4872384      3.3721762      3.3654479
 Standard basis: 6-31+G(d,p) (6D, 7F)
 There are    67 symmetry adapted basis functions of A   symmetry.
 Integral buffers will be    262144 words long.
 Raffenetti 2 integral format.
 Two-electron integral symmetry is turned on.
    67 basis functions,   110 primitive gaussians,    67 cartesian basis functions
    13 alpha electrons       13 beta electrons
       nuclear repulsion energy        62.9314257520 Hartrees.
 NAtoms=    5 NActive=    5 NUniq=    5 SFac= 7.50D-01 NAtFMM=   80 NAOKFM=F Big=F
 One-electron integrals computed using PRISM.
 NBasis=    67 RedAO= T  NBF=    67
 NBsUse=    67 1.00D-06 NBFU=    67
 Initial guess read from the read-write file.
 B after Tr=     0.000000    0.000000    0.000000
         Rot=    1.000000    0.000000    0.000000    0.000000 Ang=   0.00 deg.
 Initial guess orbital symmetries:
       Occupied  (A) (A) (A) (A) (A) (A) (A) (A) (A) (A) (A) (A)
                 (A)
       Virtual   (A) (A) (A) (A) (A) (A) (A) (A) (A) (A) (A) (A)
                 (A) (A) (A) (A) (A) (A) (A) (A) (A) (A) (A) (A)
                 (A) (A) (A) (A) (A) (A) (A) (A) (A) (A) (A) (A)
                 (A) (A) (A) (A) (A) (A) (A) (A) (A) (A) (A) (A)
                 (A) (A) (A) (A) (A) (A)
 Harris functional with IExCor= 1009 diagonalized for initial guess.
 ExpMin= 8.45D-02 ExpMax= 5.48D+03 ExpMxC= 8.25D+02 IAcc=2 IRadAn=         0 AccDes= 0.00D+00
 HarFok:  IExCor= 1009 AccDes= 0.00D+00 IRadAn=         0 IDoV= 1
 ScaDFX=  1.000000  1.000000  1.000000  1.000000
 FoFCou: FMM=F IPFlag=           0 FMFlag=      100000 FMFlg1=           0
         NFxFlg=           0 DoJE=T BraDBF=F KetDBF=T FulRan=T
         Omega=  0.000000  0.000000  1.000000  0.000000  0.000000 ICntrl=     500 IOpCl=  0
         NMat0=    1 NMatS0=    1 NMatT0=    0 NMatD0=    1 NMtDS0=    0 NMtDT0=    0
         I1Cent=           4 NGrid=           0.
 Petite list used in FoFCou.
 Requested convergence on RMS density matrix=1.00D-08 within 128 cycles.
 Requested convergence on MAX density matrix=1.00D-06.
 Requested convergence on             energy=1.00D-06.
 No special actions if energy rises.
 Keep R1 ints in memory in canonical form, NReq=3551229.
 Integral accuracy reduced to 1.0D-05 until final iterations.
 Initial convergence to 1.0D-05 achieved.  Increase integral accuracy.
 >>>>>>>>>> Convergence criterion not met.
 SCF Done:  E(RM062X) =  -226.601275096     A.U. after  129 cycles
             Convg  =    0.3346D-06             -V/T =  2.0081
 Convergence failure -- run terminated.
 Error termination via Lnk1e in C:\G09W\l502.exe at Mon Feb 08 06:05:53 2021.
 Job cpu time:  0 days  0 hours  0 minutes 36.0 seconds.
 File lengths (MBytes):  RWF=      5 Int=      0 D2E=      0 Chk=      1 Scr=      1
