 Entering Link 1 = C:\G09W\l1.exe PID=      8140.
  
 Copyright (c) 1988,1990,1992,1993,1995,1998,2003,2009, Gaussian, Inc.
                  All Rights Reserved.
  
 This is part of the Gaussian(R) 09 program.  It is based on
 the Gaussian(R) 03 system (copyright 2003, Gaussian, Inc.),
 the Gaussian(R) 98 system (copyright 1998, Gaussian, Inc.),
 the Gaussian(R) 94 system (copyright 1995, Gaussian, Inc.),
 the Gaussian 92(TM) system (copyright 1992, Gaussian, Inc.),
 the Gaussian 90(TM) system (copyright 1990, Gaussian, Inc.),
 the Gaussian 88(TM) system (copyright 1988, Gaussian, Inc.),
 the Gaussian 86(TM) system (copyright 1986, Carnegie Mellon
 University), and the Gaussian 82(TM) system (copyright 1983,
 Carnegie Mellon University). Gaussian is a federally registered
 trademark of Gaussian, Inc.
  
 This software contains proprietary and confidential information,
 including trade secrets, belonging to Gaussian, Inc.
  
 This software is provided under written license and may be
 used, copied, transmitted, or stored only in accord with that
 written license.
  
 The following legend is applicable only to US Government
 contracts under FAR:
  
                    RESTRICTED RIGHTS LEGEND
  
 Use, reproduction and disclosure by the US Government is
 subject to restrictions as set forth in subparagraphs (a)
 and (c) of the Commercial Computer Software - Restricted
 Rights clause in FAR 52.227-19.
  
 Gaussian, Inc.
 340 Quinnipiac St., Bldg. 40, Wallingford CT 06492
  
  
 ---------------------------------------------------------------
 Warning -- This program may not be used in any manner that
 competes with the business of Gaussian, Inc. or will provide
 assistance to any competitor of Gaussian, Inc.  The licensee
 of this program is prohibited from giving any competitor of
 Gaussian, Inc. access to this program.  By using this program,
 the user acknowledges that Gaussian, Inc. is engaged in the
 business of creating and licensing software in the field of
 computational chemistry and represents and warrants to the
 licensee that it is not a competitor of Gaussian, Inc. and that
 it will not use this program in any manner prohibited above.
 ---------------------------------------------------------------
  

 Cite this work as:
 Gaussian 09, Revision A.02,
 M. J. Frisch, G. W. Trucks, H. B. Schlegel, G. E. Scuseria, 
 M. A. Robb, J. R. Cheeseman, G. Scalmani, V. Barone, B. Mennucci, 
 G. A. Petersson, H. Nakatsuji, M. Caricato, X. Li, H. P. Hratchian, 
 A. F. Izmaylov, J. Bloino, G. Zheng, J. L. Sonnenberg, M. Hada, 
 M. Ehara, K. Toyota, R. Fukuda, J. Hasegawa, M. Ishida, T. Nakajima, 
 Y. Honda, O. Kitao, H. Nakai, T. Vreven, J. A. Montgomery, Jr., 
 J. E. Peralta, F. Ogliaro, M. Bearpark, J. J. Heyd, E. Brothers, 
 K. N. Kudin, V. N. Staroverov, R. Kobayashi, J. Normand, 
 K. Raghavachari, A. Rendell, J. C. Burant, S. S. Iyengar, J. Tomasi, 
 M. Cossi, N. Rega, J. M. Millam, M. Klene, J. E. Knox, J. B. Cross, 
 V. Bakken, C. Adamo, J. Jaramillo, R. Gomperts, R. E. Stratmann, 
 O. Yazyev, A. J. Austin, R. Cammi, C. Pomelli, J. W. Ochterski, 
 R. L. Martin, K. Morokuma, V. G. Zakrzewski, G. A. Voth, 
 P. Salvador, J. J. Dannenberg, S. Dapprich, A. D. Daniels, 
 O. Farkas, J. B. Foresman, J. V. Ortiz, J. Cioslowski, 
 and D. J. Fox, Gaussian, Inc., Wallingford CT, 2009.
 
 ******************************************
 Gaussian 09:  IA32W-G09RevA.02 11-Jun-2009
                08-Feb-2021 
 ******************************************
 %chk=D:\Documents\rayGit\FQ\quimicaComputacional\proyecto\decompositionHydrogenP
 eroxide\descompositionByRadicals\gasPhase\step4\ts\tsM062X.chk
 %mem=1500MB
 %nprocshared=4
 Will use up to    4 processors via shared memory.
 --------------------------------------------------------
 # opt=(calcfc,ts,noeigen) freq=noraman 6-31+g(d,p) m062x
 --------------------------------------------------------
 1/5=1,10=4,11=1,14=-1,18=20,26=3,38=1/1,3;
 2/9=110,12=2,17=6,18=5,40=1/2;
 3/5=1,6=6,7=111,11=2,16=1,25=1,30=1,71=2,74=-55/1,2,3;
 4//1;
 5/5=2,38=5/2;
 8/6=4,10=90,11=11/1;
 11/6=1,8=1,9=11,15=111,16=1/1,2,10;
 10/6=1,7=6,13=1/2;
 6/7=2,8=2,9=2,10=2,28=1/1;
 7/10=1,18=20,25=1/1,2,3,16;
 1/5=1,10=4,11=1,14=-1,18=20/3(2);
 2/9=110/2;
 99//99;
 2/9=110/2;
 3/5=1,6=6,7=111,11=2,16=1,25=1,30=1,71=1,74=-55/1,2,3;
 4/5=5,16=3/1;
 5/5=2,38=5/2;
 7//1,2,3,16;
 1/5=1,11=1,14=-1,18=20/3(-5);
 2/9=110/2;
 6/7=2,8=2,9=2,10=2,19=2,28=1/1;
 99/9=1/99;
 ---
 ts2
 ---
 Symbolic Z-matrix:
 Charge =  0 Multiplicity = 1
 O                    -0.63024  -0.08799  -0.1773 
 H                    -1.18586  -0.0075   -1.50823 
 O                     0.28945  -0.92644  -0.06033 
 O                    -1.58643  -0.0075   -2.6394 
 H                    -2.29008  -0.66052  -2.64521 
 

 GradGradGradGradGradGradGradGradGradGradGradGradGradGradGradGradGradGrad
 Berny optimization.
 Initialization pass.
                           ----------------------------
                           !    Initial Parameters    !
                           ! (Angstroms and Degrees)  !
 --------------------------                            --------------------------
 ! Name  Definition              Value          Derivative Info.                !
 --------------------------------------------------------------------------------
 ! R1    R(1,2)                  1.4445         calculate D2E/DX2 analytically  !
 ! R2    R(1,3)                  1.25           calculate D2E/DX2 analytically  !
 ! R3    R(2,4)                  1.2            calculate D2E/DX2 analytically  !
 ! R4    R(4,5)                  0.96           calculate D2E/DX2 analytically  !
 ! A1    A(2,1,3)              113.9914         calculate D2E/DX2 analytically  !
 ! A2    A(2,4,5)              104.5            calculate D2E/DX2 analytically  !
 ! A3    L(1,2,4,5,-1)         179.7283         calculate D2E/DX2 analytically  !
 ! A4    L(1,2,4,5,-2)         188.2434         calculate D2E/DX2 analytically  !
 ! D1    D(3,1,4,5)             89.3657         calculate D2E/DX2 analytically  !
 --------------------------------------------------------------------------------
 Trust Radius=3.00D-01 FncErr=1.00D-07 GrdErr=1.00D-06
 Number of steps in this run=  20 maximum allowed number of steps= 100.
 Search for a saddle point of order  1.
 GradGradGradGradGradGradGradGradGradGradGradGradGradGradGradGradGradGrad

                          Input orientation:                          
 ---------------------------------------------------------------------
 Center     Atomic      Atomic             Coordinates (Angstroms)
 Number     Number       Type             X           Y           Z
 ---------------------------------------------------------------------
      1          8           0       -0.630239   -0.087991   -0.177299
      2          1           0       -1.185859   -0.007500   -1.508226
      3          8           0        0.289450   -0.926436   -0.060330
      4          8           0       -1.586427   -0.007500   -2.639396
      5          1           0       -2.290078   -0.660525   -2.645211
 ---------------------------------------------------------------------
                    Distance matrix (angstroms):
                    1          2          3          4          5
     1  O    0.000000
     2  H    1.444493   0.000000
     3  O    1.250000   2.262163   0.000000
     4  O    2.642479   1.200000   3.318876   0.000000
     5  H    3.028770   1.714198   3.661459   0.960000   0.000000
 Stoichiometry    H2O3
 Framework group  C1[X(H2O3)]
 Deg. of freedom     9
 Full point group                 C1      NOp   1
 Largest Abelian subgroup         C1      NOp   1
 Largest concise Abelian subgroup C1      NOp   1
                         Standard orientation:                         
 ---------------------------------------------------------------------
 Center     Atomic      Atomic             Coordinates (Angstroms)
 Number     Number       Type             X           Y           Z
 ---------------------------------------------------------------------
      1          8           0        0.717527    0.557277    0.018798
      2          1           0       -0.690027    0.239871   -0.049050
      3          8           0        1.465940   -0.443644   -0.004364
      4          8           0       -1.834919   -0.114552   -0.109111
      5          1           0       -2.098365   -0.232522    0.806465
 ---------------------------------------------------------------------
 Rotational constants (GHZ):     54.6270598      4.9515597      4.6070260
 Standard basis: 6-31+G(d,p) (6D, 7F)
 There are    67 symmetry adapted basis functions of A   symmetry.
 Integral buffers will be    262144 words long.
 Raffenetti 2 integral format.
 Two-electron integral symmetry is turned on.
    67 basis functions,   110 primitive gaussians,    67 cartesian basis functions
    13 alpha electrons       13 beta electrons
       nuclear repulsion energy        65.7172743823 Hartrees.
 NAtoms=    5 NActive=    5 NUniq=    5 SFac= 7.50D-01 NAtFMM=   80 NAOKFM=F Big=F
 One-electron integrals computed using PRISM.
 NBasis=    67 RedAO= T  NBF=    67
 NBsUse=    67 1.00D-06 NBFU=    67
 Harris functional with IExCor= 1009 diagonalized for initial guess.
 ExpMin= 8.45D-02 ExpMax= 5.48D+03 ExpMxC= 8.25D+02 IAcc=2 IRadAn=         0 AccDes= 0.00D+00
 HarFok:  IExCor= 1009 AccDes= 0.00D+00 IRadAn=         0 IDoV= 1
 ScaDFX=  1.000000  1.000000  1.000000  1.000000
 FoFCou: FMM=F IPFlag=           0 FMFlag=      100000 FMFlg1=           0
         NFxFlg=           0 DoJE=T BraDBF=F KetDBF=T FulRan=T
         Omega=  0.000000  0.000000  1.000000  0.000000  0.000000 ICntrl=     500 IOpCl=  0
         NMat0=    1 NMatS0=    1 NMatT0=    0 NMatD0=    1 NMtDS0=    0 NMtDT0=    0
         I1Cent=           4 NGrid=           0.
 Petite list used in FoFCou.
 Initial guess orbital symmetries:
       Occupied  (A) (A) (A) (A) (A) (A) (A) (A) (A) (A) (A) (A)
                 (A)
       Virtual   (A) (A) (A) (A) (A) (A) (A) (A) (A) (A) (A) (A)
                 (A) (A) (A) (A) (A) (A) (A) (A) (A) (A) (A) (A)
                 (A) (A) (A) (A) (A) (A) (A) (A) (A) (A) (A) (A)
                 (A) (A) (A) (A) (A) (A) (A) (A) (A) (A) (A) (A)
                 (A) (A) (A) (A) (A) (A)
 The electronic state of the initial guess is 1-A.
 Requested convergence on RMS density matrix=1.00D-08 within 128 cycles.
 Requested convergence on MAX density matrix=1.00D-06.
 Requested convergence on             energy=1.00D-06.
 No special actions if energy rises.
 Keep R1 ints in memory in canonical form, NReq=3551229.
 Integral accuracy reduced to 1.0D-05 until final iterations.
 Problem detected with inexpensive integrals.
 Switching to full accuracy and repeating last cycle.
 SCF Done:  E(RM062X) =  -226.556436353     A.U. after   41 cycles
             Convg  =    0.3424D-08             -V/T =  2.0096
 Range of M.O.s used for correlation:     1    67
 NBasis=    67 NAE=    13 NBE=    13 NFC=     0 NFV=     0
 NROrb=     67 NOA=    13 NOB=    13 NVA=    54 NVB=    54

 **** Warning!!: The largest alpha MO coefficient is  0.14786871D+02

 Symmetrizing basis deriv contribution to polar:
 IMax=3 JMax=2 DiffMx= 0.00D+00
 G2DrvN: will do     6 centers at a time, making    1 passes doing MaxLOS=2.
 Calling FoFCou, ICntrl=  3107 FMM=F I1Cent=   0 AccDes= 0.00D+00.
 FoFDir/FoFCou used for L=0 through L=2.
 End of G2Drv Frequency-dependent properties file   721 does not exist.
 End of G2Drv Frequency-dependent properties file   722 does not exist.
          IDoAtm=11111
          Differentiating once with respect to nuclear coordinates.
          Keep R1 ints in memory in canonical form, NReq=3416925.
          There are    18 degrees of freedom in the 1st order CPHF.  IDoFFX=5.
     12 vectors produced by pass  0 Test12= 3.90D-11 5.56D-07 XBig12= 8.09D-02 1.30D-01.
 AX will form    12 AO Fock derivatives at one time.
     12 vectors produced by pass  1 Test12= 3.90D-11 5.56D-07 XBig12= 1.39D-02 6.22D-02.
     12 vectors produced by pass  2 Test12= 3.90D-11 5.56D-07 XBig12= 2.00D-03 1.79D-02.
     12 vectors produced by pass  3 Test12= 3.90D-11 5.56D-07 XBig12= 3.86D-05 1.08D-03.
     12 vectors produced by pass  4 Test12= 3.90D-11 5.56D-07 XBig12= 2.33D-07 1.32D-04.
      5 vectors produced by pass  5 Test12= 3.90D-11 5.56D-07 XBig12= 1.25D-09 9.10D-06.
      1 vectors produced by pass  6 Test12= 3.90D-11 5.56D-07 XBig12= 5.88D-12 1.06D-06.
 Inverted reduced A of dimension    66 with in-core refinement.
 End of Minotr Frequency-dependent properties file   721 does not exist.
 End of Minotr Frequency-dependent properties file   722 does not exist.

 **********************************************************************

            Population analysis using the SCF density.

 **********************************************************************

 Orbital symmetries:
       Occupied  (A) (A) (A) (A) (A) (A) (A) (A) (A) (A) (A) (A)
                 (A)
       Virtual   (A) (A) (A) (A) (A) (A) (A) (A) (A) (A) (A) (A)
                 (A) (A) (A) (A) (A) (A) (A) (A) (A) (A) (A) (A)
                 (A) (A) (A) (A) (A) (A) (A) (A) (A) (A) (A) (A)
                 (A) (A) (A) (A) (A) (A) (A) (A) (A) (A) (A) (A)
                 (A) (A) (A) (A) (A) (A)
 The electronic state is 1-A.
 Alpha  occ. eigenvalues --  -19.88265 -19.87903 -19.61931  -1.45340  -1.06683
 Alpha  occ. eigenvalues --   -0.99777  -0.69731  -0.66821  -0.63893  -0.52754
 Alpha  occ. eigenvalues --   -0.44465  -0.38743  -0.35488
 Alpha virt. eigenvalues --   -0.19417   0.06743   0.07555   0.11116   0.12550
 Alpha virt. eigenvalues --    0.16837   0.17672   0.19263   0.20735   0.21973
 Alpha virt. eigenvalues --    0.22451   0.25891   0.28051   0.28958   0.31343
 Alpha virt. eigenvalues --    0.36464   0.98443   1.03281   1.06943   1.07611
 Alpha virt. eigenvalues --    1.09434   1.12643   1.13379   1.20006   1.23454
 Alpha virt. eigenvalues --    1.24317   1.26669   1.31452   1.44026   1.46394
 Alpha virt. eigenvalues --    1.48456   1.52429   1.58207   1.60502   1.64426
 Alpha virt. eigenvalues --    1.70961   1.76366   1.86644   1.87765   2.27412
 Alpha virt. eigenvalues --    2.32928   2.38144   2.46257   2.51282   2.60254
 Alpha virt. eigenvalues --    2.67368   2.71637   2.91247   2.96143   3.37619
 Alpha virt. eigenvalues --    3.58301   3.76419   4.09223   4.11313
          Condensed to atoms (all electrons):
              1          2          3          4          5
     1  O    7.720499  -0.013440   0.336053  -0.015868   0.006319
     2  H   -0.013440   0.383955  -0.009847   0.237482  -0.021879
     3  O    0.336053  -0.009847   7.578940   0.003356  -0.003008
     4  O   -0.015868   0.237482   0.003356   8.338125   0.272982
     5  H    0.006319  -0.021879  -0.003008   0.272982   0.394178
 Mulliken atomic charges:
              1
     1  O   -0.033563
     2  H    0.423728
     3  O    0.094505
     4  O   -0.836078
     5  H    0.351407
 Sum of Mulliken atomic charges =   0.00000
 Mulliken charges with hydrogens summed into heavy atoms:
              1
     1  O   -0.033563
     3  O    0.094505
     4  O   -0.060942
 Sum of Mulliken charges with hydrogens summed into heavy atoms =   0.00000
 APT atomic charges:
              1
     1  O   -0.120219
     2  H    0.329158
     3  O    0.193588
     4  O   -0.975098
     5  H    0.572571
 Sum of APT charges=   0.00000
 APT Atomic charges with hydrogens summed into heavy atoms:
              1
     1  O   -0.120219
     2  H    0.000000
     3  O    0.193588
     4  O   -0.073369
     5  H    0.000000
 Sum of APT charges=   0.00000
 Electronic spatial extent (au):  <R**2>=            248.9538
 Charge=              0.0000 electrons
 Dipole moment (field-independent basis, Debye):
    X=              2.9294    Y=              0.3521    Z=              1.7277  Tot=              3.4191
 Quadrupole moment (field-independent basis, Debye-Ang):
   XX=            -21.6741   YY=            -18.3340   ZZ=            -15.5278
   XY=             -0.3668   XZ=             -4.4338   YZ=             -0.8534
 Traceless Quadrupole moment (field-independent basis, Debye-Ang):
   XX=             -3.1621   YY=              0.1780   ZZ=              2.9842
   XY=             -0.3668   XZ=             -4.4338   YZ=             -0.8534
 Octapole moment (field-independent basis, Debye-Ang**2):
  XXX=             12.9717  YYY=              0.4721  ZZZ=              1.8783  XYY=              3.0045
  XXY=             -1.8958  XXZ=              8.3158  XZZ=              0.6440  YZZ=             -0.1449
  YYZ=              0.4444  XYZ=              0.7061
 Hexadecapole moment (field-independent basis, Debye-Ang**3):
 XXXX=           -248.0210 YYYY=            -32.3370 ZZZZ=            -14.1210 XXXY=              1.9633
 XXXZ=            -23.0047 YYYX=             -1.7024 YYYZ=             -0.9370 ZZZX=             -4.6000
 ZZZY=             -0.7670 XXYY=            -46.4316 XXZZ=            -35.9418 YYZZ=             -7.5838
 XXYZ=             -2.4513 YYXZ=             -1.2072 ZZXY=              0.1824
 N-N= 6.571727438233D+01 E-N=-6.653008544946D+02  KE= 2.244073624926D+02
  Exact polarizability:   0.000   0.000   0.000   0.000   0.000   0.000
 Approx polarizability:  29.700  -5.809  22.987  -0.512  -0.088  14.325
 Calling FoFJK, ICntrl=    100147 FMM=F ISym2X=0 I1Cent= 0 IOpClX= 0 NMat=1 NMatS=1 NMatT=0.
 ***** Axes restored to original set *****
 -------------------------------------------------------------------
 Center     Atomic                   Forces (Hartrees/Bohr)
 Number     Number              X              Y              Z
 -------------------------------------------------------------------
      1        8           0.066582760   -0.054466714    0.028425259
      2        1          -0.035309896   -0.000391442   -0.106373843
      3        8          -0.061044795    0.055201360   -0.010226531
      4        8           0.033316815    0.002099111    0.089582946
      5        1          -0.003544884   -0.002442315   -0.001407832
 -------------------------------------------------------------------
 Cartesian Forces:  Max     0.106373843 RMS     0.049536849

 GradGradGradGradGradGradGradGradGradGradGradGradGradGradGradGradGradGrad
 Berny optimization.
 Internal  Forces:  Max     0.093014801 RMS     0.042092455
 Search for a saddle point.
 Step number   1 out of a maximum of   20
 All quantities printed in internal units (Hartrees-Bohrs-Radians)
 Swaping is turned off.
 Second derivative matrix not updated -- analytic derivatives used.
 The second derivative matrix:
                          R1        R2        R3        R4        A1
           R1           0.03966
           R2           0.01545   0.60898
           R3           0.04843   0.00256   0.09453
           R4           0.00126  -0.00269  -0.00418   0.56638
           A1          -0.00067   0.00065   0.00437  -0.00059   0.04073
           A2           0.01853  -0.00504   0.01826   0.01720  -0.00237
           A3          -0.01538   0.01784   0.00316   0.00219   0.00325
           A4          -0.00193   0.00340  -0.00182   0.00060   0.00686
           D1           0.00190  -0.00144   0.00009  -0.00025  -0.00009
                          A2        A3        A4        D1
           A2           0.11796
           A3          -0.00007   0.00488
           A4          -0.00161  -0.00120   0.00646
           D1           0.00145   0.00363  -0.00211  -0.00085
     Eigenvalues ---   -0.00992  -0.00041   0.00613   0.02238   0.04259
     Eigenvalues ---    0.09518   0.14570   0.56690   0.61017
 Eigenvectors required to have negative eigenvalues:
                          A3        R1        D1        R3        A4
   1                    0.72657   0.50780  -0.38308  -0.24851   0.05158
                          R2        A2        A1        R4
   1                   -0.03403  -0.03385  -0.02735  -0.00508
 RFO step:  Lambda0=3.073673803D-02 Lambda=-6.88224371D-02.
 Linear search not attempted -- option 19 set.
 Maximum step size (   0.300) exceeded in Quadratic search.
    -- Step size scaled by   0.224
 Iteration  1 RMS(Cart)=  0.10194549 RMS(Int)=  0.01452241
 Iteration  2 RMS(Cart)=  0.01856710 RMS(Int)=  0.00030861
 Iteration  3 RMS(Cart)=  0.00027343 RMS(Int)=  0.00000004
 Iteration  4 RMS(Cart)=  0.00000005 RMS(Int)=  0.00000000
 Variable       Old X    -DE/DX   Delta X   Delta X   Delta X     New X
                                 (Linear)    (Quad)   (Total)
    R1        2.72970   0.01888   0.00000  -0.02122  -0.02122   2.70848
    R2        2.36216  -0.08293   0.00000  -0.02080  -0.02080   2.34136
    R3        2.26767  -0.09301   0.00000  -0.09410  -0.09410   2.17358
    R4        1.81414   0.00424   0.00000   0.00120   0.00120   1.81533
    A1        1.98952  -0.00576   0.00000  -0.00517  -0.00517   1.98435
    A2        1.82387   0.00279   0.00000   0.01485   0.01485   1.83871
    A3        3.13685   0.00003   0.00000  -0.16932  -0.16932   2.96753
    A4        3.28547  -0.00084   0.00000   0.03175   0.03175   3.31722
    D1        1.55973   0.00050   0.00000   0.22436   0.22436   1.78409
         Item               Value     Threshold  Converged?
 Maximum Force            0.093015     0.000450     NO 
 RMS     Force            0.042092     0.000300     NO 
 Maximum Displacement     0.147551     0.001800     NO 
 RMS     Displacement     0.106179     0.001200     NO 
 Predicted change in Energy=-9.609180D-03
 GradGradGradGradGradGradGradGradGradGradGradGradGradGradGradGradGradGrad

                          Input orientation:                          
 ---------------------------------------------------------------------
 Center     Atomic      Atomic             Coordinates (Angstroms)
 Number     Number       Type             X           Y           Z
 ---------------------------------------------------------------------
      1          8           0       -0.708319   -0.157744   -0.196589
      2          1           0       -1.140343    0.033090   -1.549803
      3          8           0        0.288881   -0.885326   -0.090189
      4          8           0       -1.546645   -0.041065   -2.623300
      5          1           0       -2.296727   -0.638906   -2.570582
 ---------------------------------------------------------------------
                    Distance matrix (angstroms):
                    1          2          3          4          5
     1  O    0.000000
     2  H    1.433266   0.000000
     3  O    1.238994   2.239786   0.000000
     4  O    2.570083   1.150207   3.240151   0.000000
     5  H    2.896619   1.682496   3.591440   0.960633   0.000000
 Stoichiometry    H2O3
 Framework group  C1[X(H2O3)]
 Deg. of freedom     9
 Full point group                 C1      NOp   1
 Largest Abelian subgroup         C1      NOp   1
 Largest concise Abelian subgroup C1      NOp   1
                         Standard orientation:                         
 ---------------------------------------------------------------------
 Center     Atomic      Atomic             Coordinates (Angstroms)
 Number     Number       Type             X           Y           Z
 ---------------------------------------------------------------------
      1          8           0        0.686505    0.551497   -0.002392
      2          1           0       -0.695885    0.214322   -0.174332
      3          8           0        1.440137   -0.431745    0.017109
      4          8           0       -1.785407   -0.145848   -0.095627
      5          1           0       -2.033992   -0.005554    0.821618
 ---------------------------------------------------------------------
 Rotational constants (GHZ):     55.7833716      5.2067074      4.8376746
 Standard basis: 6-31+G(d,p) (6D, 7F)
 There are    67 symmetry adapted basis functions of A   symmetry.
 Integral buffers will be    262144 words long.
 Raffenetti 2 integral format.
 Two-electron integral symmetry is turned on.
    67 basis functions,   110 primitive gaussians,    67 cartesian basis functions
    13 alpha electrons       13 beta electrons
       nuclear repulsion energy        66.8505117344 Hartrees.
 NAtoms=    5 NActive=    5 NUniq=    5 SFac= 7.50D-01 NAtFMM=   80 NAOKFM=F Big=F
 One-electron integrals computed using PRISM.
 NBasis=    67 RedAO= T  NBF=    67
 NBsUse=    67 1.00D-06 NBFU=    67
 Initial guess read from the read-write file.
 B after Tr=     0.000000    0.000000    0.000000
         Rot=    1.000000    0.000000    0.000000    0.000000 Ang=   0.00 deg.
 Initial guess orbital symmetries:
       Occupied  (A) (A) (A) (A) (A) (A) (A) (A) (A) (A) (A) (A)
                 (A)
       Virtual   (A) (A) (A) (A) (A) (A) (A) (A) (A) (A) (A) (A)
                 (A) (A) (A) (A) (A) (A) (A) (A) (A) (A) (A) (A)
                 (A) (A) (A) (A) (A) (A) (A) (A) (A) (A) (A) (A)
                 (A) (A) (A) (A) (A) (A) (A) (A) (A) (A) (A) (A)
                 (A) (A) (A) (A) (A) (A)
 Harris functional with IExCor= 1009 diagonalized for initial guess.
 ExpMin= 8.45D-02 ExpMax= 5.48D+03 ExpMxC= 8.25D+02 IAcc=2 IRadAn=         0 AccDes= 0.00D+00
 HarFok:  IExCor= 1009 AccDes= 0.00D+00 IRadAn=         0 IDoV= 1
 ScaDFX=  1.000000  1.000000  1.000000  1.000000
 FoFCou: FMM=F IPFlag=           0 FMFlag=      100000 FMFlg1=           0
         NFxFlg=           0 DoJE=T BraDBF=F KetDBF=T FulRan=T
         Omega=  0.000000  0.000000  1.000000  0.000000  0.000000 ICntrl=     500 IOpCl=  0
         NMat0=    1 NMatS0=    1 NMatT0=    0 NMatD0=    1 NMtDS0=    0 NMtDT0=    0
         I1Cent=           4 NGrid=           0.
 Petite list used in FoFCou.
 Requested convergence on RMS density matrix=1.00D-08 within 128 cycles.
 Requested convergence on MAX density matrix=1.00D-06.
 Requested convergence on             energy=1.00D-06.
 No special actions if energy rises.
 Keep R1 ints in memory in canonical form, NReq=3551229.
 Integral accuracy reduced to 1.0D-05 until final iterations.
 Initial convergence to 1.0D-05 achieved.  Increase integral accuracy.
 SCF Done:  E(RM062X) =  -226.565999117     A.U. after   31 cycles
             Convg  =    0.6073D-08             -V/T =  2.0092
 Calling FoFJK, ICntrl=      2127 FMM=F ISym2X=0 I1Cent= 0 IOpClX= 0 NMat=1 NMatS=1 NMatT=0.
 ***** Axes restored to original set *****
 -------------------------------------------------------------------
 Center     Atomic                   Forces (Hartrees/Bohr)
 Number     Number              X              Y              Z
 -------------------------------------------------------------------
      1        8           0.057618823   -0.040257322    0.026799850
      2        1          -0.033775381   -0.002968319   -0.096417111
      3        8          -0.051848624    0.038132997   -0.006363211
      4        8           0.031273936    0.006687216    0.076849052
      5        1          -0.003268755   -0.001594572   -0.000868580
 -------------------------------------------------------------------
 Cartesian Forces:  Max     0.096417111 RMS     0.042606800

 GradGradGradGradGradGradGradGradGradGradGradGradGradGradGradGradGradGrad
 Berny optimization.
 Internal  Forces:  Max     0.081115397 RMS     0.035330997
 Search for a saddle point.
 Step number   2 out of a maximum of   20
 All quantities printed in internal units (Hartrees-Bohrs-Radians)
 Swaping is turned off.
 Update second derivatives using D2CorX and points    1    2
 The second derivative matrix:
                          R1        R2        R3        R4        A1
           R1           0.03962
           R2           0.01576   0.61047
           R3           0.04861   0.00520   0.09790
           R4           0.00131  -0.00258  -0.00392   0.56639
           A1          -0.00010   0.00262   0.00833  -0.00047   0.04313
           A2           0.01846  -0.00559   0.01745   0.01715  -0.00316
           A3          -0.01557   0.02088   0.00569   0.00257   0.00835
           A4          -0.00180   0.00314  -0.00166   0.00055   0.00627
           D1           0.00213  -0.00549  -0.00332  -0.00074  -0.00687
                          A2        A3        A4        D1
           A2           0.11814
           A3          -0.00084   0.00480
           A4          -0.00160  -0.00036   0.00620
           D1           0.00247   0.00367  -0.00323  -0.00082
     Eigenvalues ---   -0.01265  -0.00025   0.00615   0.02196   0.04722
     Eigenvalues ---    0.09804   0.14646   0.56692   0.61197
 Eigenvectors required to have negative eigenvalues:
                          A3        R1        D1        R3        A1
   1                    0.70149   0.47379  -0.45479  -0.24315  -0.12407
                          R2        A2        R4        A4
   1                   -0.03722  -0.02510  -0.00593   0.00491
 RFO step:  Lambda0=2.672746730D-02 Lambda=-5.76590533D-02.
 Linear search not attempted -- option 19 set.
 Maximum step size (   0.300) exceeded in Quadratic search.
    -- Step size scaled by   0.229
 Iteration  1 RMS(Cart)=  0.09617345 RMS(Int)=  0.01457099
 Iteration  2 RMS(Cart)=  0.01878837 RMS(Int)=  0.00036125
 Iteration  3 RMS(Cart)=  0.00033487 RMS(Int)=  0.00000006
 Iteration  4 RMS(Cart)=  0.00000007 RMS(Int)=  0.00000000
 Variable       Old X    -DE/DX   Delta X   Delta X   Delta X     New X
                                 (Linear)    (Quad)   (Total)
    R1        2.70848   0.02129   0.00000   0.00830   0.00830   2.71678
    R2        2.34136  -0.06465   0.00000  -0.01465  -0.01465   2.32671
    R3        2.17358  -0.08112   0.00000  -0.09360  -0.09360   2.07998
    R4        1.81533   0.00349   0.00000   0.00138   0.00138   1.81672
    A1        1.98435  -0.00190   0.00000   0.05024   0.05024   2.03460
    A2        1.83871   0.00227   0.00000   0.00923   0.00923   1.84794
    A3        2.96753   0.00072   0.00000  -0.14762  -0.14762   2.81991
    A4        3.31722  -0.00045   0.00000   0.04646   0.04646   3.36368
    D1        1.78409   0.00095   0.00000   0.23323   0.23323   2.01731
         Item               Value     Threshold  Converged?
 Maximum Force            0.081115     0.000450     NO 
 RMS     Force            0.035331     0.000300     NO 
 Maximum Displacement     0.177607     0.001800     NO 
 RMS     Displacement     0.108611     0.001200     NO 
 Predicted change in Energy=-8.276229D-03
 GradGradGradGradGradGradGradGradGradGradGradGradGradGradGradGradGradGrad

                          Input orientation:                          
 ---------------------------------------------------------------------
 Center     Atomic      Atomic             Coordinates (Angstroms)
 Number     Number       Type             X           Y           Z
 ---------------------------------------------------------------------
      1          8           0       -0.763894   -0.251730   -0.242900
      2          1           0       -1.103261    0.054794   -1.605887
      3          8           0        0.307294   -0.830168   -0.058727
      4          8           0       -1.528354   -0.060220   -2.614627
      5          1           0       -2.314938   -0.602628   -2.508321
 ---------------------------------------------------------------------
                    Distance matrix (angstroms):
                    1          2          3          4          5
     1  O    0.000000
     2  H    1.437657   0.000000
     3  O    1.231241   2.272999   0.000000
     4  O    2.499233   1.100677   3.239606   0.000000
     5  H    2.767851   1.647651   3.595606   0.961365   0.000000
 Stoichiometry    H2O3
 Framework group  C1[X(H2O3)]
 Deg. of freedom     9
 Full point group                 C1      NOp   1
 Largest Abelian subgroup         C1      NOp   1
 Largest concise Abelian subgroup C1      NOp   1
                         Standard orientation:                         
 ---------------------------------------------------------------------
 Center     Atomic      Atomic             Coordinates (Angstroms)
 Number     Number       Type             X           Y           Z
 ---------------------------------------------------------------------
      1          8           0        0.636990    0.518486   -0.029419
      2          1           0       -0.724564    0.126693   -0.273402
      3          8           0        1.467073   -0.388223    0.039824
      4          8           0       -1.763605   -0.175419   -0.071878
      5          1           0       -1.999102    0.234558    0.765190
 ---------------------------------------------------------------------
 Rotational constants (GHZ):     62.9255323      5.2721365      4.9367549
 Standard basis: 6-31+G(d,p) (6D, 7F)
 There are    67 symmetry adapted basis functions of A   symmetry.
 Integral buffers will be    262144 words long.
 Raffenetti 2 integral format.
 Two-electron integral symmetry is turned on.
    67 basis functions,   110 primitive gaussians,    67 cartesian basis functions
    13 alpha electrons       13 beta electrons
       nuclear repulsion energy        67.5968678668 Hartrees.
 NAtoms=    5 NActive=    5 NUniq=    5 SFac= 7.50D-01 NAtFMM=   80 NAOKFM=F Big=F
 One-electron integrals computed using PRISM.
 NBasis=    67 RedAO= T  NBF=    67
 NBsUse=    67 1.00D-06 NBFU=    67
 Initial guess read from the read-write file.
 B after Tr=     0.000000    0.000000    0.000000
         Rot=    1.000000    0.000000    0.000000    0.000000 Ang=   0.00 deg.
 Initial guess orbital symmetries:
       Occupied  (A) (A) (A) (A) (A) (A) (A) (A) (A) (A) (A) (A)
                 (A)
       Virtual   (A) (A) (A) (A) (A) (A) (A) (A) (A) (A) (A) (A)
                 (A) (A) (A) (A) (A) (A) (A) (A) (A) (A) (A) (A)
                 (A) (A) (A) (A) (A) (A) (A) (A) (A) (A) (A) (A)
                 (A) (A) (A) (A) (A) (A) (A) (A) (A) (A) (A) (A)
                 (A) (A) (A) (A) (A) (A)
 Harris functional with IExCor= 1009 diagonalized for initial guess.
 ExpMin= 8.45D-02 ExpMax= 5.48D+03 ExpMxC= 8.25D+02 IAcc=2 IRadAn=         0 AccDes= 0.00D+00
 HarFok:  IExCor= 1009 AccDes= 0.00D+00 IRadAn=         0 IDoV= 1
 ScaDFX=  1.000000  1.000000  1.000000  1.000000
 FoFCou: FMM=F IPFlag=           0 FMFlag=      100000 FMFlg1=           0
         NFxFlg=           0 DoJE=T BraDBF=F KetDBF=T FulRan=T
         Omega=  0.000000  0.000000  1.000000  0.000000  0.000000 ICntrl=     500 IOpCl=  0
         NMat0=    1 NMatS0=    1 NMatT0=    0 NMatD0=    1 NMtDS0=    0 NMtDT0=    0
         I1Cent=           4 NGrid=           0.
 Petite list used in FoFCou.
 Requested convergence on RMS density matrix=1.00D-08 within 128 cycles.
 Requested convergence on MAX density matrix=1.00D-06.
 Requested convergence on             energy=1.00D-06.
 No special actions if energy rises.
 Keep R1 ints in memory in canonical form, NReq=3551229.
 Integral accuracy reduced to 1.0D-05 until final iterations.
 Initial convergence to 1.0D-05 achieved.  Increase integral accuracy.
 SCF Done:  E(RM062X) =  -226.574037266     A.U. after   27 cycles
             Convg  =    0.1055D-08             -V/T =  2.0089
 Calling FoFJK, ICntrl=      2127 FMM=F ISym2X=0 I1Cent= 0 IOpClX= 0 NMat=1 NMatS=1 NMatT=0.
 ***** Axes restored to original set *****
 -------------------------------------------------------------------
 Center     Atomic                   Forces (Hartrees/Bohr)
 Number     Number              X              Y              Z
 -------------------------------------------------------------------
      1        8           0.050462690   -0.029250308    0.030884473
      2        1          -0.032240551   -0.002294207   -0.083142577
      3        8          -0.044283026    0.024551807   -0.008023690
      4        8           0.028533600    0.007726828    0.060460853
      5        1          -0.002472712   -0.000734120   -0.000179059
 -------------------------------------------------------------------
 Cartesian Forces:  Max     0.083142577 RMS     0.036034748

 GradGradGradGradGradGradGradGradGradGradGradGradGradGradGradGradGradGrad
 Berny optimization.
 Internal  Forces:  Max     0.066043532 RMS     0.029029305
 Search for a saddle point.
 Step number   3 out of a maximum of   20
 All quantities printed in internal units (Hartrees-Bohrs-Radians)
 Swaping is turned off.
 Update second derivatives using D2CorX and points    1    2    3
 The second derivative matrix:
                          R1        R2        R3        R4        A1
           R1           0.04005
           R2           0.01593   0.61044
           R3           0.05147   0.00571   0.11304
           R4           0.00119  -0.00261  -0.00460   0.56642
           A1          -0.00054   0.00267   0.00681  -0.00038   0.04306
           A2           0.01798  -0.00571   0.01476   0.01727  -0.00284
           A3          -0.01351   0.02075   0.01368   0.00212   0.00835
           A4          -0.00193   0.00334  -0.00098   0.00056   0.00583
           D1          -0.00075  -0.00522  -0.01390  -0.00013  -0.00710
                          A2        A3        A4        D1
           A2           0.11860
           A3          -0.00243   0.00591
           A4          -0.00163   0.00141   0.00559
           D1           0.00463   0.00305  -0.00595  -0.00136
     Eigenvalues ---   -0.01492  -0.00220   0.00749   0.02431   0.04718
     Eigenvalues ---    0.10743   0.15351   0.56696   0.61199
 Eigenvectors required to have negative eigenvalues:
                          A3        D1        R1        R3        A4
   1                    0.63286  -0.54860   0.42529  -0.29273  -0.14146
                          A1        R2        R4        A2
   1                   -0.10417  -0.03256  -0.00573   0.00104
 RFO step:  Lambda0=2.546536338D-02 Lambda=-4.35713714D-02.
 Linear search not attempted -- option 19 set.
 Maximum step size (   0.300) exceeded in Quadratic search.
    -- Step size scaled by   0.240
 Iteration  1 RMS(Cart)=  0.08773974 RMS(Int)=  0.01483214
 Iteration  2 RMS(Cart)=  0.01835382 RMS(Int)=  0.00039841
 Iteration  3 RMS(Cart)=  0.00035095 RMS(Int)=  0.00000007
 Iteration  4 RMS(Cart)=  0.00000007 RMS(Int)=  0.00000000
 Variable       Old X    -DE/DX   Delta X   Delta X   Delta X     New X
                                 (Linear)    (Quad)   (Total)
    R1        2.71678   0.02414   0.00000   0.04179   0.04179   2.75856
    R2        2.32671  -0.05125   0.00000  -0.01376  -0.01376   2.31295
    R3        2.07998  -0.06604   0.00000  -0.06085  -0.06085   2.01913
    R4        1.81672   0.00241   0.00000   0.00103   0.00103   1.81775
    A1        2.03460  -0.00074   0.00000   0.04240   0.04240   2.07700
    A2        1.84794   0.00108   0.00000  -0.00597  -0.00597   1.84197
    A3        2.81991   0.00211   0.00000  -0.12072  -0.12072   2.69920
    A4        3.36368   0.00058   0.00000   0.10403   0.10403   3.46771
    D1        2.01731   0.00094   0.00000   0.23903   0.23903   2.25634
         Item               Value     Threshold  Converged?
 Maximum Force            0.066044     0.000450     NO 
 RMS     Force            0.029029     0.000300     NO 
 Maximum Displacement     0.180723     0.001800     NO 
 RMS     Displacement     0.101155     0.001200     NO 
 Predicted change in Energy=-5.446491D-03
 GradGradGradGradGradGradGradGradGradGradGradGradGradGradGradGradGradGrad

                          Input orientation:                          
 ---------------------------------------------------------------------
 Center     Atomic      Atomic             Coordinates (Angstroms)
 Number     Number       Type             X           Y           Z
 ---------------------------------------------------------------------
      1          8           0       -0.796133   -0.347364   -0.287639
      2          1           0       -1.080392    0.080631   -1.654001
      3          8           0        0.318672   -0.775755   -0.019736
      4          8           0       -1.514612   -0.082683   -2.616510
      5          1           0       -2.330687   -0.564781   -2.452576
 ---------------------------------------------------------------------
                    Distance matrix (angstroms):
                    1          2          3          4          5
     1  O    0.000000
     2  H    1.459770   0.000000
     3  O    1.223961   2.315513   0.000000
     4  O    2.451512   1.068477   3.253386   0.000000
     5  H    2.662532   1.617874   3.603099   0.961910   0.000000
 Stoichiometry    H2O3
 Framework group  C1[X(H2O3)]
 Deg. of freedom     9
 Full point group                 C1      NOp   1
 Largest Abelian subgroup         C1      NOp   1
 Largest concise Abelian subgroup C1      NOp   1
                         Standard orientation:                         
 ---------------------------------------------------------------------
 Center     Atomic      Atomic             Coordinates (Angstroms)
 Number     Number       Type             X           Y           Z
 ---------------------------------------------------------------------
      1          8           0        0.601254    0.483116   -0.049252
      2          1           0       -0.755211    0.031611   -0.344334
      3          8           0        1.493956   -0.347816    0.054269
      4          8           0       -1.754446   -0.195508   -0.041695
      5          1           0       -1.970904    0.450060    0.637759
 ---------------------------------------------------------------------
 Rotational constants (GHZ):     71.1673871      5.2811086      4.9759942
 Standard basis: 6-31+G(d,p) (6D, 7F)
 There are    67 symmetry adapted basis functions of A   symmetry.
 Integral buffers will be    262144 words long.
 Raffenetti 2 integral format.
 Two-electron integral symmetry is turned on.
    67 basis functions,   110 primitive gaussians,    67 cartesian basis functions
    13 alpha electrons       13 beta electrons
       nuclear repulsion energy        68.0785528176 Hartrees.
 NAtoms=    5 NActive=    5 NUniq=    5 SFac= 7.50D-01 NAtFMM=   80 NAOKFM=F Big=F
 One-electron integrals computed using PRISM.
 NBasis=    67 RedAO= T  NBF=    67
 NBsUse=    67 1.00D-06 NBFU=    67
 Initial guess read from the read-write file.
 B after Tr=     0.000000    0.000000    0.000000
         Rot=    1.000000    0.000000    0.000000    0.000000 Ang=   0.00 deg.
 Initial guess orbital symmetries:
       Occupied  (A) (A) (A) (A) (A) (A) (A) (A) (A) (A) (A) (A)
                 (A)
       Virtual   (A) (A) (A) (A) (A) (A) (A) (A) (A) (A) (A) (A)
                 (A) (A) (A) (A) (A) (A) (A) (A) (A) (A) (A) (A)
                 (A) (A) (A) (A) (A) (A) (A) (A) (A) (A) (A) (A)
                 (A) (A) (A) (A) (A) (A) (A) (A) (A) (A) (A) (A)
                 (A) (A) (A) (A) (A) (A)
 Harris functional with IExCor= 1009 diagonalized for initial guess.
 ExpMin= 8.45D-02 ExpMax= 5.48D+03 ExpMxC= 8.25D+02 IAcc=2 IRadAn=         0 AccDes= 0.00D+00
 HarFok:  IExCor= 1009 AccDes= 0.00D+00 IRadAn=         0 IDoV= 1
 ScaDFX=  1.000000  1.000000  1.000000  1.000000
 FoFCou: FMM=F IPFlag=           0 FMFlag=      100000 FMFlg1=           0
         NFxFlg=           0 DoJE=T BraDBF=F KetDBF=T FulRan=T
         Omega=  0.000000  0.000000  1.000000  0.000000  0.000000 ICntrl=     500 IOpCl=  0
         NMat0=    1 NMatS0=    1 NMatT0=    0 NMatD0=    1 NMtDS0=    0 NMtDT0=    0
         I1Cent=           4 NGrid=           0.
 Petite list used in FoFCou.
 Requested convergence on RMS density matrix=1.00D-08 within 128 cycles.
 Requested convergence on MAX density matrix=1.00D-06.
 Requested convergence on             energy=1.00D-06.
 No special actions if energy rises.
 Keep R1 ints in memory in canonical form, NReq=3551229.
 Integral accuracy reduced to 1.0D-05 until final iterations.
 Initial convergence to 1.0D-05 achieved.  Increase integral accuracy.
 SCF Done:  E(RM062X) =  -226.579076566     A.U. after   28 cycles
             Convg  =    0.6808D-08             -V/T =  2.0087
 Calling FoFJK, ICntrl=      2127 FMM=F ISym2X=0 I1Cent= 0 IOpClX= 0 NMat=1 NMatS=1 NMatT=0.
 ***** Axes restored to original set *****
 -------------------------------------------------------------------
 Center     Atomic                   Forces (Hartrees/Bohr)
 Number     Number              X              Y              Z
 -------------------------------------------------------------------
      1        8           0.043435709   -0.020958484    0.033063647
      2        1          -0.030090861   -0.002362334   -0.071797765
      3        8          -0.036928314    0.014333262   -0.009167767
      4        8           0.025612743    0.009258945    0.048103315
      5        1          -0.002029277   -0.000271389   -0.000201430
 -------------------------------------------------------------------
 Cartesian Forces:  Max     0.071797765 RMS     0.030765972

 GradGradGradGradGradGradGradGradGradGradGradGradGradGradGradGradGradGrad
 Berny optimization.
 Internal  Forces:  Max     0.054117663 RMS     0.024194070
 Search for a saddle point.
 Step number   4 out of a maximum of   20
 All quantities printed in internal units (Hartrees-Bohrs-Radians)
 Swaping is turned off.
 Update second derivatives using D2CorX and points    2    3    4
 The second derivative matrix:
                          R1        R2        R3        R4        A1
           R1           0.04025
           R2           0.01567   0.61072
           R3           0.05292   0.00438   0.11796
           R4           0.00119  -0.00261  -0.00461   0.56642
           A1          -0.00110   0.00315   0.00524  -0.00037   0.04353
           A2           0.01814  -0.00586   0.01537   0.01727  -0.00305
           A3          -0.01193   0.01940   0.01809   0.00212   0.00705
           A4          -0.00260   0.00384  -0.00217   0.00055   0.00608
           D1          -0.00303  -0.00335  -0.01931  -0.00014  -0.00565
                          A2        A3        A4        D1
           A2           0.11868
           A3          -0.00185   0.00954
           A4          -0.00181   0.00071   0.00544
           D1           0.00389  -0.00099  -0.00558   0.00255
     Eigenvalues ---   -0.01094  -0.00248   0.00774   0.02654   0.04716
     Eigenvalues ---    0.10897   0.15900   0.56696   0.61212
 Eigenvectors required to have negative eigenvalues:
                          A3        R1        D1        R3        A4
   1                    0.64463   0.50047  -0.43310  -0.35787  -0.11090
                          A1        R2        A2        R4
   1                   -0.07015  -0.03162  -0.00919  -0.00616
 RFO step:  Lambda0=3.151537980D-02 Lambda=-2.95233428D-02.
 Linear search not attempted -- option 19 set.
 Maximum step size (   0.300) exceeded in Quadratic search.
    -- Step size scaled by   0.236
 Iteration  1 RMS(Cart)=  0.09370578 RMS(Int)=  0.01389068
 Iteration  2 RMS(Cart)=  0.01711398 RMS(Int)=  0.00040509
 Iteration  3 RMS(Cart)=  0.00038679 RMS(Int)=  0.00000009
 Iteration  4 RMS(Cart)=  0.00000009 RMS(Int)=  0.00000000
 Variable       Old X    -DE/DX   Delta X   Delta X   Delta X     New X
                                 (Linear)    (Quad)   (Total)
    R1        2.75856   0.02560   0.00000   0.00545   0.00545   2.76401
    R2        2.31295  -0.04066   0.00000  -0.00976  -0.00976   2.30319
    R3        2.01913  -0.05412   0.00000  -0.00933  -0.00933   2.00980
    R4        1.81775   0.00181   0.00000   0.00132   0.00132   1.81907
    A1        2.07700  -0.00062   0.00000   0.03213   0.03213   2.10912
    A2        1.84197   0.00103   0.00000  -0.00426  -0.00426   1.83770
    A3        2.69920   0.00498   0.00000  -0.14652  -0.14652   2.55268
    A4        3.46771   0.00120   0.00000   0.11741   0.11741   3.58512
    D1        2.25634  -0.00004   0.00000   0.23126   0.23126   2.48760
         Item               Value     Threshold  Converged?
 Maximum Force            0.054118     0.000450     NO 
 RMS     Force            0.024194     0.000300     NO 
 Maximum Displacement     0.179587     0.001800     NO 
 RMS     Displacement     0.106125     0.001200     NO 
 Predicted change in Energy=-2.426153D-04
 GradGradGradGradGradGradGradGradGradGradGradGradGradGradGradGradGradGrad

                          Input orientation:                          
 ---------------------------------------------------------------------
 Center     Atomic      Atomic             Coordinates (Angstroms)
 Number     Number       Type             X           Y           Z
 ---------------------------------------------------------------------
      1          8           0       -0.817946   -0.442397   -0.357741
      2          1           0       -1.044250    0.122054   -1.687979
      3          8           0        0.306496   -0.724809    0.018211
      4          8           0       -1.510012   -0.105118   -2.616731
      5          1           0       -2.337440   -0.539682   -2.386223
 ---------------------------------------------------------------------
                    Distance matrix (angstroms):
                    1          2          3          4          5
     1  O    0.000000
     2  H    1.462651   0.000000
     3  O    1.218797   2.335117   0.000000
     4  O    2.386576   1.063542   3.259853   0.000000
     5  H    2.536349   1.611763   3.578544   0.962609   0.000000
 Stoichiometry    H2O3
 Framework group  C1[X(H2O3)]
 Deg. of freedom     9
 Full point group                 C1      NOp   1
 Largest Abelian subgroup         C1      NOp   1
 Largest concise Abelian subgroup C1      NOp   1
                         Standard orientation:                         
 ---------------------------------------------------------------------
 Center     Atomic      Atomic             Coordinates (Angstroms)
 Number     Number       Type             X           Y           Z
 ---------------------------------------------------------------------
      1          8           0        0.557708    0.439807   -0.056300
      2          1           0       -0.760702   -0.087285   -0.407469
      3          8           0        1.517337   -0.302799    0.058224
      4          8           0       -1.740272   -0.202734   -0.009681
      5          1           0       -1.917477    0.613094    0.469527
 ---------------------------------------------------------------------
 Rotational constants (GHZ):     83.1652125      5.3266010      5.0531343
 Standard basis: 6-31+G(d,p) (6D, 7F)
 There are    67 symmetry adapted basis functions of A   symmetry.
 Integral buffers will be    262144 words long.
 Raffenetti 2 integral format.
 Two-electron integral symmetry is turned on.
    67 basis functions,   110 primitive gaussians,    67 cartesian basis functions
    13 alpha electrons       13 beta electrons
       nuclear repulsion energy        68.6335535794 Hartrees.
 NAtoms=    5 NActive=    5 NUniq=    5 SFac= 7.50D-01 NAtFMM=   80 NAOKFM=F Big=F
 One-electron integrals computed using PRISM.
 NBasis=    67 RedAO= T  NBF=    67
 NBsUse=    67 1.00D-06 NBFU=    67
 Initial guess read from the read-write file.
 B after Tr=     0.000000    0.000000    0.000000
         Rot=    1.000000    0.000000    0.000000    0.000000 Ang=   0.00 deg.
 Initial guess orbital symmetries:
       Occupied  (A) (A) (A) (A) (A) (A) (A) (A) (A) (A) (A) (A)
                 (A)
       Virtual   (A) (A) (A) (A) (A) (A) (A) (A) (A) (A) (A) (A)
                 (A) (A) (A) (A) (A) (A) (A) (A) (A) (A) (A) (A)
                 (A) (A) (A) (A) (A) (A) (A) (A) (A) (A) (A) (A)
                 (A) (A) (A) (A) (A) (A) (A) (A) (A) (A) (A) (A)
                 (A) (A) (A) (A) (A) (A)
 Harris functional with IExCor= 1009 diagonalized for initial guess.
 ExpMin= 8.45D-02 ExpMax= 5.48D+03 ExpMxC= 8.25D+02 IAcc=2 IRadAn=         0 AccDes= 0.00D+00
 HarFok:  IExCor= 1009 AccDes= 0.00D+00 IRadAn=         0 IDoV= 1
 ScaDFX=  1.000000  1.000000  1.000000  1.000000
 FoFCou: FMM=F IPFlag=           0 FMFlag=      100000 FMFlg1=           0
         NFxFlg=           0 DoJE=T BraDBF=F KetDBF=T FulRan=T
         Omega=  0.000000  0.000000  1.000000  0.000000  0.000000 ICntrl=     500 IOpCl=  0
         NMat0=    1 NMatS0=    1 NMatT0=    0 NMatD0=    1 NMtDS0=    0 NMtDT0=    0
         I1Cent=           4 NGrid=           0.
 Petite list used in FoFCou.
 Requested convergence on RMS density matrix=1.00D-08 within 128 cycles.
 Requested convergence on MAX density matrix=1.00D-06.
 Requested convergence on             energy=1.00D-06.
 No special actions if energy rises.
 Keep R1 ints in memory in canonical form, NReq=3551229.
 Integral accuracy reduced to 1.0D-05 until final iterations.
 Initial convergence to 1.0D-05 achieved.  Increase integral accuracy.
 SCF Done:  E(RM062X) =  -226.578831082     A.U. after   26 cycles
             Convg  =    0.1527D-08             -V/T =  2.0085
 Calling FoFJK, ICntrl=      2127 FMM=F ISym2X=0 I1Cent= 0 IOpClX= 0 NMat=1 NMatS=1 NMatT=0.
 ***** Axes restored to original set *****
 -------------------------------------------------------------------
 Center     Atomic                   Forces (Hartrees/Bohr)
 Number     Number              X              Y              Z
 -------------------------------------------------------------------
      1        8           0.036129118   -0.014442500    0.036305831
      2        1          -0.033025459   -0.004785662   -0.068216380
      3        8          -0.028851330    0.005900905   -0.010114781
      4        8           0.027029132    0.013258707    0.041815439
      5        1          -0.001281461    0.000068550    0.000209891
 -------------------------------------------------------------------
 Cartesian Forces:  Max     0.068216380 RMS     0.028548424

 GradGradGradGradGradGradGradGradGradGradGradGradGradGradGradGradGradGrad
 Berny optimization.
 Internal  Forces:  Max     0.050821554 RMS     0.022294418
 Search for a saddle point.
 Step number   5 out of a maximum of   20
 All quantities printed in internal units (Hartrees-Bohrs-Radians)
 Swaping is turned off.
 Update second derivatives using D2CorX and points    3    4    5
 The second derivative matrix:
                          R1        R2        R3        R4        A1
           R1           0.04122
           R2           0.01625   0.61090
           R3           0.05128   0.00342   0.12074
           R4           0.00097  -0.00270  -0.00425   0.56646
           A1          -0.00245   0.00281   0.00747  -0.00018   0.04409
           A2           0.01794  -0.00599   0.01572   0.01732  -0.00272
           A3          -0.00640   0.02083   0.00896   0.00132   0.00466
           A4          -0.00589   0.00325   0.00324   0.00097   0.00678
           D1          -0.01042  -0.00487  -0.00714   0.00084  -0.00356
                          A2        A3        A4        D1
           A2           0.11872
           A3          -0.00317   0.01958
           A4          -0.00100  -0.00233   0.00511
           D1           0.00569  -0.00995  -0.00476   0.00766
     Eigenvalues ---   -0.00904   0.00769   0.01752   0.02464   0.04714
     Eigenvalues ---    0.10845   0.15863   0.56698   0.61246
 Eigenvectors required to have negative eigenvalues:
                          D1        A4        R1        A3        R3
   1                    0.59549   0.50021   0.43677   0.41334  -0.17287
                          A2        R2        A1        R4
   1                   -0.05335  -0.02278  -0.01731  -0.00318
 RFO step:  Lambda0=2.118822463D-02 Lambda=-3.94135537D-02.
 Linear search not attempted -- option 19 set.
 Maximum step size (   0.300) exceeded in Quadratic search.
    -- Step size scaled by   0.264
 Iteration  1 RMS(Cart)=  0.08690093 RMS(Int)=  0.01036384
 Iteration  2 RMS(Cart)=  0.01025469 RMS(Int)=  0.00007103
 Iteration  3 RMS(Cart)=  0.00006075 RMS(Int)=  0.00000000
 Iteration  4 RMS(Cart)=  0.00000000 RMS(Int)=  0.00000000
 Variable       Old X    -DE/DX   Delta X   Delta X   Delta X     New X
                                 (Linear)    (Quad)   (Total)
    R1        2.76401   0.02833   0.00000   0.02486   0.02486   2.78887
    R2        2.30319  -0.03107   0.00000  -0.01080  -0.01080   2.29239
    R3        2.00980  -0.05082   0.00000  -0.08185  -0.08185   1.92796
    R4        1.81907   0.00095   0.00000   0.00012   0.00012   1.81919
    A1        2.10912  -0.00123   0.00000   0.01549   0.01549   2.12461
    A2        1.83770  -0.00007   0.00000   0.01515   0.01515   1.85285
    A3        2.55268   0.01058   0.00000  -0.07224  -0.07224   2.48044
    A4        3.58512   0.00123   0.00000  -0.16283  -0.16283   3.42229
    D1        2.48760  -0.00263   0.00000  -0.22442  -0.22442   2.26318
         Item               Value     Threshold  Converged?
 Maximum Force            0.050822     0.000450     NO 
 RMS     Force            0.022294     0.000300     NO 
 Maximum Displacement     0.122369     0.001800     NO 
 RMS     Displacement     0.093171     0.001200     NO 
 Predicted change in Energy=-4.468879D-03
 GradGradGradGradGradGradGradGradGradGradGradGradGradGradGradGradGradGrad

                          Input orientation:                          
 ---------------------------------------------------------------------
 Center     Atomic      Atomic             Coordinates (Angstroms)
 Number     Number       Type             X           Y           Z
 ---------------------------------------------------------------------
      1          8           0       -0.824482   -0.398127   -0.375705
      2          1           0       -1.025887    0.147172   -1.732204
      3          8           0        0.264305   -0.772616    0.006216
      4          8           0       -1.532243   -0.061944   -2.592870
      5          1           0       -2.284845   -0.604436   -2.335900
 ---------------------------------------------------------------------
                    Distance matrix (angstroms):
                    1          2          3          4          5
     1  O    0.000000
     2  H    1.475806   0.000000
     3  O    1.213080   2.352171   0.000000
     4  O    2.351546   1.020232   3.238501   0.000000
     5  H    2.453077   1.585667   3.465827   0.962675   0.000000
 Stoichiometry    H2O3
 Framework group  C1[X(H2O3)]
 Deg. of freedom     9
 Full point group                 C1      NOp   1
 Largest Abelian subgroup         C1      NOp   1
 Largest concise Abelian subgroup C1      NOp   1
                         Standard orientation:                         
 ---------------------------------------------------------------------
 Center     Atomic      Atomic             Coordinates (Angstroms)
 Number     Number       Type             X           Y           Z
 ---------------------------------------------------------------------
      1          8           0        0.542807    0.426894   -0.072010
      2          1           0       -0.787240   -0.115279   -0.411165
      3          8           0        1.508822   -0.293479    0.067429
      4          8           0       -1.726735   -0.186474   -0.019816
      5          1           0       -1.811908    0.539757    0.606344
 ---------------------------------------------------------------------
 Rotational constants (GHZ):     86.5601547      5.4169457      5.1670470
 Standard basis: 6-31+G(d,p) (6D, 7F)
 There are    67 symmetry adapted basis functions of A   symmetry.
 Integral buffers will be    262144 words long.
 Raffenetti 2 integral format.
 Two-electron integral symmetry is turned on.
    67 basis functions,   110 primitive gaussians,    67 cartesian basis functions
    13 alpha electrons       13 beta electrons
       nuclear repulsion energy        69.2746676168 Hartrees.
 NAtoms=    5 NActive=    5 NUniq=    5 SFac= 7.50D-01 NAtFMM=   80 NAOKFM=F Big=F
 One-electron integrals computed using PRISM.
 NBasis=    67 RedAO= T  NBF=    67
 NBsUse=    67 1.00D-06 NBFU=    67
 Initial guess read from the read-write file.
 B after Tr=     0.000000    0.000000    0.000000
         Rot=    1.000000    0.000000    0.000000    0.000000 Ang=   0.00 deg.
 Initial guess orbital symmetries:
       Occupied  (A) (A) (A) (A) (A) (A) (A) (A) (A) (A) (A) (A)
                 (A)
       Virtual   (A) (A) (A) (A) (A) (A) (A) (A) (A) (A) (A) (A)
                 (A) (A) (A) (A) (A) (A) (A) (A) (A) (A) (A) (A)
                 (A) (A) (A) (A) (A) (A) (A) (A) (A) (A) (A) (A)
                 (A) (A) (A) (A) (A) (A) (A) (A) (A) (A) (A) (A)
                 (A) (A) (A) (A) (A) (A)
 Harris functional with IExCor= 1009 diagonalized for initial guess.
 ExpMin= 8.45D-02 ExpMax= 5.48D+03 ExpMxC= 8.25D+02 IAcc=2 IRadAn=         0 AccDes= 0.00D+00
 HarFok:  IExCor= 1009 AccDes= 0.00D+00 IRadAn=         0 IDoV= 1
 ScaDFX=  1.000000  1.000000  1.000000  1.000000
 FoFCou: FMM=F IPFlag=           0 FMFlag=      100000 FMFlg1=           0
         NFxFlg=           0 DoJE=T BraDBF=F KetDBF=T FulRan=T
         Omega=  0.000000  0.000000  1.000000  0.000000  0.000000 ICntrl=     500 IOpCl=  0
         NMat0=    1 NMatS0=    1 NMatT0=    0 NMatD0=    1 NMtDS0=    0 NMtDT0=    0
         I1Cent=           4 NGrid=           0.
 Petite list used in FoFCou.
 Requested convergence on RMS density matrix=1.00D-08 within 128 cycles.
 Requested convergence on MAX density matrix=1.00D-06.
 Requested convergence on             energy=1.00D-06.
 No special actions if energy rises.
 Keep R1 ints in memory in canonical form, NReq=3551229.
 Integral accuracy reduced to 1.0D-05 until final iterations.
 Initial convergence to 1.0D-05 achieved.  Increase integral accuracy.
 SCF Done:  E(RM062X) =  -226.582470097     A.U. after   27 cycles
             Convg  =    0.4022D-09             -V/T =  2.0081
 Calling FoFJK, ICntrl=      2127 FMM=F ISym2X=0 I1Cent= 0 IOpClX= 0 NMat=1 NMatS=1 NMatT=0.
 ***** Axes restored to original set *****
 -------------------------------------------------------------------
 Center     Atomic                   Forces (Hartrees/Bohr)
 Number     Number              X              Y              Z
 -------------------------------------------------------------------
      1        8           0.028120807   -0.014787033    0.036976363
      2        1          -0.025593728    0.001248664   -0.048551610
      3        8          -0.019778896    0.005339380   -0.006958315
      4        8           0.017815198    0.007536653    0.018281134
      5        1          -0.000563381    0.000662336    0.000252428
 -------------------------------------------------------------------
 Cartesian Forces:  Max     0.048551610 RMS     0.020925070

 GradGradGradGradGradGradGradGradGradGradGradGradGradGradGradGradGradGrad
 Berny optimization.
 Internal  Forces:  Max     0.032313119 RMS     0.016153038
 Search for a saddle point.
 Step number   6 out of a maximum of   20
 All quantities printed in internal units (Hartrees-Bohrs-Radians)
 Swaping is turned off.
 Update second derivatives using D2CorX and points    3    4    5    6
 The second derivative matrix:
                          R1        R2        R3        R4        A1
           R1           0.03899
           R2           0.01841   0.61254
           R3           0.05907   0.01580   0.21402
           R4           0.00071  -0.00308  -0.00665   0.56653
           A1          -0.00699   0.00204  -0.00198   0.00018   0.04236
           A2           0.01641  -0.00639   0.01255   0.01747  -0.00300
           A3           0.01367   0.02569   0.05732  -0.00056   0.01012
           A4           0.00210   0.00571   0.02488   0.00012   0.00815
           D1          -0.00565  -0.00353   0.00260   0.00033  -0.00294
                          A2        A3        A4        D1
           A2           0.11876
           A3          -0.00275   0.00516
           A4          -0.00109  -0.00455   0.00523
           D1           0.00553  -0.01084  -0.00509   0.00672
     Eigenvalues ---   -0.02351   0.00690   0.00815   0.02187   0.04702
     Eigenvalues ---    0.11852   0.24859   0.56705   0.61573
 Eigenvectors required to have negative eigenvalues:
                          A3        A4        D1        R3        A1
   1                    0.75724   0.44716   0.36289  -0.25343  -0.15318
                          R1        R2        A2        R4
   1                    0.07931  -0.02797   0.01303  -0.00301
 RFO step:  Lambda0=1.089490025D-02 Lambda=-2.91490842D-02.
 Linear search not attempted -- option 19 set.
 Maximum step size (   0.300) exceeded in Quadratic search.
    -- Step size scaled by   0.320
 Iteration  1 RMS(Cart)=  0.11620332 RMS(Int)=  0.01016641
 Iteration  2 RMS(Cart)=  0.00896593 RMS(Int)=  0.00002522
 Iteration  3 RMS(Cart)=  0.00002126 RMS(Int)=  0.00000000
 Iteration  4 RMS(Cart)=  0.00000000 RMS(Int)=  0.00000000
 Variable       Old X    -DE/DX   Delta X   Delta X   Delta X     New X
                                 (Linear)    (Quad)   (Total)
    R1        2.78887   0.03231   0.00000   0.20393   0.20393   2.99280
    R2        2.29239  -0.02156   0.00000  -0.01004  -0.01004   2.28235
    R3        1.92796  -0.02599   0.00000  -0.02895  -0.02895   1.89901
    R4        1.81919   0.00007   0.00000  -0.00002  -0.00002   1.81917
    A1        2.12461  -0.00041   0.00000   0.05970   0.05970   2.18431
    A2        1.85285  -0.00041   0.00000  -0.02013  -0.02013   1.83272
    A3        2.48044   0.01229   0.00000  -0.13863  -0.13863   2.34181
    A4        3.42229   0.00254   0.00000  -0.10943  -0.10943   3.31286
    D1        2.26318  -0.00246   0.00000  -0.11097  -0.11097   2.15222
         Item               Value     Threshold  Converged?
 Maximum Force            0.032313     0.000450     NO 
 RMS     Force            0.016153     0.000300     NO 
 Maximum Displacement     0.180587     0.001800     NO 
 RMS     Displacement     0.116779     0.001200     NO 
 Predicted change in Energy=-5.565181D-03
 GradGradGradGradGradGradGradGradGradGradGradGradGradGradGradGradGradGrad

                          Input orientation:                          
 ---------------------------------------------------------------------
 Center     Atomic      Atomic             Coordinates (Angstroms)
 Number     Number       Type             X           Y           Z
 ---------------------------------------------------------------------
      1          8           0       -0.811413   -0.418326   -0.387951
      2          1           0       -1.007483    0.211481   -1.827766
      3          8           0        0.238778   -0.808506    0.063227
      4          8           0       -1.589804   -0.023959   -2.612189
      5          1           0       -2.233231   -0.650641   -2.265784
 ---------------------------------------------------------------------
                    Distance matrix (angstroms):
                    1          2          3          4          5
     1  O    0.000000
     2  H    1.583719   0.000000
     3  O    1.207768   2.483826   0.000000
     4  O    2.389278   1.004913   3.334228   0.000000
     5  H    2.366810   1.561273   3.400006   0.962665   0.000000
 Stoichiometry    H2O3
 Framework group  C1[X(H2O3)]
 Deg. of freedom     9
 Full point group                 C1      NOp   1
 Largest Abelian subgroup         C1      NOp   1
 Largest concise Abelian subgroup C1      NOp   1
                         Standard orientation:                         
 ---------------------------------------------------------------------
 Center     Atomic      Atomic             Coordinates (Angstroms)
 Number     Number       Type             X           Y           Z
 ---------------------------------------------------------------------
      1          8           0        0.546412    0.382371   -0.095402
      2          1           0       -0.874436   -0.224943   -0.442574
      3          8           0        1.553585   -0.260767    0.079754
      4          8           0       -1.778078   -0.163188   -0.007295
      5          1           0       -1.700916    0.557612    0.626122
 ---------------------------------------------------------------------
 Rotational constants (GHZ):    100.2062540      5.1415602      4.9651786
 Standard basis: 6-31+G(d,p) (6D, 7F)
 There are    67 symmetry adapted basis functions of A   symmetry.
 Integral buffers will be    262144 words long.
 Raffenetti 2 integral format.
 Two-electron integral symmetry is turned on.
    67 basis functions,   110 primitive gaussians,    67 cartesian basis functions
    13 alpha electrons       13 beta electrons
       nuclear repulsion energy        68.7339787455 Hartrees.
 NAtoms=    5 NActive=    5 NUniq=    5 SFac= 7.50D-01 NAtFMM=   80 NAOKFM=F Big=F
 One-electron integrals computed using PRISM.
 NBasis=    67 RedAO= T  NBF=    67
 NBsUse=    67 1.00D-06 NBFU=    67
 Initial guess read from the read-write file.
 B after Tr=     0.000000    0.000000    0.000000
         Rot=    1.000000    0.000000    0.000000    0.000000 Ang=   0.00 deg.
 Initial guess orbital symmetries:
       Occupied  (A) (A) (A) (A) (A) (A) (A) (A) (A) (A) (A) (A)
                 (A)
       Virtual   (A) (A) (A) (A) (A) (A) (A) (A) (A) (A) (A) (A)
                 (A) (A) (A) (A) (A) (A) (A) (A) (A) (A) (A) (A)
                 (A) (A) (A) (A) (A) (A) (A) (A) (A) (A) (A) (A)
                 (A) (A) (A) (A) (A) (A) (A) (A) (A) (A) (A) (A)
                 (A) (A) (A) (A) (A) (A)
 Harris functional with IExCor= 1009 diagonalized for initial guess.
 ExpMin= 8.45D-02 ExpMax= 5.48D+03 ExpMxC= 8.25D+02 IAcc=2 IRadAn=         0 AccDes= 0.00D+00
 HarFok:  IExCor= 1009 AccDes= 0.00D+00 IRadAn=         0 IDoV= 1
 ScaDFX=  1.000000  1.000000  1.000000  1.000000
 FoFCou: FMM=F IPFlag=           0 FMFlag=      100000 FMFlg1=           0
         NFxFlg=           0 DoJE=T BraDBF=F KetDBF=T FulRan=T
         Omega=  0.000000  0.000000  1.000000  0.000000  0.000000 ICntrl=     500 IOpCl=  0
         NMat0=    1 NMatS0=    1 NMatT0=    0 NMatD0=    1 NMtDS0=    0 NMtDT0=    0
         I1Cent=           4 NGrid=           0.
 Petite list used in FoFCou.
 Requested convergence on RMS density matrix=1.00D-08 within 128 cycles.
 Requested convergence on MAX density matrix=1.00D-06.
 Requested convergence on             energy=1.00D-06.
 No special actions if energy rises.
 Keep R1 ints in memory in canonical form, NReq=3551229.
 Integral accuracy reduced to 1.0D-05 until final iterations.
 Initial convergence to 1.0D-05 achieved.  Increase integral accuracy.
 SCF Done:  E(RM062X) =  -226.587501824     A.U. after   21 cycles
             Convg  =    0.2658D-08             -V/T =  2.0081
 Calling FoFJK, ICntrl=      2127 FMM=F ISym2X=0 I1Cent= 0 IOpClX= 0 NMat=1 NMatS=1 NMatT=0.
 ***** Axes restored to original set *****
 -------------------------------------------------------------------
 Center     Atomic                   Forces (Hartrees/Bohr)
 Number     Number              X              Y              Z
 -------------------------------------------------------------------
      1        8           0.020745026   -0.012085410    0.031483596
      2        1          -0.024382999    0.000338584   -0.039340188
      3        8          -0.013269524    0.003794758   -0.006080439
      4        8           0.018158578    0.007489355    0.014838363
      5        1          -0.001251080    0.000462712   -0.000901332
 -------------------------------------------------------------------
 Cartesian Forces:  Max     0.039340188 RMS     0.017408755

 GradGradGradGradGradGradGradGradGradGradGradGradGradGradGradGradGradGrad
 Berny optimization.
 Internal  Forces:  Max     0.027467591 RMS     0.013797609
 Search for a saddle point.
 Step number   7 out of a maximum of   20
 All quantities printed in internal units (Hartrees-Bohrs-Radians)
 Swaping is turned off.
 Update second derivatives using D2CorX and points    4    5    6    7
 The second derivative matrix:
                          R1        R2        R3        R4        A1
           R1           0.03938
           R2           0.01833   0.61255
           R3           0.06396   0.01552   0.21620
           R4           0.00044  -0.00306  -0.00674   0.56654
           A1          -0.00507   0.00190   0.00058   0.00003   0.04400
           A2           0.01157  -0.00596   0.01164   0.01759  -0.00561
           A3           0.00782   0.02601   0.04900  -0.00010   0.00525
           A4           0.00048   0.00601   0.02316   0.00029   0.00627
           D1          -0.00470  -0.00331   0.00313   0.00038  -0.00336
                          A2        A3        A4        D1
           A2           0.12139
           A3           0.00492   0.01963
           A4           0.00282   0.00098   0.00774
           D1           0.00800  -0.00964  -0.00437   0.00661
     Eigenvalues ---   -0.01057   0.00795   0.01581   0.02122   0.04703
     Eigenvalues ---    0.12023   0.24957   0.56708   0.61572
 Eigenvectors required to have negative eigenvalues:
                          D1        A3        A4        R1        R3
   1                    0.57220   0.54253   0.45607   0.31253  -0.25418
                          A2        A1        R2        R4
   1                   -0.07258  -0.04413  -0.02744  -0.00165
 RFO step:  Lambda0=1.784241766D-02 Lambda=-2.21686085D-02.
 Linear search not attempted -- option 19 set.
 Maximum step size (   0.300) exceeded in Quadratic search.
    -- Step size scaled by   0.280
 Iteration  1 RMS(Cart)=  0.07678489 RMS(Int)=  0.01384748
 Iteration  2 RMS(Cart)=  0.01441503 RMS(Int)=  0.00018456
 Iteration  3 RMS(Cart)=  0.00015584 RMS(Int)=  0.00000002
 Iteration  4 RMS(Cart)=  0.00000002 RMS(Int)=  0.00000000
 Variable       Old X    -DE/DX   Delta X   Delta X   Delta X     New X
                                 (Linear)    (Quad)   (Total)
    R1        2.99280   0.02747   0.00000   0.07728   0.07728   3.07008
    R2        2.28235  -0.01504   0.00000  -0.00469  -0.00469   2.27766
    R3        1.89901  -0.02274   0.00000  -0.00494  -0.00494   1.89407
    R4        1.81917   0.00018   0.00000  -0.00049  -0.00049   1.81868
    A1        2.18431  -0.00104   0.00000   0.01719   0.01719   2.20150
    A2        1.83272   0.00217   0.00000   0.02235   0.02235   1.85507
    A3        2.34181   0.01392   0.00000  -0.08435  -0.08435   2.25747
    A4        3.31286   0.00336   0.00000  -0.13830  -0.13830   3.17456
    D1        2.15222  -0.00216   0.00000  -0.23863  -0.23863   1.91359
         Item               Value     Threshold  Converged?
 Maximum Force            0.027468     0.000450     NO 
 RMS     Force            0.013798     0.000300     NO 
 Maximum Displacement     0.099837     0.001800     NO 
 RMS     Displacement     0.085900     0.001200     NO 
 Predicted change in Energy=-1.052663D-03
 GradGradGradGradGradGradGradGradGradGradGradGradGradGradGradGradGradGrad

                          Input orientation:                          
 ---------------------------------------------------------------------
 Center     Atomic      Atomic             Coordinates (Angstroms)
 Number     Number       Type             X           Y           Z
 ---------------------------------------------------------------------
      1          8           0       -0.805856   -0.376778   -0.387116
      2          1           0       -0.987579    0.253290   -1.873510
      3          8           0        0.203229   -0.859403    0.061808
      4          8           0       -1.630900   -0.003588   -2.597911
      5          1           0       -2.182046   -0.703473   -2.233733
 ---------------------------------------------------------------------
                    Distance matrix (angstroms):
                    1          2          3          4          5
     1  O    0.000000
     2  H    1.624616   0.000000
     3  O    1.205284   2.530131   0.000000
     4  O    2.389056   1.002300   3.342238   0.000000
     5  H    2.326076   1.572230   3.314115   0.962407   0.000000
 Stoichiometry    H2O3
 Framework group  C1[X(H2O3)]
 Deg. of freedom     9
 Full point group                 C1      NOp   1
 Largest Abelian subgroup         C1      NOp   1
 Largest concise Abelian subgroup C1      NOp   1
                         Standard orientation:                         
 ---------------------------------------------------------------------
 Center     Atomic      Atomic             Coordinates (Angstroms)
 Number     Number       Type             X           Y           Z
 ---------------------------------------------------------------------
      1          8           0        0.545922    0.378628   -0.091745
      2          1           0       -0.909155   -0.218418   -0.498762
      3          8           0        1.554552   -0.259601    0.075706
      4          8           0       -1.784370   -0.142544   -0.016219
      5          1           0       -1.619669    0.406556    0.756820
 ---------------------------------------------------------------------
 Rotational constants (GHZ):    101.9208412      5.1204079      4.9705132
 Standard basis: 6-31+G(d,p) (6D, 7F)
 There are    67 symmetry adapted basis functions of A   symmetry.
 Integral buffers will be    262144 words long.
 Raffenetti 2 integral format.
 Two-electron integral symmetry is turned on.
    67 basis functions,   110 primitive gaussians,    67 cartesian basis functions
    13 alpha electrons       13 beta electrons
       nuclear repulsion energy        68.7436521264 Hartrees.
 NAtoms=    5 NActive=    5 NUniq=    5 SFac= 7.50D-01 NAtFMM=   80 NAOKFM=F Big=F
 One-electron integrals computed using PRISM.
 NBasis=    67 RedAO= T  NBF=    67
 NBsUse=    67 1.00D-06 NBFU=    67
 Initial guess read from the read-write file.
 B after Tr=     0.000000    0.000000    0.000000
         Rot=    1.000000    0.000000    0.000000    0.000000 Ang=   0.00 deg.
 Initial guess orbital symmetries:
       Occupied  (A) (A) (A) (A) (A) (A) (A) (A) (A) (A) (A) (A)
                 (A)
       Virtual   (A) (A) (A) (A) (A) (A) (A) (A) (A) (A) (A) (A)
                 (A) (A) (A) (A) (A) (A) (A) (A) (A) (A) (A) (A)
                 (A) (A) (A) (A) (A) (A) (A) (A) (A) (A) (A) (A)
                 (A) (A) (A) (A) (A) (A) (A) (A) (A) (A) (A) (A)
                 (A) (A) (A) (A) (A) (A)
 Harris functional with IExCor= 1009 diagonalized for initial guess.
 ExpMin= 8.45D-02 ExpMax= 5.48D+03 ExpMxC= 8.25D+02 IAcc=2 IRadAn=         0 AccDes= 0.00D+00
 HarFok:  IExCor= 1009 AccDes= 0.00D+00 IRadAn=         0 IDoV= 1
 ScaDFX=  1.000000  1.000000  1.000000  1.000000
 FoFCou: FMM=F IPFlag=           0 FMFlag=      100000 FMFlg1=           0
         NFxFlg=           0 DoJE=T BraDBF=F KetDBF=T FulRan=T
         Omega=  0.000000  0.000000  1.000000  0.000000  0.000000 ICntrl=     500 IOpCl=  0
         NMat0=    1 NMatS0=    1 NMatT0=    0 NMatD0=    1 NMtDS0=    0 NMtDT0=    0
         I1Cent=           4 NGrid=           0.
 Petite list used in FoFCou.
 Requested convergence on RMS density matrix=1.00D-08 within 128 cycles.
 Requested convergence on MAX density matrix=1.00D-06.
 Requested convergence on             energy=1.00D-06.
 No special actions if energy rises.
 Keep R1 ints in memory in canonical form, NReq=3551229.
 Integral accuracy reduced to 1.0D-05 until final iterations.
 Initial convergence to 1.0D-05 achieved.  Increase integral accuracy.
 SCF Done:  E(RM062X) =  -226.588535274     A.U. after   27 cycles
             Convg  =    0.2183D-08             -V/T =  2.0081
 Calling FoFJK, ICntrl=      2127 FMM=F ISym2X=0 I1Cent= 0 IOpClX= 0 NMat=1 NMatS=1 NMatT=0.
 ***** Axes restored to original set *****
 -------------------------------------------------------------------
 Center     Atomic                   Forces (Hartrees/Bohr)
 Number     Number              X              Y              Z
 -------------------------------------------------------------------
      1        8           0.016582542   -0.011011833    0.028968444
      2        1          -0.026529284   -0.002233485   -0.035594528
      3        8          -0.009248733    0.003414164   -0.004458432
      4        8           0.019598893    0.008996957    0.010609879
      5        1          -0.000403418    0.000834197    0.000474637
 -------------------------------------------------------------------
[...]
                                                     19
 The second derivative matrix:
                          R1        R2        R3        R4        A1
           R1           0.01313
           R2          -0.00359   0.64165
           R3          -0.00982   0.02735   0.30553
           R4          -0.00046  -0.00256  -0.00682   0.56647
           A1          -0.01147   0.00531   0.00863   0.00009   0.04429
           A2           0.00264   0.00139   0.02306   0.01777  -0.00472
           A3           0.00730  -0.00525   0.01283  -0.00100   0.00381
           A4          -0.00140   0.02406  -0.00158  -0.00020   0.00401
           D1          -0.00052  -0.01218  -0.00674  -0.00040   0.00182
                          A2        A3        A4        D1
           A2           0.12378
           A3          -0.00084   0.02645
           A4          -0.00271   0.00732   0.00466
           D1           0.00340  -0.00678  -0.00589   0.00953
     Eigenvalues ---   -0.00084   0.00400   0.01070   0.03324   0.04751
     Eigenvalues ---    0.12106   0.30736   0.56719   0.64526
 Eigenvectors required to have negative eigenvalues:
                          A4        D1        A3        R1        R3
   1                    0.87965   0.35867  -0.22168   0.21471   0.03199
                          R2        A1        A2        R4
   1                   -0.02793  -0.02240  -0.00325   0.00071
 RFO step:  Lambda0=6.873638564D-04 Lambda=-4.95891761D-04.
 Linear search not attempted -- option 19 set.
 Maximum step size (   0.300) exceeded in Quadratic search.
    -- Step size scaled by   0.429
 Iteration  1 RMS(Cart)=  0.08562770 RMS(Int)=  0.02908438
 Iteration  2 RMS(Cart)=  0.02874201 RMS(Int)=  0.00160619
 Iteration  3 RMS(Cart)=  0.00128863 RMS(Int)=  0.00000194
 Iteration  4 RMS(Cart)=  0.00000189 RMS(Int)=  0.00000000
 Iteration  5 RMS(Cart)=  0.00000000 RMS(Int)=  0.00000000
 Variable       Old X    -DE/DX   Delta X   Delta X   Delta X     New X
                                 (Linear)    (Quad)   (Total)
    R1        4.17305   0.00162   0.00000   0.01281   0.01281   4.18585
    R2        2.25277   0.00765   0.00000   0.01426   0.01426   2.26704
    R3        1.81236   0.00413   0.00000  -0.00174  -0.00174   1.81062
    R4        1.81858  -0.00003   0.00000  -0.00005  -0.00005   1.81853
    A1        2.43112   0.00058   0.00000   0.03149   0.03149   2.46261
    A2        1.84234   0.00078   0.00000   0.00049   0.00049   1.84283
    A3        2.13219   0.00021   0.00000   0.05568   0.05568   2.18788
    A4        3.36704   0.00055   0.00000  -0.27913  -0.27913   3.08791
    D1        1.62627   0.00094   0.00000  -0.08730  -0.08730   1.53897
         Item               Value     Threshold  Converged?
 Maximum Force            0.007648     0.000450     NO 
 RMS     Force            0.002988     0.000300     NO 
 Maximum Displacement     0.146668     0.001800     NO 
 RMS     Displacement     0.107629     0.001200     NO 
 Predicted change in Energy= 9.112009D-05
 GradGradGradGradGradGradGradGradGradGradGradGradGradGradGradGradGradGrad

                          Input orientation:                          
 ---------------------------------------------------------------------
 Center     Atomic      Atomic             Coordinates (Angstroms)
 Number     Number       Type             X           Y           Z
 ---------------------------------------------------------------------
      1          8           0       -0.601300   -0.437109   -0.185228
      2          1           0       -1.117212    0.402249   -2.169112
      3          8           0        0.281377   -1.019563    0.381183
      4          8           0       -1.806485    0.072773   -2.747368
      5          1           0       -2.159532   -0.708301   -2.309938
 ---------------------------------------------------------------------
                    Distance matrix (angstroms):
                    1          2          3          4          5
     1  O    0.000000
     2  H    2.215058   0.000000
     3  O    1.199664   3.237531   0.000000
     4  O    2.876979   0.958140   3.916656   0.000000
     5  H    2.648777   1.529570   3.646512   0.962322   0.000000
 Stoichiometry    H2O3
 Framework group  C1[X(H2O3)]
 Deg. of freedom     9
 Full point group                 C1      NOp   1
 Largest Abelian subgroup         C1      NOp   1
 Largest concise Abelian subgroup C1      NOp   1
                         Standard orientation:                         
 ---------------------------------------------------------------------
 Center     Atomic      Atomic             Coordinates (Angstroms)
 Number     Number       Type             X           Y           Z
 ---------------------------------------------------------------------
      1          8           0        0.725025    0.310384    0.078562
      2          1           0       -1.376480    0.161179   -0.605464
      3          8           0        1.789804   -0.226548   -0.052370
      4          8           0       -2.123718   -0.069896   -0.052045
      5          1           0       -1.752411   -0.272694    0.812286
 ---------------------------------------------------------------------
 Rotational constants (GHZ):    134.5085888      3.6689329      3.6302343
 Standard basis: 6-31+G(d,p) (6D, 7F)
 There are    67 symmetry adapted basis functions of A   symmetry.
 Integral buffers will be    262144 words long.
 Raffenetti 2 integral format.
 Two-electron integral symmetry is turned on.
    67 basis functions,   110 primitive gaussians,    67 cartesian basis functions
    13 alpha electrons       13 beta electrons
       nuclear repulsion energy        63.7910485232 Hartrees.
 NAtoms=    5 NActive=    5 NUniq=    5 SFac= 7.50D-01 NAtFMM=   80 NAOKFM=F Big=F
 One-electron integrals computed using PRISM.
 NBasis=    67 RedAO= T  NBF=    67
 NBsUse=    67 1.00D-06 NBFU=    67
 Initial guess read from the read-write file.
 B after Tr=     0.000000    0.000000    0.000000
         Rot=    1.000000    0.000000    0.000000    0.000000 Ang=   0.00 deg.
 Initial guess orbital symmetries:
       Occupied  (A) (A) (A) (A) (A) (A) (A) (A) (A) (A) (A) (A)
                 (A)
       Virtual   (A) (A) (A) (A) (A) (A) (A) (A) (A) (A) (A) (A)
                 (A) (A) (A) (A) (A) (A) (A) (A) (A) (A) (A) (A)
                 (A) (A) (A) (A) (A) (A) (A) (A) (A) (A) (A) (A)
                 (A) (A) (A) (A) (A) (A) (A) (A) (A) (A) (A) (A)
                 (A) (A) (A) (A) (A) (A)
 Harris functional with IExCor= 1009 diagonalized for initial guess.
 ExpMin= 8.45D-02 ExpMax= 5.48D+03 ExpMxC= 8.25D+02 IAcc=2 IRadAn=         0 AccDes= 0.00D+00
 HarFok:  IExCor= 1009 AccDes= 0.00D+00 IRadAn=         0 IDoV= 1
 ScaDFX=  1.000000  1.000000  1.000000  1.000000
 FoFCou: FMM=F IPFlag=           0 FMFlag=      100000 FMFlg1=           0
         NFxFlg=           0 DoJE=T BraDBF=F KetDBF=T FulRan=T
         Omega=  0.000000  0.000000  1.000000  0.000000  0.000000 ICntrl=     500 IOpCl=  0
         NMat0=    1 NMatS0=    1 NMatT0=    0 NMatD0=    1 NMtDS0=    0 NMtDT0=    0
         I1Cent=           4 NGrid=           0.
 Petite list used in FoFCou.
 Requested convergence on RMS density matrix=1.00D-08 within 128 cycles.
 Requested convergence on MAX density matrix=1.00D-06.
 Requested convergence on             energy=1.00D-06.
 No special actions if energy rises.
 Keep R1 ints in memory in canonical form, NReq=3551229.
 Integral accuracy reduced to 1.0D-05 until final iterations.
 Initial convergence to 1.0D-05 achieved.  Increase integral accuracy.
 SCF Done:  E(RM062X) =  -226.601059546     A.U. after   30 cycles
             Convg  =    0.3851D-08             -V/T =  2.0081
 Calling FoFJK, ICntrl=      2127 FMM=F ISym2X=0 I1Cent= 0 IOpClX= 0 NMat=1 NMatS=1 NMatT=0.
 ***** Axes restored to original set *****
 -------------------------------------------------------------------
 Center     Atomic                   Forces (Hartrees/Bohr)
 Number     Number              X              Y              Z
 -------------------------------------------------------------------
      1        8           0.004835522   -0.004211194    0.004063762
      2        1           0.003150274    0.002839535    0.001783171
      3        8          -0.004313247    0.003380234   -0.002781374
      4        8          -0.003014809   -0.002396613   -0.002961568
      5        1          -0.000657740    0.000388038   -0.000103992
 -------------------------------------------------------------------
 Cartesian Forces:  Max     0.004835522 RMS     0.003063346

 GradGradGradGradGradGradGradGradGradGradGradGradGradGradGradGradGradGrad
 Berny optimization.
 Internal  Forces:  Max     0.006133819 RMS     0.002780471
 Search for a saddle point.
 Step number  20 out of a maximum of   20
 All quantities printed in internal units (Hartrees-Bohrs-Radians)
 Swaping is turned off.
 Update second derivatives using D2CorX and points   14   15   18   19   20
 The second derivative matrix:
                          R1        R2        R3        R4        A1
           R1           0.01282
           R2           0.01504   0.64424
           R3          -0.01513   0.02596   0.30572
           R4          -0.00044  -0.00251  -0.00684   0.56647
           A1          -0.01170   0.01224   0.00701   0.00011   0.04394
           A2           0.00220   0.00101   0.02317   0.01777  -0.00489
           A3           0.00691   0.00651   0.00929  -0.00092   0.00376
           A4           0.00108  -0.00693   0.00694  -0.00051   0.00487
           D1           0.00047  -0.02017  -0.00441  -0.00053   0.00200
                          A2        A3        A4        D1
           A2           0.12379
           A3          -0.00118   0.02620
           A4          -0.00171   0.00816   0.00333
           D1           0.00371  -0.00639  -0.00597   0.00960
     Eigenvalues ---   -0.00235   0.00359   0.01052   0.03311   0.04728
     Eigenvalues ---    0.12106   0.30800   0.56720   0.64770
 Eigenvectors required to have negative eigenvalues:
                          A4        D1        R1        A1        A3
   1                    0.83006   0.47342  -0.23255  -0.16825  -0.05406
                          R2        R3        A2        R4
   1                    0.03364  -0.02054  -0.00228   0.00093
 RFO step:  Lambda0=2.787377162D-06 Lambda=-7.93423544D-04.
 Linear search not attempted -- option 19 set.
 Maximum step size (   0.300) exceeded in Quadratic search.
    -- Step size scaled by   0.877
 Iteration  1 RMS(Cart)=  0.08460007 RMS(Int)=  0.01635951
 Iteration  2 RMS(Cart)=  0.01473121 RMS(Int)=  0.00002968
 Iteration  3 RMS(Cart)=  0.00004173 RMS(Int)=  0.00000000
 Iteration  4 RMS(Cart)=  0.00000000 RMS(Int)=  0.00000000
 Variable       Old X    -DE/DX   Delta X   Delta X   Delta X     New X
                                 (Linear)    (Quad)   (Total)
    R1        4.18585   0.00154   0.00000   0.24932   0.24932   4.43518
    R2        2.26704  -0.00613   0.00000  -0.01393  -0.01393   2.25311
    R3        1.81062   0.00529   0.00000   0.02804   0.02804   1.83866
    R4        1.81853  -0.00012   0.00000   0.00025   0.00025   1.81878
    A1        2.46261   0.00051   0.00000   0.07079   0.07079   2.53340
    A2        1.84283   0.00079   0.00000  -0.00122  -0.00122   1.84161
    A3        2.18788   0.00019   0.00000  -0.10200  -0.10200   2.08587
    A4        3.08791   0.00045   0.00000   0.10564   0.10564   3.19354
    D1        1.53897   0.00068   0.00000   0.01677   0.01677   1.55574
         Item               Value     Threshold  Converged?
 Maximum Force            0.006134     0.000450     NO 
 RMS     Force            0.002780     0.000300     NO 
 Maximum Displacement     0.144483     0.001800     NO 
 RMS     Displacement     0.094111     0.001200     NO 
 Predicted change in Energy=-4.246473D-04
 Optimization stopped.
    -- Number of steps exceeded,  NStep=  20
    -- Flag reset to prevent archiving.
                           ----------------------------
                           ! Non-Optimized Parameters !
                           ! (Angstroms and Degrees)  !
 --------------------------                            --------------------------
 ! Name  Definition              Value          Derivative Info.                !
 --------------------------------------------------------------------------------
 ! R1    R(1,2)                  2.347          -DE/DX =    0.0015              !
 ! R2    R(1,3)                  1.1923         -DE/DX =   -0.0061              !
 ! R3    R(2,4)                  0.973          -DE/DX =    0.0053              !
 ! R4    R(4,5)                  0.9625         -DE/DX =   -0.0001              !
 ! A1    A(2,1,3)              145.1532         -DE/DX =    0.0005              !
 ! A2    A(2,4,5)              105.5163         -DE/DX =    0.0008              !
 ! A3    L(1,2,4,5,-1)         119.5117         -DE/DX =    0.0002              !
 ! A4    L(1,2,4,5,-2)         182.9765         -DE/DX =    0.0004              !
 ! D1    D(3,1,4,5)             89.1371         -DE/DX =    0.0007              !
 --------------------------------------------------------------------------------
 GradGradGradGradGradGradGradGradGradGradGradGradGradGradGradGradGradGrad

                          Input orientation:                          
 ---------------------------------------------------------------------
 Center     Atomic      Atomic             Coordinates (Angstroms)
 Number     Number       Type             X           Y           Z
 ---------------------------------------------------------------------
      1          8           0       -0.601300   -0.437109   -0.185228
      2          1           0       -1.117212    0.402249   -2.169112
      3          8           0        0.281377   -1.019563    0.381183
      4          8           0       -1.806485    0.072773   -2.747368
      5          1           0       -2.159532   -0.708301   -2.309938
 ---------------------------------------------------------------------
                    Distance matrix (angstroms):
                    1          2          3          4          5
     1  O    0.000000
     2  H    2.215058   0.000000
     3  O    1.199664   3.237531   0.000000
     4  O    2.876979   0.958140   3.916656   0.000000
     5  H    2.648777   1.529570   3.646512   0.962322   0.000000
 Stoichiometry    H2O3
 Framework group  C1[X(H2O3)]
 Deg. of freedom     9
 Full point group                 C1      NOp   1
 Largest Abelian subgroup         C1      NOp   1
 Largest concise Abelian subgroup C1      NOp   1
                         Standard orientation:                         
 ---------------------------------------------------------------------
 Center     Atomic      Atomic             Coordinates (Angstroms)
 Number     Number       Type             X           Y           Z
 ---------------------------------------------------------------------
      1          8           0        0.725025    0.310384    0.078562
      2          1           0       -1.376480    0.161179   -0.605464
      3          8           0        1.789804   -0.226548   -0.052370
      4          8           0       -2.123718   -0.069896   -0.052045
      5          1           0       -1.752411   -0.272694    0.812286
 ---------------------------------------------------------------------
 Rotational constants (GHZ):    134.5085888      3.6689329      3.6302343

 **********************************************************************

            Population analysis using the SCF density.

 **********************************************************************

 Orbital symmetries:
       Occupied  (A) (A) (A) (A) (A) (A) (A) (A) (A) (A) (A) (A)
                 (A)
       Virtual   (A) (A) (A) (A) (A) (A) (A) (A) (A) (A) (A) (A)
                 (A) (A) (A) (A) (A) (A) (A) (A) (A) (A) (A) (A)
                 (A) (A) (A) (A) (A) (A) (A) (A) (A) (A) (A) (A)
                 (A) (A) (A) (A) (A) (A) (A) (A) (A) (A) (A) (A)
                 (A) (A) (A) (A) (A) (A)
 The electronic state is 1-A.
 Alpha  occ. eigenvalues --  -19.83667 -19.83596 -19.64851  -1.45469  -1.13449
 Alpha  occ. eigenvalues --   -0.94037  -0.65086  -0.64528  -0.62389  -0.60904
 Alpha  occ. eigenvalues --   -0.46659  -0.39559  -0.36459
 Alpha virt. eigenvalues --   -0.14195   0.06910   0.09505   0.11520   0.12420
 Alpha virt. eigenvalues --    0.15827   0.17088   0.18312   0.21332   0.22992
 Alpha virt. eigenvalues --    0.24169   0.27771   0.29438   0.32633   0.35358
 Alpha virt. eigenvalues --    0.37223   1.00192   1.00785   1.07387   1.10378
 Alpha virt. eigenvalues --    1.11083   1.13086   1.16219   1.16921   1.18333
 Alpha virt. eigenvalues --    1.19541   1.20595   1.27641   1.36076   1.53932
 Alpha virt. eigenvalues --    1.55735   1.56119   1.56560   1.57503   1.61815
 Alpha virt. eigenvalues --    1.69773   1.72948   1.96189   1.96967   2.29579
 Alpha virt. eigenvalues --    2.31836   2.53737   2.57524   2.60274   2.63191
 Alpha virt. eigenvalues --    2.67670   2.69137   2.95821   3.10824   3.40084
 Alpha virt. eigenvalues --    3.59184   3.67599   3.96711   4.08287
          Condensed to atoms (all electrons):
              1          2          3          4          5
     1  O    7.949846   0.012946   0.099342   0.022133   0.008670
     2  H    0.012946   0.358511   0.000523   0.271602  -0.022034
     3  O    0.099342   0.000523   7.851910  -0.010278   0.000600
     4  O    0.022133   0.271602  -0.010278   8.148479   0.271353
     5  H    0.008670  -0.022034   0.000600   0.271353   0.381542
 Mulliken atomic charges:
              1
     1  O   -0.092936
     2  H    0.378452
     3  O    0.057904
     4  O   -0.703289
     5  H    0.359869
 Sum of Mulliken atomic charges =   0.00000
 Mulliken charges with hydrogens summed into heavy atoms:
              1
     1  O   -0.092936
     3  O    0.057904
     4  O    0.035032
 Sum of Mulliken charges with hydrogens summed into heavy atoms =   0.00000
 Electronic spatial extent (au):  <R**2>=            304.5335
 Charge=              0.0000 electrons
 Dipole moment (field-independent basis, Debye):
    X=              2.2291    Y=              0.0312    Z=              0.5542  Tot=              2.2972
 Quadrupole moment (field-independent basis, Debye-Ang):
   XX=            -24.6668   YY=            -17.0140   ZZ=            -15.7579
   XY=              0.4927   XZ=             -1.7631   YZ=             -1.0949
 Traceless Quadrupole moment (field-independent basis, Debye-Ang):
   XX=             -5.5206   YY=              2.1322   ZZ=              3.3884
   XY=              0.4927   XZ=             -1.7631   YZ=             -1.0949
 Octapole moment (field-independent basis, Debye-Ang**2):
  XXX=             26.3718  YYY=              0.2793  ZZZ=              0.8533  XYY=              3.6328
  XXY=              1.1908  XXZ=              3.6720  XZZ=             -3.2394  YZZ=             -0.2306
  YYZ=              0.2527  XYZ=              1.4887
 Hexadecapole moment (field-independent basis, Debye-Ang**3):
 XXXX=           -360.9607 YYYY=            -18.4166 ZZZZ=            -15.2272 XXXY=              3.1047
 XXXZ=            -10.7161 YYYX=             -0.5055 YYYZ=             -0.6812 ZZZX=             -1.9964
 ZZZY=             -1.2052 XXYY=            -55.2191 XXZZ=            -49.2148 YYZZ=             -5.9445
 XXYZ=             -3.4683 YYXZ=             -0.6664 ZZXY=              0.7131
 N-N= 6.379104852316D+01 E-N=-6.618867911777D+02  KE= 2.247702109864D+02


 A MAN THINKING OR WORKING IS ALWAYS ALONE, 
 LET HIM BE WHERE HE WILL.

                                    -- THOREAU
 Error termination request processed by link 9999.
 Error termination via Lnk1e in C:\G09W\l9999.exe at Mon Feb 08 06:04:05 2021.
 Job cpu time:  0 days  0 hours  2 minutes  5.0 seconds.
 File lengths (MBytes):  RWF=      6 Int=      0 D2E=      0 Chk=      1 Scr=      1
