 Entering Link 1 = C:\G09W\l1.exe PID=      8796.
  
 Copyright (c) 1988,1990,1992,1993,1995,1998,2003,2009, Gaussian, Inc.
                  All Rights Reserved.
  
 This is part of the Gaussian(R) 09 program.  It is based on
 the Gaussian(R) 03 system (copyright 2003, Gaussian, Inc.),
 the Gaussian(R) 98 system (copyright 1998, Gaussian, Inc.),
 the Gaussian(R) 94 system (copyright 1995, Gaussian, Inc.),
 the Gaussian 92(TM) system (copyright 1992, Gaussian, Inc.),
 the Gaussian 90(TM) system (copyright 1990, Gaussian, Inc.),
 the Gaussian 88(TM) system (copyright 1988, Gaussian, Inc.),
 the Gaussian 86(TM) system (copyright 1986, Carnegie Mellon
 University), and the Gaussian 82(TM) system (copyright 1983,
 Carnegie Mellon University). Gaussian is a federally registered
 trademark of Gaussian, Inc.
  
 This software contains proprietary and confidential information,
 including trade secrets, belonging to Gaussian, Inc.
  
 This software is provided under written license and may be
 used, copied, transmitted, or stored only in accord with that
 written license.
  
 The following legend is applicable only to US Government
 contracts under FAR:
  
                    RESTRICTED RIGHTS LEGEND
  
 Use, reproduction and disclosure by the US Government is
 subject to restrictions as set forth in subparagraphs (a)
 and (c) of the Commercial Computer Software - Restricted
 Rights clause in FAR 52.227-19.
  
 Gaussian, Inc.
 340 Quinnipiac St., Bldg. 40, Wallingford CT 06492
  
  
 ---------------------------------------------------------------
 Warning -- This program may not be used in any manner that
 competes with the business of Gaussian, Inc. or will provide
 assistance to any competitor of Gaussian, Inc.  The licensee
 of this program is prohibited from giving any competitor of
 Gaussian, Inc. access to this program.  By using this program,
 the user acknowledges that Gaussian, Inc. is engaged in the
 business of creating and licensing software in the field of
 computational chemistry and represents and warrants to the
 licensee that it is not a competitor of Gaussian, Inc. and that
 it will not use this program in any manner prohibited above.
 ---------------------------------------------------------------
  

 Cite this work as:
 Gaussian 09, Revision A.02,
 M. J. Frisch, G. W. Trucks, H. B. Schlegel, G. E. Scuseria, 
 M. A. Robb, J. R. Cheeseman, G. Scalmani, V. Barone, B. Mennucci, 
 G. A. Petersson, H. Nakatsuji, M. Caricato, X. Li, H. P. Hratchian, 
 A. F. Izmaylov, J. Bloino, G. Zheng, J. L. Sonnenberg, M. Hada, 
 M. Ehara, K. Toyota, R. Fukuda, J. Hasegawa, M. Ishida, T. Nakajima, 
 Y. Honda, O. Kitao, H. Nakai, T. Vreven, J. A. Montgomery, Jr., 
 J. E. Peralta, F. Ogliaro, M. Bearpark, J. J. Heyd, E. Brothers, 
 K. N. Kudin, V. N. Staroverov, R. Kobayashi, J. Normand, 
 K. Raghavachari, A. Rendell, J. C. Burant, S. S. Iyengar, J. Tomasi, 
 M. Cossi, N. Rega, J. M. Millam, M. Klene, J. E. Knox, J. B. Cross, 
 V. Bakken, C. Adamo, J. Jaramillo, R. Gomperts, R. E. Stratmann, 
 O. Yazyev, A. J. Austin, R. Cammi, C. Pomelli, J. W. Ochterski, 
 R. L. Martin, K. Morokuma, V. G. Zakrzewski, G. A. Voth, 
 P. Salvador, J. J. Dannenberg, S. Dapprich, A. D. Daniels, 
 O. Farkas, J. B. Foresman, J. V. Ortiz, J. Cioslowski, 
 and D. J. Fox, Gaussian, Inc., Wallingford CT, 2009.
 
 ******************************************
 Gaussian 09:  IA32W-G09RevA.02 11-Jun-2009
                09-Feb-2021 
 ******************************************
 %chk=D:\Documents\rayGit\FQ\quimicaComputacional\proyecto\decompositionHydrogenP
 eroxide\descompositionByRadicals\gasPhase\step4\ts\Q2ST\ts\martes\top\backup\r\r
 3\ts.chk
 %mem=1500MB
 %nprocshared=4
 Will use up to    4 processors via shared memory.
 ----------------------------------------------------------------------
 # opt=(calcfc,ts,noeigen,maxcycles=100) freq=noraman 6-31+g(d,p) m062x
 ----------------------------------------------------------------------
 1/5=1,6=100,10=4,11=1,14=-1,18=20,26=3,38=1/1,3;
 2/9=110,12=2,17=6,18=5,40=1/2;
 3/5=1,6=6,7=111,11=2,16=1,25=1,30=1,71=2,74=-55/1,2,3;
 4//1;
 5/5=2,38=5/2;
 8/6=4,10=90,11=11/1;
 11/6=1,8=1,9=11,15=111,16=1/1,2,10;
 10/6=1,7=6,13=1/2;
 6/7=2,8=2,9=2,10=2,28=1/1;
 7/10=1,18=20,25=1/1,2,3,16;
 1/5=1,6=100,10=4,11=1,14=-1,18=20/3(2);
 2/9=110/2;
 99//99;
 2/9=110/2;
 3/5=1,6=6,7=111,11=2,16=1,25=1,30=1,71=1,74=-55/1,2,3;
 4/5=5,16=3/1;
 5/5=2,38=5/2;
 7//1,2,3,16;
 1/5=1,6=100,11=1,14=-1,18=20/3(-5);
 2/9=110/2;
 6/7=2,8=2,9=2,10=2,19=2,28=1/1;
 99/9=1/99;
 ------------
 ts OOH vs OH
 ------------
 Symbolic Z-matrix:
 Charge =  0 Multiplicity = 1
 O                    -2.42784   1.18873   0. 
 O                    -1.16932   0.7906    0. 
 H                     0.01113   0.85092   0. 
 O                     0.60434  -0.13544   0. 
 H                     0.81404  -1.04206   0. 
 

 GradGradGradGradGradGradGradGradGradGradGradGradGradGradGradGradGradGrad
 Berny optimization.
 Initialization pass.
                           ----------------------------
                           !    Initial Parameters    !
                           ! (Angstroms and Degrees)  !
 --------------------------                            --------------------------
 ! Name  Definition              Value          Derivative Info.                !
 --------------------------------------------------------------------------------
 ! R1    R(1,2)                  1.32           calculate D2E/DX2 analytically  !
 ! R2    R(2,3)                  1.182          calculate D2E/DX2 analytically  !
 ! R3    R(3,4)                  1.151          calculate D2E/DX2 analytically  !
 ! R4    R(4,5)                  0.9306         calculate D2E/DX2 analytically  !
 ! A1    A(1,2,3)              159.5204         calculate D2E/DX2 analytically  !
 ! A2    A(2,3,4)              118.0982         calculate D2E/DX2 analytically  !
 ! A3    A(3,4,5)              162.0            calculate D2E/DX2 analytically  !
 ! D1    D(1,2,3,4)            180.0            calculate D2E/DX2 analytically  !
 ! D2    D(2,3,4,5)              0.0            calculate D2E/DX2 analytically  !
 --------------------------------------------------------------------------------
 Trust Radius=3.00D-01 FncErr=1.00D-07 GrdErr=1.00D-06
 Number of steps in this run= 100 maximum allowed number of steps= 100.
 Search for a saddle point of order  1.
 GradGradGradGradGradGradGradGradGradGradGradGradGradGradGradGradGradGrad

                          Input orientation:                          
 ---------------------------------------------------------------------
 Center     Atomic      Atomic             Coordinates (Angstroms)
 Number     Number       Type             X           Y           Z
 ---------------------------------------------------------------------
      1          8           0       -2.427845    1.188726    0.000000
      2          8           0       -1.169316    0.790598    0.000000
      3          1           0        0.011132    0.850916    0.000000
      4          8           0        0.604342   -0.135442    0.000000
      5          1           0        0.814040   -1.042059    0.000000
 ---------------------------------------------------------------------
                    Distance matrix (angstroms):
                    1          2          3          4          5
     1  O    0.000000
     2  O    1.320000   0.000000
     3  H    2.462260   1.181988   0.000000
     4  O    3.308713   2.000853   1.151000   0.000000
     5  H    3.935254   2.700432   2.056214   0.930553   0.000000
 Stoichiometry    H2O3
 Framework group  CS[SG(H2O3)]
 Deg. of freedom     7
 Full point group                 CS      NOp   2
 Largest Abelian subgroup         CS      NOp   2
 Largest concise Abelian subgroup C1      NOp   1
                         Standard orientation:                         
 ---------------------------------------------------------------------
 Center     Atomic      Atomic             Coordinates (Angstroms)
 Number     Number       Type             X           Y           Z
 ---------------------------------------------------------------------
      1          8           0       -0.492363    1.587615    0.000000
      2          8           0        0.000000    0.362879    0.000000
      3          1           0        0.796720   -0.510238    0.000000
      4          8           0        0.412105   -1.595075    0.000000
      5          1           0       -0.154654   -2.333121    0.000000
 ---------------------------------------------------------------------
 Rotational constants (GHZ):    424.4220236      5.3329469      5.2667689
 Standard basis: 6-31+G(d,p) (6D, 7F)
 There are    50 symmetry adapted basis functions of A'  symmetry.
 There are    17 symmetry adapted basis functions of A"  symmetry.
 Integral buffers will be    262144 words long.
 Raffenetti 2 integral format.
 Two-electron integral symmetry is turned on.
    67 basis functions,   110 primitive gaussians,    67 cartesian basis functions
    13 alpha electrons       13 beta electrons
       nuclear repulsion energy        69.2484579372 Hartrees.
 NAtoms=    5 NActive=    5 NUniq=    5 SFac= 7.50D-01 NAtFMM=   80 NAOKFM=F Big=F
 One-electron integrals computed using PRISM.
 NBasis=    67 RedAO= T  NBF=    50    17
 NBsUse=    67 1.00D-06 NBFU=    50    17
 Harris functional with IExCor= 1009 diagonalized for initial guess.
 ExpMin= 8.45D-02 ExpMax= 5.48D+03 ExpMxC= 8.25D+02 IAcc=2 IRadAn=         0 AccDes= 0.00D+00
 HarFok:  IExCor= 1009 AccDes= 0.00D+00 IRadAn=         0 IDoV= 1
 ScaDFX=  1.000000  1.000000  1.000000  1.000000
 FoFCou: FMM=F IPFlag=           0 FMFlag=      100000 FMFlg1=           0
         NFxFlg=           0 DoJE=T BraDBF=F KetDBF=T FulRan=T
         Omega=  0.000000  0.000000  1.000000  0.000000  0.000000 ICntrl=     500 IOpCl=  0
         NMat0=    1 NMatS0=    1 NMatT0=    0 NMatD0=    1 NMtDS0=    0 NMtDT0=    0
         I1Cent=           4 NGrid=           0.
 Petite list used in FoFCou.
 Initial guess orbital symmetries:
       Occupied  (A') (A') (A') (A') (A') (A') (A') (A') (A') (A")
                 (A") (A') (A')
       Virtual   (A") (A') (A') (A') (A') (A") (A') (A') (A') (A")
                 (A') (A") (A') (A') (A') (A') (A') (A') (A") (A')
                 (A') (A") (A') (A') (A") (A') (A') (A') (A") (A')
                 (A") (A") (A') (A') (A') (A") (A') (A") (A') (A')
                 (A') (A") (A') (A") (A') (A') (A") (A') (A') (A')
                 (A') (A') (A') (A')
 The electronic state of the initial guess is 1-A'.
 Requested convergence on RMS density matrix=1.00D-08 within 128 cycles.
 Requested convergence on MAX density matrix=1.00D-06.
 Requested convergence on             energy=1.00D-06.
 No special actions if energy rises.
 Keep R1 ints in memory in canonical form, NReq=3551239.
 Integral accuracy reduced to 1.0D-05 until final iterations.
 Initial convergence to 1.0D-05 achieved.  Increase integral accuracy.
 SCF Done:  E(RM062X) =  -226.463428390     A.U. after   19 cycles
             Convg  =    0.8946D-08             -V/T =  2.0086
 Range of M.O.s used for correlation:     1    67
 NBasis=    67 NAE=    13 NBE=    13 NFC=     0 NFV=     0
 NROrb=     67 NOA=    13 NOB=    13 NVA=    54 NVB=    54

 **** Warning!!: The largest alpha MO coefficient is  0.33617821D+02

 Symmetrizing basis deriv contribution to polar:
 IMax=3 JMax=2 DiffMx= 0.00D+00
 G2DrvN: will do     6 centers at a time, making    1 passes doing MaxLOS=2.
 Calling FoFCou, ICntrl=  3107 FMM=F I1Cent=   0 AccDes= 0.00D+00.
 FoFDir/FoFCou used for L=0 through L=2.
 End of G2Drv Frequency-dependent properties file   721 does not exist.
 End of G2Drv Frequency-dependent properties file   722 does not exist.
          IDoAtm=11111
          Differentiating once with respect to nuclear coordinates.
          Keep R1 ints in memory in canonical form, NReq=3416970.
          There are    18 degrees of freedom in the 1st order CPHF.  IDoFFX=5.
     12 vectors produced by pass  0 Test12= 3.90D-11 5.56D-07 XBig12= 1.54D-01 2.90D-01.
 AX will form    12 AO Fock derivatives at one time.
     12 vectors produced by pass  1 Test12= 3.90D-11 5.56D-07 XBig12= 1.79D-02 9.43D-02.
     12 vectors produced by pass  2 Test12= 3.90D-11 5.56D-07 XBig12= 1.45D-03 1.38D-02.
     12 vectors produced by pass  3 Test12= 3.90D-11 5.56D-07 XBig12= 3.19D-05 1.15D-03.
     12 vectors produced by pass  4 Test12= 3.90D-11 5.56D-07 XBig12= 5.02D-07 1.57D-04.
      9 vectors produced by pass  5 Test12= 3.90D-11 5.56D-07 XBig12= 1.24D-09 8.33D-06.
      1 vectors produced by pass  6 Test12= 3.90D-11 5.56D-07 XBig12= 4.20D-12 6.82D-07.
 Inverted reduced A of dimension    70 with in-core refinement.
 End of Minotr Frequency-dependent properties file   721 does not exist.
 End of Minotr Frequency-dependent properties file   722 does not exist.

 **********************************************************************

            Population analysis using the SCF density.

 **********************************************************************

 Orbital symmetries:
       Occupied  (A') (A') (A') (A') (A') (A') (A') (A') (A") (A')
                 (A') (A") (A')
       Virtual   (A") (A') (A') (A') (A") (A') (A') (A') (A") (A')
                 (A') (A") (A') (A') (A') (A') (A') (A") (A') (A')
                 (A') (A") (A') (A') (A') (A") (A') (A") (A') (A')
                 (A') (A") (A") (A') (A') (A') (A") (A") (A') (A')
                 (A") (A') (A') (A") (A') (A') (A") (A') (A') (A')
                 (A') (A') (A') (A')
 The electronic state is 1-A'.
 Alpha  occ. eigenvalues --  -19.84883 -19.83971 -19.62029  -1.36952  -1.10470
 Alpha  occ. eigenvalues --   -0.99671  -0.71631  -0.61197  -0.58458  -0.54991
 Alpha  occ. eigenvalues --   -0.41521  -0.36571  -0.35828
 Alpha virt. eigenvalues --   -0.18589   0.05688   0.08392   0.11627   0.14174
 Alpha virt. eigenvalues --    0.15576   0.16116   0.18841   0.20712   0.22403
 Alpha virt. eigenvalues --    0.25169   0.26345   0.30084   0.37730   0.42269
 Alpha virt. eigenvalues --    0.47962   0.86925   1.07881   1.08344   1.12252
 Alpha virt. eigenvalues --    1.12794   1.13100   1.16677   1.23229   1.26159
 Alpha virt. eigenvalues --    1.26268   1.31682   1.40014   1.40047   1.55221
 Alpha virt. eigenvalues --    1.59299   1.59591   1.61540   1.63074   1.76692
 Alpha virt. eigenvalues --    1.81409   1.87937   1.89420   1.92524   2.04894
 Alpha virt. eigenvalues --    2.23544   2.24059   2.42573   2.56014   2.59838
 Alpha virt. eigenvalues --    2.68701   2.94417   2.94914   3.31055   3.47719
 Alpha virt. eigenvalues --    3.72712   3.79756   4.18293   4.68693
          Condensed to atoms (all electrons):
              1          2          3          4          5
     1  O    7.994074   0.209495  -0.013349  -0.063956  -0.001241
     2  O    0.209495   7.790519   0.066076  -0.093898   0.004046
     3  H   -0.013349   0.066076   0.239252   0.206226  -0.011537
     4  O   -0.063956  -0.093898   0.206226   8.453278   0.313154
     5  H   -0.001241   0.004046  -0.011537   0.313154   0.292849
 Mulliken atomic charges:
              1
     1  O   -0.125022
     2  O    0.023763
     3  H    0.513333
     4  O   -0.814804
     5  H    0.402730
 Sum of Mulliken atomic charges =   0.00000
 Mulliken charges with hydrogens summed into heavy atoms:
              1
     1  O   -0.125022
     2  O    0.023763
     4  O    0.101259
 Sum of Mulliken charges with hydrogens summed into heavy atoms =   0.00000
 APT atomic charges:
              1
     1  O    0.253741
     2  O   -0.366289
     3  H    0.412282
     4  O   -1.096731
     5  H    0.796997
 Sum of APT charges=   0.00000
 APT Atomic charges with hydrogens summed into heavy atoms:
              1
     1  O    0.253741
     2  O   -0.366289
     3  H    0.000000
     4  O    0.112548
     5  H    0.000000
 Sum of APT charges=   0.00000
 Electronic spatial extent (au):  <R**2>=            221.3400
 Charge=              0.0000 electrons
 Dipole moment (field-independent basis, Debye):
    X=             -0.4984    Y=              0.7559    Z=              0.0000  Tot=              0.9054
 Quadrupole moment (field-independent basis, Debye-Ang):
   XX=            -17.7779   YY=            -16.4348   ZZ=            -17.4183
   XY=              3.1976   XZ=              0.0000   YZ=              0.0000
 Traceless Quadrupole moment (field-independent basis, Debye-Ang):
   XX=             -0.5675   YY=              0.7755   ZZ=             -0.2080
   XY=              3.1976   XZ=              0.0000   YZ=              0.0000
 Octapole moment (field-independent basis, Debye-Ang**2):
  XXX=             -0.5359  YYY=             -7.3263  ZZZ=              0.0000  XYY=             -9.1462
  XXY=              2.3386  XXZ=              0.0000  XZZ=             -0.9361  YZZ=              3.0627
  YYZ=              0.0000  XYZ=              0.0000
 Hexadecapole moment (field-independent basis, Debye-Ang**3):
 XXXX=            -31.3506 YYYY=           -170.2371 ZZZZ=            -14.8257 XXXY=             27.7087
 XXXZ=              0.0000 YYYX=             39.9910 YYYZ=              0.0000 ZZZX=              0.0000
 ZZZY=              0.0000 XXYY=            -43.8512 XXZZ=             -7.6495 YYZZ=            -37.4472
 XXYZ=              0.0000 YYXZ=              0.0000 ZZXY=              8.6056
 N-N= 6.924845793724D+01 E-N=-6.727530747599D+02  KE= 2.245355194588D+02
 Symmetry A'   KE= 2.159159330025D+02
 Symmetry A"   KE= 8.619586456278D+00
  Exact polarizability:   0.000   0.000   0.000   0.000   0.000   0.000
 Approx polarizability:  18.522 -20.036  86.562   0.000   0.000  12.822
 Calling FoFJK, ICntrl=    100147 FMM=F ISym2X=1 I1Cent= 0 IOpClX= 0 NMat=1 NMatS=1 NMatT=0.
 ***** Axes restored to original set *****
 -------------------------------------------------------------------
 Center     Atomic                   Forces (Hartrees/Bohr)
 Number     Number              X              Y              Z
 -------------------------------------------------------------------
      1        8           0.117208516   -0.013455149    0.000000000
      2        8          -0.205324178    0.023330551    0.000000000
      3        1           0.063333951   -0.062782241    0.000000000
      4        8           0.028489825    0.079910715    0.000000000
      5        1          -0.003708113   -0.027003876    0.000000000
 -------------------------------------------------------------------
 Cartesian Forces:  Max     0.205324178 RMS     0.069529064

 GradGradGradGradGradGradGradGradGradGradGradGradGradGradGradGradGradGrad
 Berny optimization.
 Internal  Forces:  Max     0.115810489 RMS     0.061496720
 Search for a saddle point.
 Step number   1 out of a maximum of  100
 All quantities printed in internal units (Hartrees-Bohrs-Radians)
 Swaping is turned off.
 Second derivative matrix not updated -- analytic derivatives used.
 The second derivative matrix:
                          R1        R2        R3        R4        A1
           R1           0.33886
           R2           0.04961   0.19068
           R3           0.00827   0.18493   0.18621
           R4          -0.00864   0.01039  -0.01571   0.69253
           A1          -0.00145  -0.06726   0.02659   0.00081   0.01905
           A2           0.05130   0.12606   0.11347   0.00685  -0.04814
           A3           0.01622   0.02955  -0.00426   0.00944   0.01060
           D1           0.00000   0.00000   0.00000   0.00000   0.00000
           D2           0.00000   0.00000   0.00000   0.00000   0.00000
                          A2        A3        D1        D2
           A2           0.24973
           A3           0.00880  -0.09023
           D1           0.00000   0.00000  -0.02761
           D2           0.00000   0.00000   0.00620  -0.00293
     Eigenvalues ---   -0.10498  -0.04661  -0.02908  -0.00146   0.06699
     Eigenvalues ---    0.13630   0.32041   0.52130   0.69342
 Eigenvectors required to have negative eigenvalues:
                          A3        A1        R2        R3        A2
   1                    0.87939  -0.29521  -0.28743   0.23597  -0.03501
                          R4        R1        D1        D2
   1                   -0.00143  -0.00136   0.00000   0.00000
 RFO step:  Lambda0=1.016904235D-02 Lambda=-1.12702592D-01.
 Linear search not attempted -- option 19 set.
 Maximum step size (   0.300) exceeded in Quadratic search.
    -- Step size scaled by   0.258
 Iteration  1 RMS(Cart)=  0.11269711 RMS(Int)=  0.00971161
 Iteration  2 RMS(Cart)=  0.00850185 RMS(Int)=  0.00008986
 Iteration  3 RMS(Cart)=  0.00005141 RMS(Int)=  0.00000001
 Iteration  4 RMS(Cart)=  0.00000001 RMS(Int)=  0.00000000
 ClnCor:  largest displacement from symmetrization is 4.96D-02 for atom     2.
 Variable       Old X    -DE/DX   Delta X   Delta X   Delta X     New X
                                 (Linear)    (Quad)   (Total)
    R1        2.49444  -0.11581   0.00000  -0.09183  -0.09304   2.40140
    R2        2.23363   0.08748   0.00000   0.11990   0.11907   2.35271
    R3        2.17507  -0.03256   0.00000  -0.12502  -0.12503   2.05005
    R4        1.75849   0.02548   0.00000   0.00053   0.00052   1.75901
    A1        2.78416  -0.05623   0.00000  -0.00511  -0.00044   2.78372
    A2        2.06120   0.08836   0.00000   0.06933   0.06963   2.13084
    A3        2.82743  -0.01708   0.00000   0.16090   0.16090   2.98834
    D1        3.14159   0.00000   0.00000   0.14053   0.00000   3.14159
    D2        0.00000   0.00000   0.00000   0.03302   0.00000   0.00000
         Item               Value     Threshold  Converged?
 Maximum Force            0.115810     0.000450     NO 
 RMS     Force            0.061497     0.000300     NO 
 Maximum Displacement     0.202999     0.001800     NO 
 RMS     Displacement     0.108633     0.001200     NO 
 Predicted change in Energy=-2.795935D-02
 GradGradGradGradGradGradGradGradGradGradGradGradGradGradGradGradGradGrad

                          Input orientation:                          
 ---------------------------------------------------------------------
 Center     Atomic      Atomic             Coordinates (Angstroms)
 Number     Number       Type             X           Y           Z
 ---------------------------------------------------------------------
      1          8           0       -2.422265    1.257353    0.000000
      2          8           0       -1.239321    0.793151    0.000000
      3          1           0        0.005518    0.773142    0.000000
      4          8           0        0.566959   -0.155113    0.000000
      5          1           0        0.921462   -1.015794    0.000000
 ---------------------------------------------------------------------
                    Distance matrix (angstroms):
                    1          2          3          4          5
     1  O    0.000000
     2  O    1.270764   0.000000
     3  H    2.475599   1.245000   0.000000
     4  O    3.306134   2.040061   1.084838   0.000000
     5  H    4.043230   2.818025   2.009788   0.930830   0.000000
 Stoichiometry    H2O3
 Framework group  CS[SG(H2O3)]
 Deg. of freedom     7
 Full point group                 CS      NOp   2
 Largest Abelian subgroup         CS      NOp   2
 Largest concise Abelian subgroup C1      NOp   1
                         Standard orientation:                         
 ---------------------------------------------------------------------
 Center     Atomic      Atomic             Coordinates (Angstroms)
 Number     Number       Type             X           Y           Z
 ---------------------------------------------------------------------
      1          8           0       -0.280782    1.629579    0.000000
      2          8           0        0.000000    0.390223    0.000000
      3          1           0        0.682988   -0.650715    0.000000
      4          8           0        0.230665   -1.636756    0.000000
      5          1           0       -0.282051   -2.413651    0.000000
 ---------------------------------------------------------------------
 Rotational constants (GHZ):    618.9834064      5.2799534      5.2352961
 Standard basis: 6-31+G(d,p) (6D, 7F)
 There are    50 symmetry adapted basis functions of A'  symmetry.
 There are    17 symmetry adapted basis functions of A"  symmetry.
 Integral buffers will be    262144 words long.
 Raffenetti 2 integral format.
 Two-electron integral symmetry is turned on.
    67 basis functions,   110 primitive gaussians,    67 cartesian basis functions
    13 alpha electrons       13 beta electrons
       nuclear repulsion energy        69.8694399189 Hartrees.
 NAtoms=    5 NActive=    5 NUniq=    5 SFac= 7.50D-01 NAtFMM=   80 NAOKFM=F Big=F
 One-electron integrals computed using PRISM.
 NBasis=    67 RedAO= T  NBF=    50    17
 NBsUse=    67 1.00D-06 NBFU=    50    17
 Initial guess read from the read-write file.
 B after Tr=     0.000000    0.000000    0.000000
         Rot=    1.000000    0.000000    0.000000    0.000000 Ang=   0.00 deg.
 Initial guess orbital symmetries:
       Occupied  (A') (A') (A') (A') (A') (A') (A') (A') (A") (A')
                 (A') (A") (A')
       Virtual   (A") (A') (A') (A') (A") (A') (A') (A') (A") (A')
                 (A') (A") (A') (A') (A') (A') (A') (A") (A') (A')
                 (A') (A") (A') (A') (A') (A") (A') (A") (A') (A')
                 (A') (A") (A") (A') (A') (A') (A") (A") (A') (A')
                 (A") (A') (A') (A") (A') (A') (A") (A') (A') (A')
                 (A') (A') (A') (A')
 Harris functional with IExCor= 1009 diagonalized for initial guess.
 ExpMin= 8.45D-02 ExpMax= 5.48D+03 ExpMxC= 8.25D+02 IAcc=2 IRadAn=         0 AccDes= 0.00D+00
 HarFok:  IExCor= 1009 AccDes= 0.00D+00 IRadAn=         0 IDoV= 1
 ScaDFX=  1.000000  1.000000  1.000000  1.000000
 FoFCou: FMM=F IPFlag=           0 FMFlag=      100000 FMFlg1=           0
         NFxFlg=           0 DoJE=T BraDBF=F KetDBF=T FulRan=T
         Omega=  0.000000  0.000000  1.000000  0.000000  0.000000 ICntrl=     500 IOpCl=  0
         NMat0=    1 NMatS0=    1 NMatT0=    0 NMatD0=    1 NMtDS0=    0 NMtDT0=    0
         I1Cent=           4 NGrid=           0.
 Petite list used in FoFCou.
 Requested convergence on RMS density matrix=1.00D-08 within 128 cycles.
 Requested convergence on MAX density matrix=1.00D-06.
 Requested convergence on             energy=1.00D-06.
 No special actions if energy rises.
 Keep R1 ints in memory in canonical form, NReq=3551239.
 Integral accuracy reduced to 1.0D-05 until final iterations.
 Initial convergence to 1.0D-05 achieved.  Increase integral accuracy.
 SCF Done:  E(RM062X) =  -226.491014836     A.U. after   17 cycles
             Convg  =    0.3231D-08             -V/T =  2.0083
 Calling FoFJK, ICntrl=      2127 FMM=F ISym2X=1 I1Cent= 0 IOpClX= 0 NMat=1 NMatS=1 NMatT=0.
 ***** Axes restored to original set *****
 -------------------------------------------------------------------
 Center     Atomic                   Forces (Hartrees/Bohr)
 Number     Number              X              Y              Z
 -------------------------------------------------------------------
      1        8           0.086728963   -0.014930052    0.000000000
      2        8          -0.166412967    0.028965870    0.000000000
      3        1           0.063332446   -0.059384168    0.000000000
      4        8           0.010512171    0.064446769    0.000000000
      5        1           0.005839387   -0.019098419    0.000000000
 -------------------------------------------------------------------
 Cartesian Forces:  Max     0.166412967 RMS     0.056849119

 GradGradGradGradGradGradGradGradGradGradGradGradGradGradGradGradGradGrad
 Berny optimization.
 Internal  Forces:  Max     0.086194375 RMS     0.049805286
 Search for a saddle point.
 Step number   2 out of a maximum of  100
 All quantities printed in internal units (Hartrees-Bohrs-Radians)
 Swaping is turned off.
 Update second derivatives using D2CorX and points    1    2
 The second derivative matrix:
                          R1        R2        R3        R4        A1
           R1           0.36815
           R2           0.04122   0.18499
           R3           0.03641   0.17999   0.21203
           R4          -0.00685   0.00934  -0.01378   0.69260
           A1          -0.00031  -0.06786   0.02779   0.00086   0.01908
           A2           0.04444   0.12383   0.10850   0.00615  -0.04855
           A3           0.00740   0.02044  -0.00825   0.00812   0.00986
           D1           0.00000   0.00000   0.00000   0.00000   0.00000
           D2           0.00000   0.00000   0.00000   0.00000   0.00000
                          A2        A3        D1        D2
           A2           0.24917
           A3           0.00485  -0.10429
           D1           0.00000   0.00000  -0.02761
           D2           0.00000   0.00000   0.00620  -0.00293
     Eigenvalues ---   -0.11258  -0.04460  -0.02908  -0.00146   0.07166
     Eigenvalues ---    0.14958   0.33735   0.52699   0.69332
 Eigenvectors required to have negative eigenvalues:
                          A3        A1        R2        R3        A2
   1                    0.94094  -0.21643  -0.20257   0.16212  -0.01992
                          R1        R4        D1        D2
   1                   -0.00775  -0.00405   0.00000   0.00000
 RFO step:  Lambda0=2.198375992D-03 Lambda=-8.70560230D-02.
 Linear search not attempted -- option 19 set.
 Maximum step size (   0.300) exceeded in Quadratic search.
    -- Step size scaled by   0.277
 Iteration  1 RMS(Cart)=  0.07911393 RMS(Int)=  0.00701263
 Iteration  2 RMS(Cart)=  0.00516723 RMS(Int)=  0.00014365
 Iteration  3 RMS(Cart)=  0.00008341 RMS(Int)=  0.00000004
 Iteration  4 RMS(Cart)=  0.00000003 RMS(Int)=  0.00000000
 ClnCor:  largest displacement from symmetrization is 4.56D-02 for atom     2.
 Variable       Old X    -DE/DX   Delta X   Delta X   Delta X     New X
                                 (Linear)    (Quad)   (Total)
    R1        2.40140  -0.08619   0.00000  -0.06339  -0.06449   2.33691
    R2        2.35271   0.07985   0.00000   0.15829   0.15768   2.51039
    R3        2.05005  -0.03030   0.00000  -0.13876  -0.13876   1.91129
    R4        1.75901   0.01991   0.00000   0.00044   0.00044   1.75945
    A1        2.78372  -0.04291   0.00000   0.04527   0.04970   2.83342
    A2        2.13084   0.07316   0.00000   0.06012   0.06035   2.19118
    A3        2.98834  -0.00342   0.00000   0.10986   0.10986   3.09820
    D1        3.14159   0.00000   0.00000   0.15062   0.00000   3.14159
    D2        0.00000   0.00000   0.00000   0.03539   0.00000   0.00000
         Item               Value     Threshold  Converged?
 Maximum Force            0.086194     0.000450     NO 
 RMS     Force            0.049805     0.000300     NO 
 Maximum Displacement     0.134331     0.001800     NO 
 RMS     Displacement     0.078927     0.001200     NO 
 Predicted change in Energy=-2.360244D-02
 GradGradGradGradGradGradGradGradGradGradGradGradGradGradGradGradGradGrad

                          Input orientation:                          
 ---------------------------------------------------------------------
 Center     Atomic      Atomic             Coordinates (Angstroms)
 Number     Number       Type             X           Y           Z
 ---------------------------------------------------------------------
      1          8           0       -2.434451    1.292348    0.000000
      2          8           0       -1.292888    0.816840    0.000000
      3          1           0        0.030585    0.702057    0.000000
      4          8           0        0.545265   -0.168605    0.000000
      5          1           0        0.983843   -0.989900    0.000000
 ---------------------------------------------------------------------
                    Distance matrix (angstroms):
                    1          2          3          4          5
     1  O    0.000000
     2  O    1.236638   0.000000
     3  H    2.534728   1.328441   0.000000
     4  O    3.318598   2.085644   1.011409   0.000000
     5  H    4.110157   2.906512   1.942015   0.931062   0.000000
 Stoichiometry    H2O3
 Framework group  CS[SG(H2O3)]
 Deg. of freedom     7
 Full point group                 CS      NOp   2
 Largest Abelian subgroup         CS      NOp   2
 Largest concise Abelian subgroup C1      NOp   1
                         Standard orientation:                         
 ---------------------------------------------------------------------
 Center     Atomic      Atomic             Coordinates (Angstroms)
 Number     Number       Type             X           Y           Z
 ---------------------------------------------------------------------
      1          8           0       -0.227043    1.637214    0.000000
      2          8           0        0.000000    0.421597    0.000000
      3          1           0        0.628498   -0.748765    0.000000
      4          8           0        0.181669   -1.656120    0.000000
      5          1           0       -0.265511   -2.472763    0.000000
 ---------------------------------------------------------------------
 Rotational constants (GHZ):    773.3331754      5.1953376      5.1606676
 Standard basis: 6-31+G(d,p) (6D, 7F)
 There are    50 symmetry adapted basis functions of A'  symmetry.
 There are    17 symmetry adapted basis functions of A"  symmetry.
 Integral buffers will be    262144 words long.
 Raffenetti 2 integral format.
 Two-electron integral symmetry is turned on.
    67 basis functions,   110 primitive gaussians,    67 cartesian basis functions
    13 alpha electrons       13 beta electrons
       nuclear repulsion energy        70.1787172121 Hartrees.
 NAtoms=    5 NActive=    5 NUniq=    5 SFac= 7.50D-01 NAtFMM=   80 NAOKFM=F Big=F
 One-electron integrals computed using PRISM.
 NBasis=    67 RedAO= T  NBF=    50    17
 NBsUse=    67 1.00D-06 NBFU=    50    17
 Initial guess read from the read-write file.
 B after Tr=     0.000000    0.000000    0.000000
         Rot=    1.000000    0.000000    0.000000    0.000000 Ang=   0.00 deg.
 Initial guess orbital symmetries:
       Occupied  (A') (A') (A') (A') (A') (A') (A') (A') (A") (A')
                 (A') (A") (A')
       Virtual   (A") (A') (A') (A') (A") (A') (A') (A') (A") (A')
                 (A') (A") (A') (A') (A') (A') (A') (A") (A') (A')
                 (A') (A") (A') (A') (A") (A') (A') (A") (A') (A')
                 (A") (A') (A") (A') (A') (A') (A") (A") (A') (A')
                 (A") (A') (A') (A") (A') (A') (A') (A") (A') (A')
                 (A') (A') (A') (A')
 Harris functional with IExCor= 1009 diagonalized for initial guess.
 ExpMin= 8.45D-02 ExpMax= 5.48D+03 ExpMxC= 8.25D+02 IAcc=2 IRadAn=         0 AccDes= 0.00D+00
 HarFok:  IExCor= 1009 AccDes= 0.00D+00 IRadAn=         0 IDoV= 1
 ScaDFX=  1.000000  1.000000  1.000000  1.000000
 FoFCou: FMM=F IPFlag=           0 FMFlag=      100000 FMFlg1=           0
         NFxFlg=           0 DoJE=T BraDBF=F KetDBF=T FulRan=T
         Omega=  0.000000  0.000000  1.000000  0.000000  0.000000 ICntrl=     500 IOpCl=  0
         NMat0=    1 NMatS0=    1 NMatT0=    0 NMatD0=    1 NMtDS0=    0 NMtDT0=    0
         I1Cent=           4 NGrid=           0.
 Petite list used in FoFCou.
 Requested convergence on RMS density matrix=1.00D-08 within 128 cycles.
 Requested convergence on MAX density matrix=1.00D-06.
 Requested convergence on             energy=1.00D-06.
 No special actions if energy rises.
 Keep R1 ints in memory in canonical form, NReq=3551244.
 Integral accuracy reduced to 1.0D-05 until final iterations.
 Initial convergence to 1.0D-05 achieved.  Increase integral accuracy.
 SCF Done:  E(RM062X) =  -226.513015300     A.U. after   17 cycles
             Convg  =    0.4016D-08             -V/T =  2.0078
 Calling FoFJK, ICntrl=      2127 FMM=F ISym2X=1 I1Cent= 0 IOpClX= 0 NMat=1 NMatS=1 NMatT=0.
 ***** Axes restored to original set *****
 -------------------------------------------------------------------
 Center     Atomic                   Forces (Hartrees/Bohr)
 Number     Number              X              Y              Z
 -------------------------------------------------------------------
      1        8           0.055780257   -0.008528050    0.000000000
      2        8          -0.126412017    0.025386649    0.000000000
      3        1           0.052119950   -0.039657653    0.000000000
      4        8           0.008270818    0.034365010    0.000000000
      5        1           0.010240992   -0.011565956    0.000000000
 -------------------------------------------------------------------
 Cartesian Forces:  Max     0.126412017 RMS     0.041300422

 GradGradGradGradGradGradGradGradGradGradGradGradGradGradGradGradGradGrad
 Berny optimization.
 Internal  Forces:  Max     0.071803286 RMS     0.037996240
 Search for a saddle point.
 Step number   3 out of a maximum of  100
 All quantities printed in internal units (Hartrees-Bohrs-Radians)
 Swaping is turned off.
 Update second derivatives using D2CorX and points    1    2    3
 The second derivative matrix:
                          R1        R2        R3        R4        A1
           R1           0.39611
           R2           0.02818   0.17154
           R3           0.08919   0.15555   0.31149
           R4          -0.00592   0.00842  -0.01202   0.69262
           A1          -0.01109  -0.06459   0.00760   0.00046   0.02296
           A2           0.03975   0.11745   0.09964   0.00578  -0.04745
           A3           0.00192   0.00469  -0.01868   0.00748   0.01053
           D1           0.00000   0.00000   0.00000   0.00000   0.00000
           D2           0.00000   0.00000   0.00000   0.00000   0.00000
                          A2        A3        D1        D2
           A2           0.24617
           A3          -0.00236  -0.12070
           D1           0.00000   0.00000  -0.02761
           D2           0.00000   0.00000   0.00620  -0.00293
     Eigenvalues ---   -0.12374  -0.02908  -0.01615  -0.00146   0.07757
     Eigenvalues ---    0.18314   0.34386   0.56215   0.69337
 Eigenvectors required to have negative eigenvalues:
                          A3        A1        R2        R3        R1
   1                    0.98790  -0.11046  -0.07706   0.07512  -0.01464
                          R4        A2        D1        D2
   1                   -0.00718  -0.00195   0.00000   0.00000
 RFO step:  Lambda0=1.273557113D-04 Lambda=-4.73715823D-02.
 Linear search not attempted -- option 19 set.
 Maximum step size (   0.300) exceeded in Quadratic search.
    -- Step size scaled by   0.290
 Iteration  1 RMS(Cart)=  0.04518466 RMS(Int)=  0.01629148
 Iteration  2 RMS(Cart)=  0.01010753 RMS(Int)=  0.00078036
 Iteration  3 RMS(Cart)=  0.00041722 RMS(Int)=  0.00000160
 Iteration  4 RMS(Cart)=  0.00000098 RMS(Int)=  0.00000000
 ClnCor:  largest displacement from symmetrization is 4.61D-02 for atom     2.
 Variable       Old X    -DE/DX   Delta X   Delta X   Delta X     New X
                                 (Linear)    (Quad)   (Total)
    R1        2.33691  -0.05477   0.00000  -0.03136  -0.03253   2.30438
    R2        2.51039   0.07180   0.00000   0.15744   0.15690   2.66729
    R3        1.91129  -0.01019   0.00000  -0.08045  -0.08045   1.83083
    R4        1.75945   0.01504   0.00000   0.00205   0.00204   1.76149
    A1        2.83342  -0.03182   0.00000   0.05902   0.06448   2.89790
    A2        2.19118   0.05879   0.00000   0.03652   0.03667   2.22785
    A3        3.09820   0.00625   0.00000   0.01519   0.01549   3.11369
    D1        3.14159   0.00000   0.00000  -0.19516   0.00000   3.14159
    D2        0.00000   0.00000   0.00000   0.12090   0.00000   0.00000
         Item               Value     Threshold  Converged?
 Maximum Force            0.071803     0.000450     NO 
 RMS     Force            0.037996     0.000300     NO 
 Maximum Displacement     0.073709     0.001800     NO 
 RMS     Displacement     0.051452     0.001200     NO 
 Predicted change in Energy=-1.284233D-02
 GradGradGradGradGradGradGradGradGradGradGradGradGradGradGradGradGradGrad

                          Input orientation:                          
 ---------------------------------------------------------------------
 Center     Atomic      Atomic             Coordinates (Angstroms)
 Number     Number       Type             X           Y           Z
 ---------------------------------------------------------------------
      1          8           0       -2.464468    1.297558    0.000000
      2          8           0       -1.329745    0.851019    0.000000
      3          1           0        0.069590    0.666338    0.000000
      4          8           0        0.555885   -0.171611    0.000000
      5          1           0        1.001090   -0.990563    0.000000
 ---------------------------------------------------------------------
                    Distance matrix (angstroms):
                    1          2          3          4          5
     1  O    0.000000
     2  O    1.219423   0.000000
     3  H    2.611491   1.411469   0.000000
     4  O    3.358718   2.145081   0.968835   0.000000
     5  H    4.152781   2.970559   1.900793   0.932143   0.000000
 Stoichiometry    H2O3
 Framework group  CS[SG(H2O3)]
 Deg. of freedom     7
 Full point group                 CS      NOp   2
 Largest Abelian subgroup         CS      NOp   2
 Largest concise Abelian subgroup C1      NOp   1
                         Standard orientation:                         
 ---------------------------------------------------------------------
 Center     Atomic      Atomic             Coordinates (Angstroms)
 Number     Number       Type             X           Y           Z
 ---------------------------------------------------------------------
      1          8           0       -0.269942    1.642364    0.000000
      2          8           0        0.000000    0.453195    0.000000
      3          1           0        0.635340   -0.807197    0.000000
      4          8           0        0.216698   -1.680913    0.000000
      5          1           0       -0.209384   -2.509975    0.000000
 ---------------------------------------------------------------------
 Rotational constants (GHZ):    756.9360070      5.0483248      5.0148785
 Standard basis: 6-31+G(d,p) (6D, 7F)
 There are    50 symmetry adapted basis functions of A'  symmetry.
 There are    17 symmetry adapted basis functions of A"  symmetry.
 Integral buffers will be    262144 words long.
 Raffenetti 2 integral format.
 Two-electron integral symmetry is turned on.
    67 basis functions,   110 primitive gaussians,    67 cartesian basis functions
    13 alpha electrons       13 beta electrons
       nuclear repulsion energy        69.8995402425 Hartrees.
 NAtoms=    5 NActive=    5 NUniq=    5 SFac= 7.50D-01 NAtFMM=   80 NAOKFM=F Big=F
 One-electron integrals computed using PRISM.
 NBasis=    67 RedAO= T  NBF=    50    17
 NBsUse=    67 1.00D-06 NBFU=    50    17
 Initial guess read from the read-write file.
 B after Tr=     0.000000    0.000000    0.000000
         Rot=    1.000000    0.000000    0.000000    0.000000 Ang=   0.00 deg.
 Initial guess orbital symmetries:
       Occupied  (A') (A') (A') (A') (A') (A') (A') (A') (A") (A')
                 (A') (A") (A')
       Virtual   (A") (A') (A') (A') (A") (A') (A') (A') (A") (A')
                 (A') (A") (A') (A') (A') (A') (A') (A') (A") (A')
                 (A') (A") (A') (A') (A") (A') (A') (A") (A') (A')
                 (A") (A') (A") (A') (A') (A') (A") (A") (A') (A')
                 (A') (A") (A') (A") (A') (A') (A') (A") (A') (A')
                 (A') (A') (A') (A')
 Harris functional with IExCor= 1009 diagonalized for initial guess.
 ExpMin= 8.45D-02 ExpMax= 5.48D+03 ExpMxC= 8.25D+02 IAcc=2 IRadAn=         0 AccDes= 0.00D+00
 HarFok:  IExCor= 1009 AccDes= 0.00D+00 IRadAn=         0 IDoV= 1
 ScaDFX=  1.000000  1.000000  1.000000  1.000000
 FoFCou: FMM=F IPFlag=           0 FMFlag=      100000 FMFlg1=           0
         NFxFlg=           0 DoJE=T BraDBF=F KetDBF=T FulRan=T
         Omega=  0.000000  0.000000  1.000000  0.000000  0.000000 ICntrl=     500 IOpCl=  0
         NMat0=    1 NMatS0=    1 NMatT0=    0 NMatD0=    1 NMtDS0=    0 NMtDT0=    0
         I1Cent=           4 NGrid=           0.
 Petite list used in FoFCou.
 Requested convergence on RMS density matrix=1.00D-08 within 128 cycles.
 Requested convergence on MAX density matrix=1.00D-06.
 Requested convergence on             energy=1.00D-06.
 No special actions if energy rises.
 Keep R1 ints in memory in canonical form, NReq=3551244.
 Integral accuracy reduced to 1.0D-05 until final iterations.
 Initial convergence to 1.0D-05 achieved.  Increase integral accuracy.
 SCF Done:  E(RM062X) =  -226.525254597     A.U. after   15 cycles
             Convg  =    0.8149D-08             -V/T =  2.0076
 Calling FoFJK, ICntrl=      2127 FMM=F ISym2X=1 I1Cent= 0 IOpClX= 0 NMat=1 NMatS=1 NMatT=0.
 ***** Axes restored to original set *****
 -------------------------------------------------------------------
 Center     Atomic                   Forces (Hartrees/Bohr)
 Number     Number              X              Y              Z
 -------------------------------------------------------------------
      1        8           0.035284943   -0.002696181    0.000000000
      2        8          -0.094126345    0.018808321    0.000000000
      3        1           0.035448393   -0.019978075    0.000000000
      4        8           0.015308688    0.011677806    0.000000000
      5        1           0.008084320   -0.007811871    0.000000000
 -------------------------------------------------------------------
 Cartesian Forces:  Max     0.094126345 RMS     0.029004183

 GradGradGradGradGradGradGradGradGradGradGradGradGradGradGradGradGradGrad
 Berny optimization.
 Internal  Forces:  Max     0.060420156 RMS     0.029335482
 Search for a saddle point.
 Step number   4 out of a maximum of  100
 All quantities printed in internal units (Hartrees-Bohrs-Radians)
 Swaping is turned off.
 Update second derivatives using D2CorX and points    2    3    4
 The second derivative matrix:
                          R1        R2        R3        R4        A1
           R1           0.40898
           R2           0.01581   0.13699
           R3           0.12640   0.11212   0.41770
           R4          -0.00616   0.00826  -0.01279   0.69262
           A1          -0.02143  -0.06660  -0.02418   0.00056   0.02813
           A2           0.03951   0.10209   0.09631   0.00566  -0.05121
           A3          -0.00059  -0.00272  -0.02775   0.00746   0.01020
           D1           0.00000   0.00000   0.00000   0.00000   0.00000
           D2           0.00000   0.00000   0.00000   0.00000   0.00000
                          A2        A3        D1        D2
           A2           0.24088
           A3          -0.00579  -0.12281
           D1           0.00000   0.00000  -0.02761
           D2           0.00000   0.00000   0.00620  -0.00293
     Eigenvalues ---   -0.12512  -0.02908  -0.00580  -0.00146   0.07964
     Eigenvalues ---    0.21633   0.33482   0.60858   0.69404
 Eigenvectors required to have negative eigenvalues:
                          A3        A1        R3        R2        R1
   1                    0.99506  -0.07270   0.05725  -0.03195  -0.01460
                          R4        A2        D1        D2
   1                   -0.00792   0.00112   0.00000   0.00000
 RFO step:  Lambda0=3.476894132D-04 Lambda=-2.90847968D-02.
 Linear search not attempted -- option 19 set.
 Maximum step size (   0.300) exceeded in Quadratic search.
    -- Step size scaled by   0.300
 Iteration  1 RMS(Cart)=  0.04869890 RMS(Int)=  0.01850322
 Iteration  2 RMS(Cart)=  0.01250363 RMS(Int)=  0.00098263
 Iteration  3 RMS(Cart)=  0.00023633 RMS(Int)=  0.00000114
 Iteration  4 RMS(Cart)=  0.00000065 RMS(Int)=  0.00000000
 ClnCor:  largest displacement from symmetrization is 2.95D-02 for atom     2.
 Variable       Old X    -DE/DX   Delta X   Delta X   Delta X     New X
                                 (Linear)    (Quad)   (Total)
    R1        2.30438  -0.03382   0.00000  -0.01784  -0.01832   2.28605
    R2        2.66729   0.06042   0.00000   0.15708   0.15687   2.82416
    R3        1.83083   0.00842   0.00000  -0.02925  -0.02925   1.80159
    R4        1.76149   0.01074   0.00000   0.00177   0.00176   1.76326
    A1        2.89790  -0.02410   0.00000   0.08653   0.08998   2.98788
    A2        2.22785   0.04635   0.00000   0.02157   0.02161   2.24947
    A3        3.11369   0.00587   0.00000  -0.00309  -0.00279   3.11091
    D1        3.14159   0.00000   0.00000  -0.20151   0.00000   3.14159
    D2        0.00000   0.00000   0.00000   0.12483   0.00000   0.00000
         Item               Value     Threshold  Converged?
 Maximum Force            0.060420     0.000450     NO 
 RMS     Force            0.029335     0.000300     NO 
 Maximum Displacement     0.097985     0.001800     NO 
 RMS     Displacement     0.058579     0.001200     NO 
 Predicted change in Energy=-7.746597D-03
 GradGradGradGradGradGradGradGradGradGradGradGradGradGradGradGradGradGrad

                          Input orientation:                          
 ---------------------------------------------------------------------
 Center     Atomic      Atomic             Coordinates (Angstroms)
 Number     Number       Type             X           Y           Z
 ---------------------------------------------------------------------
      1          8           0       -2.507593    1.286202    0.000000
      2          8           0       -1.360208    0.902871    0.000000
      3          1           0        0.113053    0.651914    0.000000
      4          8           0        0.578418   -0.180148    0.000000
      5          1           0        1.008683   -1.008099    0.000000
 ---------------------------------------------------------------------
                    Distance matrix (angstroms):
                    1          2          3          4          5
     1  O    0.000000
     2  O    1.209726   0.000000
     3  H    2.696314   1.494482   0.000000
     4  O    3.416673   2.220631   0.953359   0.000000
     5  H    4.198573   3.043591   1.886212   0.933076   0.000000
 Stoichiometry    H2O3
 Framework group  CS[SG(H2O3)]
 Deg. of freedom     7
 Full point group                 CS      NOp   2
 Largest Abelian subgroup         CS      NOp   2
 Largest concise Abelian subgroup C1      NOp   1
                         Standard orientation:                         
 ---------------------------------------------------------------------
 Center     Atomic      Atomic             Coordinates (Angstroms)
 Number     Number       Type             X           Y           Z
 ---------------------------------------------------------------------
      1          8           0       -0.391111    1.636824    0.000000
      2          8           0        0.000000    0.492067    0.000000
      3          1           0        0.694004   -0.831502    0.000000
      4          8           0        0.314691   -1.706153    0.000000
      5          1           0       -0.082642   -2.550402    0.000000
 ---------------------------------------------------------------------
 Rotational constants (GHZ):    610.9523600      4.8592904      4.8209464
 Standard basis: 6-31+G(d,p) (6D, 7F)
 There are    50 symmetry adapted basis functions of A'  symmetry.
 There are    17 symmetry adapted basis functions of A"  symmetry.
 Integral buffers will be    262144 words long.
 Raffenetti 2 integral format.
 Two-electron integral symmetry is turned on.
    67 basis functions,   110 primitive gaussians,    67 cartesian basis functions
    13 alpha electrons       13 beta electrons
       nuclear repulsion energy        69.2196189474 Hartrees.
 NAtoms=    5 NActive=    5 NUniq=    5 SFac= 7.50D-01 NAtFMM=   80 NAOKFM=F Big=F
 One-electron integrals computed using PRISM.
 NBasis=    67 RedAO= T  NBF=    50    17
 NBsUse=    67 1.00D-06 NBFU=    50    17
 Initial guess read from the read-write file.
 B after Tr=     0.000000    0.000000    0.000000
         Rot=    1.000000    0.000000    0.000000    0.000000 Ang=   0.00 deg.
 Initial guess orbital symmetries:
       Occupied  (A') (A') (A') (A') (A') (A') (A') (A') (A") (A')
                 (A') (A") (A')
       Virtual   (A") (A') (A') (A') (A") (A') (A') (A') (A") (A')
                 (A") (A') (A') (A') (A') (A') (A') (A') (A") (A')
                 (A') (A") (A') (A') (A") (A') (A') (A") (A') (A')
                 (A") (A') (A") (A') (A') (A') (A") (A") (A') (A')
                 (A") (A') (A') (A") (A') (A') (A') (A") (A') (A')
                 (A') (A') (A') (A')
 Harris functional with IExCor= 1009 diagonalized for initial guess.
 ExpMin= 8.45D-02 ExpMax= 5.48D+03 ExpMxC= 8.25D+02 IAcc=2 IRadAn=         0 AccDes= 0.00D+00
 HarFok:  IExCor= 1009 AccDes= 0.00D+00 IRadAn=         0 IDoV= 1
 ScaDFX=  1.000000  1.000000  1.000000  1.000000
 FoFCou: FMM=F IPFlag=           0 FMFlag=      100000 FMFlg1=           0
         NFxFlg=           0 DoJE=T BraDBF=F KetDBF=T FulRan=T
         Omega=  0.000000  0.000000  1.000000  0.000000  0.000000 ICntrl=     500 IOpCl=  0
         NMat0=    1 NMatS0=    1 NMatT0=    0 NMatD0=    1 NMtDS0=    0 NMtDT0=    0
         I1Cent=           4 NGrid=           0.
 Petite list used in FoFCou.
 Requested convergence on RMS density matrix=1.00D-08 within 128 cycles.
 Requested convergence on MAX density matrix=1.00D-06.
 Requested convergence on             energy=1.00D-06.
 No special actions if energy rises.
 Keep R1 ints in memory in canonical form, NReq=3551244.
 Integral accuracy reduced to 1.0D-05 until final iterations.
 Initial convergence to 1.0D-05 achieved.  Increase integral accuracy.
 SCF Done:  E(RM062X) =  -226.532998666     A.U. after   15 cycles
             Convg  =    0.2781D-08             -V/T =  2.0076
 Calling FoFJK, ICntrl=      2127 FMM=F ISym2X=1 I1Cent= 0 IOpClX= 0 NMat=1 NMatS=1 NMatT=0.
 ***** Axes restored to original set *****
 -------------------------------------------------------------------
 Center     Atomic                   Forces (Hartrees/Bohr)
 Number     Number              X              Y              Z
 -------------------------------------------------------------------
      1        8           0.022519401    0.001124527    0.000000000
      2        8          -0.069226096    0.013070007    0.000000000
      3        1           0.025573374   -0.013326530    0.000000000
      4        8           0.015431258    0.005305830    0.000000000
      5        1           0.005702063   -0.006173834    0.000000000
 -------------------------------------------------------------------
 Cartesian Forces:  Max     0.069226096 RMS     0.021039589

 GradGradGradGradGradGradGradGradGradGradGradGradGradGradGradGradGradGrad
 Berny optimization.
 Internal  Forces:  Max     0.048416037 RMS     0.022751697
 Search for a saddle point.
 Step number   5 out of a maximum of  100
 All quantities printed in internal units (Hartrees-Bohrs-Radians)
 Swaping is turned off.
 Update second derivatives using D2CorX and points    3    4    5
 The second derivative matrix:
                          R1        R2        R3        R4        A1
           R1           0.41348
           R2           0.00405   0.11659
           R3           0.13491   0.09010   0.43377
           R4          -0.00586   0.00580  -0.01221   0.69259
           A1          -0.03099  -0.06079  -0.04220  -0.00071   0.04123
           A2           0.03992   0.08706   0.09716   0.00523  -0.05731
           A3          -0.00112  -0.00082  -0.02877   0.00743   0.01153
           D1           0.00000   0.00000   0.00000   0.00000   0.00000
           D2           0.00000   0.00000   0.00000   0.00000   0.00000
                          A2        A3        D1        D2
           A2           0.23710
           A3          -0.00571  -0.12275
           D1           0.00000   0.00000  -0.02761
           D2           0.00000   0.00000   0.00620  -0.00293
     Eigenvalues ---   -0.12517  -0.02908  -0.00146   0.00575   0.07705
     Eigenvalues ---    0.21486   0.32988   0.61550   0.69414
 Eigenvectors required to have negative eigenvalues:
                          A3        A1        R3        R2        R1
   1                    0.99524  -0.07057   0.05504  -0.03439  -0.01559
                          R4        A2        D1        D2
   1                   -0.00815  -0.00014   0.00000   0.00000
 RFO step:  Lambda0=1.528186229D-04 Lambda=-2.90847968D-02.
 Linear search not attempted -- option 19 set.
 Maximum step size (   0.300) exceeded in Quadratic search.
    -- Step size scaled by   0.310
 Iteration  1 RMS(Cart)=  0.03868373 RMS(Int)=  0.01409032
 Iteration  2 RMS(Cart)=  0.00144967 RMS(Int)=  0.00004520
 Iteration  3 RMS(Cart)=  0.00002558 RMS(Int)=  0.00000001
 Iteration  4 RMS(Cart)=  0.00000001 RMS(Int)=  0.00000000
 ClnCor:  largest displacement from symmetrization is 2.56D-02 for atom     2.
 Variable       Old X    -DE/DX   Delta X   Delta X   Delta X     New X
                                 (Linear)    (Quad)   (Total)
    R1        2.28605  -0.02101   0.00000  -0.01271  -0.01307   2.27298
    R2        2.82416   0.04842   0.00000   0.10538   0.10523   2.92939
    R3        1.80159   0.01109   0.00000  -0.01223  -0.01223   1.78935
    R4        1.76326   0.00811   0.00000   0.00229   0.00226   1.76552
    A1        2.98788  -0.01881   0.00000   0.00963   0.01240   3.00028
    A2        2.24947   0.03628   0.00000   0.01608   0.01610   2.26556
    A3        3.11091   0.00387   0.00000  -0.00606  -0.00521   3.10570
    D1        3.14159   0.00000   0.00000   0.19059   0.00000   3.14159
    D2        0.00000   0.00000   0.00000  -0.20461   0.00000   0.00000
         Item               Value     Threshold  Converged?
 Maximum Force            0.048416     0.000450     NO 
 RMS     Force            0.022752     0.000300     NO 
 Maximum Displacement     0.059975     0.001800     NO 
 RMS     Displacement     0.036928     0.001200     NO 
 Predicted change in Energy=-4.894452D-03
 GradGradGradGradGradGradGradGradGradGradGradGradGradGradGradGradGradGrad

                          Input orientation:                          
 ---------------------------------------------------------------------
 Center     Atomic      Atomic             Coordinates (Angstroms)
 Number     Number       Type             X           Y           Z
 ---------------------------------------------------------------------
      1          8           0       -2.532560    1.299958    0.000000
      2          8           0       -1.391945    0.918195    0.000000
      3          1           0        0.132710    0.638129    0.000000
      4          8           0        0.597519   -0.186823    0.000000
      5          1           0        1.026630   -1.016719    0.000000
 ---------------------------------------------------------------------
                    Distance matrix (angstroms):
                    1          2          3          4          5
     1  O    0.000000
     2  O    1.202808   0.000000
     3  H    2.746213   1.550165   0.000000
     4  O    3.465243   2.275748   0.946886   0.000000
     5  H    4.246743   3.097321   1.880855   0.934272   0.000000
 Stoichiometry    H2O3
 Framework group  CS[SG(H2O3)]
 Deg. of freedom     7
 Full point group                 CS      NOp   2
 Largest Abelian subgroup         CS      NOp   2
 Largest concise Abelian subgroup C1      NOp   1
                         Standard orientation:                         
 ---------------------------------------------------------------------
 Center     Atomic      Atomic             Coordinates (Angstroms)
 Number     Number       Type             X           Y           Z
 ---------------------------------------------------------------------
      1          8           0       -0.375580    1.657585    0.000000
      2          8           0        0.000000    0.514919    0.000000
      3          1           0        0.686633   -0.874882    0.000000
      4          8           0        0.302994   -1.740569    0.000000
      5          1           0       -0.105943   -2.580590    0.000000
 ---------------------------------------------------------------------
 Rotational constants (GHZ):    617.8795670      4.7107981      4.6751541
 Standard basis: 6-31+G(d,p) (6D, 7F)
 There are    50 symmetry adapted basis functions of A'  symmetry.
 There are    17 symmetry adapted basis functions of A"  symmetry.
 Integral buffers will be    262144 words long.
 Raffenetti 2 integral format.
 Two-electron integral symmetry is turned on.
    67 basis functions,   110 primitive gaussians,    67 cartesian basis functions
    13 alpha electrons       13 beta electrons
       nuclear repulsion energy        68.7318318902 Hartrees.
 NAtoms=    5 NActive=    5 NUniq=    5 SFac= 7.50D-01 NAtFMM=   80 NAOKFM=F Big=F
 One-electron integrals computed using PRISM.
 NBasis=    67 RedAO= T  NBF=    50    17
 NBsUse=    67 1.00D-06 NBFU=    50    17
 Initial guess read from the read-write file.
 B after Tr=     0.000000    0.000000    0.000000
         Rot=    1.000000    0.000000    0.000000    0.000000 Ang=   0.00 deg.
 Initial guess orbital symmetries:
       Occupied  (A') (A') (A') (A') (A') (A') (A') (A') (A") (A')
                 (A') (A") (A')
       Virtual   (A") (A') (A') (A') (A") (A') (A') (A') (A") (A')
                 (A") (A') (A') (A') (A') (A') (A') (A') (A") (A')
                 (A') (A") (A') (A') (A") (A') (A') (A") (A') (A')
                 (A") (A') (A") (A') (A') (A') (A") (A') (A") (A')
                 (A") (A') (A') (A") (A') (A') (A') (A") (A') (A')
                 (A') (A') (A') (A')
 Harris functional with IExCor= 1009 diagonalized for initial guess.
 ExpMin= 8.45D-02 ExpMax= 5.48D+03 ExpMxC= 8.25D+02 IAcc=2 IRadAn=         0 AccDes= 0.00D+00
 HarFok:  IExCor= 1009 AccDes= 0.00D+00 IRadAn=         0 IDoV= 1
 ScaDFX=  1.000000  1.000000  1.000000  1.000000
 FoFCou: FMM=F IPFlag=           0 FMFlag=      100000 FMFlg1=           0
         NFxFlg=           0 DoJE=T BraDBF=F KetDBF=T FulRan=T
         Omega=  0.000000  0.000000  1.000000  0.000000  0.000000 ICntrl=     500 IOpCl=  0
         NMat0=    1 NMatS0=    1 NMatT0=    0 NMatD0=    1 NMtDS0=    0 NMtDT0=    0
         I1Cent=           4 NGrid=           0.
 Petite list used in FoFCou.
 Requested convergence on RMS density matrix=1.00D-08 within 128 cycles.
 Requested convergence on MAX density matrix=1.00D-06.
 Requested convergence on             energy=1.00D-06.
 No special actions if energy rises.
 Keep R1 ints in memory in canonical form, NReq=3551244.
 Integral accuracy reduced to 1.0D-05 until final iterations.
 Initial convergence to 1.0D-05 achieved.  Increase integral accuracy.
 SCF Done:  E(RM062X) =  -226.538013819     A.U. after   14 cycles
             Convg  =    0.8063D-08             -V/T =  2.0076
 Calling FoFJK, ICntrl=      2127 FMM=F ISym2X=1 I1Cent= 0 IOpClX= 0 NMat=1 NMatS=1 NMatT=0.
 ***** Axes restored to original set *****
 -------------------------------------------------------------------
 Center     Atomic                   Forces (Hartrees/Bohr)
 Number     Number              X              Y              Z
 -------------------------------------------------------------------
      1        8           0.012029974    0.003208043    0.000000000
      2        8          -0.050538120    0.008525704    0.000000000
      3        1           0.019205335   -0.008674619    0.000000000
      4        8           0.015493639    0.001722299    0.000000000
      5        1           0.003809171   -0.004781428    0.000000000
 -------------------------------------------------------------------
 Cartesian Forces:  Max     0.050538120 RMS     0.015288963

 GradGradGradGradGradGradGradGradGradGradGradGradGradGradGradGradGradGrad
 Berny optimization.
 Internal  Forces:  Max     0.039974116 RMS     0.018260186
 Search for a saddle point.
 Step number   6 out of a maximum of  100
 All quantities printed in internal units (Hartrees-Bohrs-Radians)
 Swaping is turned off.
 Update second derivatives using D2CorX and points    3    4    5    6
 The second derivative matrix:
                          R1        R2        R3        R4        A1
           R1           0.41904
           R2          -0.03272   0.07847
           R3           0.14266   0.04958   0.44017
           R4          -0.00630   0.00264  -0.01307   0.69243
           A1          -0.04012  -0.03721  -0.05270  -0.00069   0.05135
           A2           0.03539   0.05321   0.09267   0.00414  -0.05810
           A3           0.00032   0.00712  -0.02753   0.00769   0.01148
           D1           0.00000   0.00000   0.00000   0.00000   0.00000
           D2           0.00000   0.00000   0.00000   0.00000   0.00000
                          A2        A3        D1        D2
           A2           0.22623
           A3          -0.00293  -0.12346
           D1           0.00000   0.00000  -0.02761
           D2           0.00000   0.00000   0.00620  -0.00293
     Eigenvalues ---   -0.12625  -0.02908  -0.00146   0.01877   0.06326
     Eigenvalues ---    0.20259   0.32329   0.60811   0.69446
 Eigenvectors required to have negative eigenvalues:
                          A3        A1        R2        R3        R1
   1                    0.99394  -0.06830  -0.06227   0.05393  -0.02322
                          R4        A2        D1        D2
   1                   -0.00848  -0.00535   0.00000   0.00000
 RFO step:  Lambda0=1.315332693D-05 Lambda=-2.90847968D-02.
 Linear search not attempted -- option 19 set.
 Maximum step size (   0.300) exceeded in Quadratic search.
    -- Step size scaled by   0.309
 Iteration  1 RMS(Cart)=  0.04569435 RMS(Int)=  0.02440597
 Iteration  2 RMS(Cart)=  0.00435787 RMS(Int)=  0.00017320
 Iteration  3 RMS(Cart)=  0.00022018 RMS(Int)=  0.00000011
 Iteration  4 RMS(Cart)=  0.00000006 RMS(Int)=  0.00000000
 ClnCor:  largest displacement from symmetrization is 3.54D-02 for atom     2.
 Variable       Old X    -DE/DX   Delta X   Delta X   Delta X     New X
                                 (Linear)    (Quad)   (Total)
    R1        2.27298  -0.01039   0.00000   0.00174   0.00103   2.27401
    R2        2.92939   0.03997   0.00000   0.11022   0.10988   3.03927
    R3        1.78935   0.01217   0.00000  -0.00705  -0.00706   1.78230
    R4        1.76552   0.00601   0.00000   0.00193   0.00193   1.76745
    A1        3.00028  -0.01570   0.00000  -0.00338   0.00221   3.00248
    A2        2.26556   0.02933   0.00000   0.01409   0.01426   2.27982
    A3        3.10570   0.00203   0.00000   0.00402   0.00410   3.10980
    D1        3.14159   0.00000   0.00000  -0.26113   0.00000   3.14159
    D2        0.00000   0.00000   0.00000  -0.09685   0.00000   0.00000
         Item               Value     Threshold  Converged?
 Maximum Force            0.039974     0.000450     NO 
 RMS     Force            0.018260     0.000300     NO 
 Maximum Displacement     0.065319     0.001800     NO 
 RMS     Displacement     0.043574     0.001200     NO 
 Predicted change in Energy=-4.165021D-03
 GradGradGradGradGradGradGradGradGradGradGradGradGradGradGradGradGradGrad

                          Input orientation:                          
 ---------------------------------------------------------------------
 Center     Atomic      Atomic             Coordinates (Angstroms)
 Number     Number       Type             X           Y           Z
 ---------------------------------------------------------------------
      1          8           0       -2.564239    1.322494    0.000000
      2          8           0       -1.426511    0.930531    0.000000
      3          1           0        0.152042    0.622569    0.000000
      4          8           0        0.617689   -0.197617    0.000000
      5          1           0        1.053371   -1.025237    0.000000
 ---------------------------------------------------------------------
                    Distance matrix (angstroms):
                    1          2          3          4          5
     1  O    0.000000
     2  O    1.203354   0.000000
     3  H    2.805009   1.608312   0.000000
     4  O    3.526387   2.334839   0.943151   0.000000
     5  H    4.312649   3.158298   1.878207   0.935293   0.000000
 Stoichiometry    H2O3
 Framework group  CS[SG(H2O3)]
 Deg. of freedom     7
 Full point group                 CS      NOp   2
 Largest Abelian subgroup         CS      NOp   2
 Largest concise Abelian subgroup C1      NOp   1
                         Standard orientation:                         
 ---------------------------------------------------------------------
 Center     Atomic      Atomic             Coordinates (Angstroms)
 Number     Number       Type             X           Y           Z
 ---------------------------------------------------------------------
      1          8           0       -0.347350    1.688385    0.000000
      2          8           0        0.000000    0.536253    0.000000
      3          1           0        0.673273   -0.924354    0.000000
      4          8           0        0.280235   -1.781707    0.000000
      5          1           0       -0.136355   -2.619100    0.000000
 ---------------------------------------------------------------------
 Rotational constants (GHZ):    646.8330871      4.5377124      4.5061008
 Standard basis: 6-31+G(d,p) (6D, 7F)
 There are    50 symmetry adapted basis functions of A'  symmetry.
 There are    17 symmetry adapted basis functions of A"  symmetry.
 Integral buffers will be    262144 words long.
 Raffenetti 2 integral format.
 Two-electron integral symmetry is turned on.
    67 basis functions,   110 primitive gaussians,    67 cartesian basis functions
    13 alpha electrons       13 beta electrons
       nuclear repulsion energy        68.0134459798 Hartrees.
 NAtoms=    5 NActive=    5 NUniq=    5 SFac= 7.50D-01 NAtFMM=   80 NAOKFM=F Big=F
 One-electron integrals computed using PRISM.
 NBasis=    67 RedAO= T  NBF=    50    17
 NBsUse=    67 1.00D-06 NBFU=    50    17
 Initial guess read from the read-write file.
 B after Tr=     0.000000    0.000000    0.000000
         Rot=    1.000000    0.000000    0.000000    0.000000 Ang=   0.00 deg.
 Initial guess orbital symmetries:
       Occupied  (A') (A') (A') (A') (A') (A') (A') (A') (A") (A')
                 (A') (A") (A')
       Virtual   (A") (A') (A') (A') (A") (A') (A') (A") (A') (A')
                 (A") (A') (A') (A') (A') (A') (A') (A') (A") (A')
                 (A') (A") (A') (A') (A") (A') (A') (A") (A') (A')
                 (A") (A') (A") (A') (A') (A') (A") (A') (A") (A')
                 (A") (A') (A') (A") (A') (A') (A') (A") (A') (A')
                 (A') (A') (A') (A')
 Harris functional with IExCor= 1009 diagonalized for initial guess.
 ExpMin= 8.45D-02 ExpMax= 5.48D+03 ExpMxC= 8.25D+02 IAcc=2 IRadAn=         0 AccDes= 0.00D+00
 HarFok:  IExCor= 1009 AccDes= 0.00D+00 IRadAn=         0 IDoV= 1
 ScaDFX=  1.000000  1.000000  1.000000  1.000000
 FoFCou: FMM=F IPFlag=           0 FMFlag=      100000 FMFlg1=           0
         NFxFlg=           0 DoJE=T BraDBF=F KetDBF=T FulRan=T
         Omega=  0.000000  0.000000  1.000000  0.000000  0.000000 ICntrl=     500 IOpCl=  0
         NMat0=    1 NMatS0=    1 NMatT0=    0 NMatD0=    1 NMtDS0=    0 NMtDT0=    0
         I1Cent=           4 NGrid=           0.
 Petite list used in FoFCou.
 Requested convergence on RMS density matrix=1.00D-08 within 128 cycles.
 Requested convergence on MAX density matrix=1.00D-06.
 Requested convergence on             energy=1.00D-06.
 No special actions if energy rises.
 Keep R1 ints in memory in canonical form, NReq=3551244.
 Integral accuracy reduced to 1.0D-05 until final iterations.
 Initial convergence to 1.0D-05 achieved.  Increase integral accuracy.
 SCF Done:  E(RM062X) =  -226.542212200     A.U. after   14 cycles
             Convg  =    0.4503D-08             -V/T =  2.0077
 Calling FoFJK, ICntrl=      2127 FMM=F ISym2X=1 I1Cent= 0 IOpClX= 0 NMat=1 NMatS=1 NMatT=0.
 ***** Axes restored to original set *****
 -------------------------------------------------------------------
 Center     Atomic                   Forces (Hartrees/Bohr)
 Number     Number              X              Y              Z
 -------------------------------------------------------------------
      1        8           0.013030152    0.001593520    0.000000000
      2        8          -0.043892832    0.007697113    0.000000000
      3        1           0.014604870   -0.005349489    0.000000000
      4        8           0.013463516   -0.000474966    0.000000000
      5        1           0.002794293   -0.003466177    0.000000000
 -------------------------------------------------------------------
 Cartesian Forces:  Max     0.043892832 RMS     0.013169115

 GradGradGradGradGradGradGradGradGradGradGradGradGradGradGradGradGradGrad
 Berny optimization.
 Internal  Forces:  Max     0.032053911 RMS     0.015006901
 Search for a saddle point.
 Step number   7 out of a maximum of  100
 All quantities printed in internal units (Hartrees-Bohrs-Radians)
 Swaping is turned off.
 Update second derivatives using D2CorX and points    3    4    5    6    7
 The second derivative matrix:
                          R1        R2        R3        R4        A1
           R1           0.40536
           R2           0.01270   0.06912
           R3           0.13037   0.02378   0.42725
           R4          -0.00584   0.00109  -0.01430   0.69234
           A1          -0.02853  -0.02019  -0.04344   0.00016   0.04470
           A2           0.04053   0.03433   0.08318   0.00327  -0.05119
           A3           0.00286   0.00807  -0.02539   0.00782   0.00979
           D1           0.00000   0.00000   0.00000   0.00000   0.00000
           D2           0.00000   0.00000   0.00000   0.00000   0.00000
                          A2        A3        D1        D2
           A2           0.21843
           A3          -0.00197  -0.12383
           D1           0.00000   0.00000  -0.02761
           D2           0.00000   0.00000   0.00620  -0.00293
     Eigenvalues ---   -0.12614  -0.02908  -0.00146   0.02712   0.06361
     Eigenvalues ---    0.20130   0.29479   0.57857   0.69412
 Eigenvectors required to have negative eigenvalues:
                          A3        A1        R2        R3        R1
   1                    0.99574  -0.05584  -0.05037   0.04869  -0.01865
                          R4        A2        D1        D2
   1                   -0.00869  -0.00707   0.00000   0.00000
 RFO step:  Lambda0=1.049873686D-05 Lambda=-2.90847968D-02.
 Linear search not attempted -- option 19 set.
 Maximum step size (   0.300) exceeded in Quadratic search.
    -- Step size scaled by   0.314
 Iteration  1 RMS(Cart)=  0.04242883 RMS(Int)=  0.03411283
 Iteration  2 RMS(Cart)=  0.00680709 RMS(Int)=  0.00034374
 Iteration  3 RMS(Cart)=  0.00045734 RMS(Int)=  0.00000039
 Iteration  4 RMS(Cart)=  0.00000024 RMS(Int)=  0.00000000
 ClnCor:  largest displacement from symmetrization is 4.16D-02 for atom     2.
 Variable       Old X    -DE/DX   Delta X   Delta X   Delta X     New X
                                 (Linear)    (Quad)   (Total)
    R1        2.27401  -0.01180   0.00000  -0.01489  -0.01588   2.25813
    R2        3.03927   0.03205   0.00000   0.09413   0.09369   3.13296
    R3        1.78230   0.01148   0.00000   0.00256   0.00255   1.78485
    R4        1.76745   0.00438   0.00000   0.00164   0.00164   1.76909
    A1        3.00248  -0.01317   0.00000  -0.02584  -0.01919   2.98329
    A2        2.27982   0.02310   0.00000   0.01246   0.01267   2.29250
    A3        3.10980   0.00146   0.00000   0.00013   0.00022   3.11002
    D1        3.14159   0.00000   0.00000   0.26533   0.00000   3.14159
    D2        0.00000   0.00000   0.00000   0.09840   0.00000   0.00000
         Item               Value     Threshold  Converged?
 Maximum Force            0.032054     0.000450     NO 
 RMS     Force            0.015007     0.000300     NO 
 Maximum Displacement     0.069437     0.001800     NO 
 RMS     Displacement     0.039271     0.001200     NO 
 Predicted change in Energy=-3.330944D-03
 GradGradGradGradGradGradGradGradGradGradGradGradGradGradGradGradGradGrad

                          Input orientation:                          
 ---------------------------------------------------------------------
 Center     Atomic      Atomic             Coordinates (Angstroms)
 Number     Number       Type             X           Y           Z
 ---------------------------------------------------------------------
      1          8           0       -2.583846    1.348269    0.000000
      2          8           0       -1.463255    0.933323    0.000000
      3          1           0        0.162784    0.609909    0.000000
      4          8           0        0.636479   -0.207216    0.000000
      5          1           0        1.080191   -1.031545    0.000000
 ---------------------------------------------------------------------
                    Distance matrix (angstroms):
                    1          2          3          4          5
     1  O    0.000000
     2  O    1.194949   0.000000
     3  H    2.844144   1.657891   0.000000
     4  O    3.576314   2.389500   0.944500   0.000000
     5  H    4.369060   3.214005   1.880427   0.936162   0.000000
 Stoichiometry    H2O3
 Framework group  CS[SG(H2O3)]
 Deg. of freedom     7
 Full point group                 CS      NOp   2
 Largest Abelian subgroup         CS      NOp   2
 Largest concise Abelian subgroup C1      NOp   1
                         Standard orientation:                         
 ---------------------------------------------------------------------
 Center     Atomic      Atomic             Coordinates (Angstroms)
 Number     Number       Type             X           Y           Z
 ---------------------------------------------------------------------
      1          8           0       -0.282431    1.717870    0.000000
      2          8           0        0.000000    0.556777    0.000000
      3          1           0        0.640898   -0.972227    0.000000
      4          8           0        0.228218   -1.821800    0.000000
      5          1           0       -0.207196   -2.650542    0.000000
 ---------------------------------------------------------------------
 Rotational constants (GHZ):    719.5086075      4.3991126      4.3723796
 Standard basis: 6-31+G(d,p) (6D, 7F)
 There are    50 symmetry adapted basis functions of A'  symmetry.
 There are    17 symmetry adapted basis functions of A"  symmetry.
 Integral buffers will be    262144 words long.
 Raffenetti 2 integral format.
 Two-electron integral symmetry is turned on.
    67 basis functions,   110 primitive gaussians,    67 cartesian basis functions
    13 alpha electrons       13 beta electrons
       nuclear repulsion energy        67.5991677997 Hartrees.
 NAtoms=    5 NActive=    5 NUniq=    5 SFac= 7.50D-01 NAtFMM=   80 NAOKFM=F Big=F
 One-electron integrals computed using PRISM.
 NBasis=    67 RedAO= T  NBF=    50    17
 NBsUse=    67 1.00D-06 NBFU=    50    17
 Initial guess read from the read-write file.
 B after Tr=     0.000000    0.000000    0.000000
         Rot=    1.000000    0.000000    0.000000    0.000000 Ang=   0.00 deg.
 Initial guess orbital symmetries:
       Occupied  (A') (A') (A') (A') (A') (A') (A') (A') (A') (A")
                 (A') (A") (A')
       Virtual   (A") (A') (A') (A') (A") (A') (A') (A") (A') (A')
                 (A") (A') (A') (A') (A') (A') (A') (A') (A") (A')
                 (A') (A") (A') (A') (A") (A') (A') (A") (A') (A')
                 (A") (A') (A") (A') (A') (A') (A") (A') (A') (A")
[...]
                     1                      2                      3
                     A                      A                      A
 Frequencies -- -1546.3593             -1536.5023               102.3138
 Red. masses --     1.1271                 1.1292                 6.5988
 Frc consts  --     1.5880                 1.5707                 0.0407
 IR Inten    --   534.3966               535.7880                 0.1499
  Atom  AN      X      Y      Z        X      Y      Z        X      Y      Z
     1   8     0.00   0.00   0.00     0.00   0.00   0.00     0.45   0.06   0.00
     2   8     0.00   0.00   0.00     0.00   0.00   0.00    -0.02  -0.13   0.00
     3   1     0.13  -0.34   0.59    -0.24   0.53   0.37    -0.23  -0.30   0.02
     4   8    -0.02   0.04  -0.08     0.03  -0.07  -0.05    -0.38   0.06   0.00
     5   1     0.13  -0.36   0.60    -0.25   0.56   0.37    -0.54   0.44  -0.02
                     4                      5                      6
                     A                      A                      A
 Frequencies --   195.8466               320.8266               400.9233
 Red. masses --     7.4936                 1.0522                 1.1104
 Frc consts  --     0.1693                 0.0638                 0.1052
 IR Inten    --     2.6939                 0.3288                 1.2607
  Atom  AN      X      Y      Z        X      Y      Z        X      Y      Z
     1   8    -0.15  -0.06   0.00     0.01   0.00  -0.01    -0.05   0.00   0.00
     2   8     0.50   0.20   0.00    -0.01  -0.01   0.04     0.04   0.04   0.00
     3   1    -0.48   0.26  -0.05    -0.02   0.11  -0.73     0.30  -0.69  -0.11
     4   8    -0.31  -0.12   0.00     0.00   0.01  -0.03     0.01  -0.04   0.00
     5   1    -0.16  -0.49   0.05     0.02  -0.09   0.67    -0.26   0.58   0.10
                     7                      8                      9
                     A                      A                      A
 Frequencies --  1778.1025              3994.1167              4427.6204
 Red. masses --    15.9854                 1.0114                 1.1223
 Frc consts  --    29.7774                 9.5061                12.9630
 IR Inten    --     0.3364               184.2762              1017.0035
  Atom  AN      X      Y      Z        X      Y      Z        X      Y      Z
     1   8    -0.26   0.66   0.00     0.00   0.00   0.00     0.00   0.00   0.00
     2   8     0.26  -0.66   0.00     0.00   0.00   0.00     0.00   0.00   0.00
     3   1     0.02  -0.02   0.00     0.75   0.32   0.02    -0.51  -0.22  -0.02
     4   8     0.00   0.00   0.00    -0.01  -0.01   0.00     0.08   0.03   0.00
     5   1    -0.01   0.01   0.00    -0.53  -0.23  -0.02    -0.76  -0.33  -0.02

 -------------------
 - Thermochemistry -
 -------------------
 Temperature   298.150 Kelvin.  Pressure   1.00000 Atm.
 Atom     1 has atomic number  8 and mass  15.99491
 Atom     2 has atomic number  8 and mass  15.99491
 Atom     3 has atomic number  1 and mass   1.00783
 Atom     4 has atomic number  8 and mass  15.99491
 Atom     5 has atomic number  1 and mass   1.00783
 Molecular mass:    50.00039 amu.
 Principal axes and moments of inertia in atomic units:
                           1         2         3
     Eigenvalues --    36.43614 386.05668 422.48183
           X            0.99997   0.00817   0.00036
           Y           -0.00817   0.99996   0.00189
           Z           -0.00035  -0.00189   1.00000
 This molecule is an asymmetric top.
 Rotational symmetry number  1.
 Rotational temperatures (Kelvin)      2.37714     0.22436     0.20501
 Rotational constants (GHZ):          49.53162     4.67481     4.27176
    2 imaginary frequencies ignored.
 Zero-point vibrational energy      67109.0 (Joules/Mol)
                                   16.03944 (Kcal/Mol)
 Warning -- explicit consideration of   4 degrees of freedom as
           vibrations may cause significant error
 Vibrational temperatures:    147.21   281.78   461.60   576.84  2558.29
          (Kelvin)           5746.64  6370.35
 
 Zero-point correction=                           0.025560 (Hartree/Particle)
 Thermal correction to Energy=                    0.030395
 Thermal correction to Enthalpy=                  0.031339
 Thermal correction to Gibbs Free Energy=        -0.001351
 Sum of electronic and zero-point Energies=           -226.533464
 Sum of electronic and thermal Energies=              -226.528629
 Sum of electronic and thermal Enthalpies=            -226.527685
 Sum of electronic and thermal Free Energies=         -226.560375
 
                     E (Thermal)             CV                S
                      KCal/Mol        Cal/Mol-Kelvin    Cal/Mol-Kelvin
 Total                   19.073             12.884             68.803
 Electronic               0.000              0.000              0.000
 Translational            0.889              2.981             37.652
 Rotational               0.889              2.981             23.301
 Vibrational             17.296              6.922              7.850
 Vibration     1          0.604              1.947              3.410
 Vibration     2          0.636              1.846              2.172
 Vibration     3          0.706              1.634              1.306
 Vibration     4          0.767              1.468              0.959
                       Q            Log10(Q)             Ln(Q)
 Total Bot       0.418283D+01          0.621470          1.430988
 Total V=0       0.239026D+13         12.378445         28.502424
 Vib (Bot)       0.109072D-10        -10.962287        -25.241600
 Vib (Bot)    1  0.200496D+01          0.302105          0.695623
 Vib (Bot)    2  0.101972D+01          0.008482          0.019530
 Vib (Bot)    3  0.585642D+00         -0.232368         -0.535046
 Vib (Bot)    4  0.444264D+00         -0.352359         -0.811336
 Vib (V=0)       0.623287D+01          0.794688          1.829836
 Vib (V=0)    1  0.256636D+01          0.409318          0.942490
 Vib (V=0)    2  0.163571D+01          0.213706          0.492076
 Vib (V=0)    3  0.127005D+01          0.103821          0.239056
 Vib (V=0)    4  0.116886D+01          0.067762          0.156027
 Electronic      0.100000D+01          0.000000          0.000000
 Translational   0.138968D+08          7.142915         16.447170
 Rotational      0.275957D+05          4.440842         10.225417
 ***** Axes restored to original set *****
 -------------------------------------------------------------------
 Center     Atomic                   Forces (Hartrees/Bohr)
 Number     Number              X              Y              Z
 -------------------------------------------------------------------
      1        8          -0.000064908    0.000038662    0.000358369
      2        8           0.000108988   -0.000123723   -0.000304450
      3        1          -0.000122983    0.000164982   -0.000164470
      4        8           0.000042357    0.000118289    0.000456477
      5        1           0.000036547   -0.000198211   -0.000345926
 -------------------------------------------------------------------
 Cartesian Forces:  Max     0.000456477 RMS     0.000217233

 GradGradGradGradGradGradGradGradGradGradGradGradGradGradGradGradGradGrad
 Berny optimization.
 Internal  Forces:  Max     0.000305145 RMS     0.000170338
 Search for a saddle point.
 Step number   1 out of a maximum of    2
 All quantities printed in internal units (Hartrees-Bohrs-Radians)
 Swaping is turned off.
 Second derivative matrix not updated -- analytic derivatives used.
 The second derivative matrix:
                          R1        R2        R3        R4        A1
           R1           0.95826
           R2          -0.00137   0.00942
           R3           0.00232   0.01263   0.62862
           R4           0.00054  -0.00018  -0.02349   0.65960
           A1           0.00457   0.00019  -0.00357  -0.00070   0.03700
           A2          -0.00554   0.00158   0.00059  -0.00065   0.00037
           A3           0.00002  -0.00020  -0.00002   0.00059   0.00008
           D1           0.00025   0.00000   0.00003  -0.00004  -0.00015
           D2           0.00026   0.00002   0.00037   0.00022   0.00004
                          A2        A3        D1        D2
           A2           0.01283
           A3          -0.00165  -0.24372
           D1           0.00029  -0.00145   0.00081
           D2           0.00001   0.00054   0.00000   0.00000
     Eigenvalues ---   -0.24370   0.00081   0.00544   0.00920   0.01484
     Eigenvalues ---    0.03928   0.61704   0.67230   0.95850
 Eigenvectors required to have negative eigenvalues:
                          A3        A2        D1        D2        R2
   1                    0.99995   0.00704   0.00594  -0.00236   0.00177
                          A1        R4        R3        R1
   1                    0.00074  -0.00054   0.00016   0.00008
 Angle between quadratic step and forces=  71.47 degrees.
 Linear search not attempted -- option 19 set.
 SLEqS1 Cycle:   151 Max:0.159502E-01 RMS:0.501113E-02 Conv:0.105793E-03
 SLEqS1 Cycle:   151 Max:0.159502E-01 RMS:0.501113E-02 Conv:0.105793E-03
 Iteration  1 RMS(Cart)=  0.00780309 RMS(Int)=  0.00543559
 SLEqS1 Cycle:    20 Max:0.641267E-02 RMS: 1324.72     Conv:0.387172E-02
 Iteration  2 RMS(Cart)=  0.00335870 RMS(Int)=  0.00333519
 SLEqS1 Cycle:   151 Max:0.838227E-03 RMS:0.314009E-03 Conv:0.130618E-03
 SLEqS1 Cycle:    37 Max:0.336173E-02 RMS:0.121893E-02 Conv:0.130618E-03
 Iteration  3 RMS(Cart)=  0.00162675 RMS(Int)=  0.00252296
 SLEqS1 Cycle:   151 Max:0.315547E-02 RMS:0.936786E-03 Conv:0.161743E-04
 SLEqS1 Cycle:    37 Max:0.276928E-02 RMS:0.972350E-03 Conv:0.161743E-04
 Iteration  4 RMS(Cart)=  0.00054942 RMS(Int)=  0.00226214
 SLEqS1 Cycle:   151 Max:0.271898E-02 RMS:0.878350E-03 Conv:0.385831E-06
 SLEqS1 Cycle:   151 Max:0.271898E-02 RMS:0.878349E-03 Conv:0.385831E-06
 Iteration  5 RMS(Cart)=  0.00113525 RMS(Int)=  0.00172809
 SLEqS1 Cycle:   151 Max:0.203632E-02 RMS:0.689487E-03 Conv:0.204721E-05
 SLEqS1 Cycle:   151 Max:0.203632E-02 RMS:0.689490E-03 Conv:0.204721E-05
 Iteration  6 RMS(Cart)=  0.00085366 RMS(Int)=  0.00132219
 SLEqS1 Cycle:   151 Max:0.151527E-02 RMS:0.547286E-03 Conv:0.534415E-06
 SLEqS1 Cycle:   151 Max:0.151528E-02 RMS:0.547291E-03 Conv:0.534415E-06
 Iteration  7 RMS(Cart)=  0.00064440 RMS(Int)=  0.00101624
 SLEqS1 Cycle:   151 Max:0.111935E-02 RMS:0.444130E-03 Conv:0.238929E-06
 SLEqS1 Cycle:   151 Max:0.111935E-02 RMS:0.444131E-03 Conv:0.238929E-06
 Iteration  8 RMS(Cart)=  0.00048798 RMS(Int)=  0.00078683
 SLEqS1 Cycle:   151 Max:0.819068E-03 RMS:0.371400E-03 Conv:0.106270E-06
 SLEqS1 Cycle:   151 Max:0.819044E-03 RMS:0.371390E-03 Conv:0.106270E-06
 Iteration  9 RMS(Cart)=  0.00036879 RMS(Int)=  0.00061669
 SLEqS1 Cycle:   151 Max:0.740778E-03 RMS:0.321613E-03 Conv:0.734468E-07
 SLEqS1 Cycle:   151 Max:0.740762E-03 RMS:0.321597E-03 Conv:0.734468E-07
 Iteration 10 RMS(Cart)=  0.00028002 RMS(Int)=  0.00049144
 SLEqS1 Cycle:   151 Max:0.722481E-03 RMS:0.288491E-03 Conv:0.568956E-07
 SLEqS1 Cycle:   151 Max:0.722450E-03 RMS:0.288462E-03 Conv:0.568956E-07
 Iteration 11 RMS(Cart)=  0.00021315 RMS(Int)=  0.00040064
 SLEqS1 Cycle:   151 Max:0.708394E-03 RMS:0.267064E-03 Conv:0.400954E-07
 SLEqS1 Cycle:   151 Max:0.708344E-03 RMS:0.267025E-03 Conv:0.400954E-07
 Iteration 12 RMS(Cart)=  0.00016174 RMS(Int)=  0.00033654
 SLEqS1 Cycle:   151 Max:0.698245E-03 RMS:0.253925E-03 Conv:0.125041E-07
 SLEqS1 Cycle:   151 Max:0.698203E-03 RMS:0.253895E-03 Conv:0.125041E-07
 Iteration 13 RMS(Cart)=  0.00011558 RMS(Int)=  0.00029497
 SLEqS1 Cycle:   151 Max:0.692927E-03 RMS:0.247504E-03 Conv:0.963713E-09
 SLEqS1 Cycle:   151 Max:0.692908E-03 RMS:0.247489E-03 Conv:0.963713E-09
 Iteration 14 RMS(Cart)=  0.00005867 RMS(Int)=  0.00027583
 SLEqS1 Cycle:   151 Max:0.688229E-03 RMS:0.243301E-03 Conv:0.213577E-08
 SLEqS1 Cycle:   151 Max:0.688226E-03 RMS:0.243299E-03 Conv:0.213577E-08
 Iteration 15 RMS(Cart)=  0.00005706 RMS(Int)=  0.00025885
 SLEqS1 Cycle:   151 Max:0.683555E-03 RMS:0.239779E-03 Conv:0.410948E-08
 SLEqS1 Cycle:   151 Max:0.683552E-03 RMS:0.239777E-03 Conv:0.410948E-08
 Iteration 16 RMS(Cart)=  0.00005514 RMS(Int)=  0.00024430
 SLEqS1 Cycle:   151 Max:0.680429E-03 RMS:0.237569E-03 Conv:0.167474E-08
 SLEqS1 Cycle:   151 Max:0.680426E-03 RMS:0.237567E-03 Conv:0.167474E-08
 Iteration 17 RMS(Cart)=  0.00003523 RMS(Int)=  0.00023612
 SLEqS1 Cycle:   151 Max:0.678636E-03 RMS:0.236441E-03 Conv:0.781174E-09
 SLEqS1 Cycle:   151 Max:0.678636E-03 RMS:0.236441E-03 Conv:0.781174E-09
 Iteration 18 RMS(Cart)=  0.00002070 RMS(Int)=  0.00023176
 SLEqS1 Cycle:   151 Max:0.676887E-03 RMS:0.235503E-03 Conv:0.855405E-09
 SLEqS1 Cycle:   151 Max:0.676886E-03 RMS:0.235502E-03 Conv:0.855405E-09
 Iteration 19 RMS(Cart)=  0.00002111 RMS(Int)=  0.00022769
 SLEqS1 Cycle:   151 Max:0.675388E-03 RMS:0.234778E-03 Conv:0.792009E-09
 SLEqS1 Cycle:   151 Max:0.675385E-03 RMS:0.234776E-03 Conv:0.792009E-09
 Iteration 20 RMS(Cart)=  0.00001663 RMS(Int)=  0.00022476
 SLEqS1 Cycle:   151 Max:0.674988E-03 RMS:0.234628E-03 Conv:0.652534E-09
 SLEqS1 Cycle:   151 Max:0.674986E-03 RMS:0.234627E-03 Conv:0.652534E-09
 Iteration 21 RMS(Cart)=  0.00000216 RMS(Int)=  0.00022440
 SLEqS1 Cycle:   151 Max:0.674750E-03 RMS:0.234497E-03 Conv:0.666558E-09
 SLEqS1 Cycle:   151 Max:0.674758E-03 RMS:0.234501E-03 Conv:0.666558E-09
 Iteration 22 RMS(Cart)=  0.00000385 RMS(Int)=  0.00022376
 SLEqS1 Cycle:   151 Max:0.172313E-03 RMS:0.651002E-04 Conv:0.669318E-09
 SLEqS1 Cycle:   151 Max:0.674583E-03 RMS:0.234393E-03 Conv:0.669318E-09
 Iteration 23 RMS(Cart)=  0.00000391 RMS(Int)=  0.00022313
 SLEqS1 Cycle:   151 Max:0.673824E-03 RMS:0.234079E-03 Conv:0.711381E-09
 SLEqS1 Cycle:   151 Max:0.673813E-03 RMS:0.234074E-03 Conv:0.711381E-09
 Iteration 24 RMS(Cart)=  0.00000796 RMS(Int)=  0.00022189
 SLEqS1 Cycle:   151 Max:0.673463E-03 RMS:0.233952E-03 Conv:0.664676E-09
 SLEqS1 Cycle:   151 Max:0.673461E-03 RMS:0.233951E-03 Conv:0.664676E-09
 Iteration 25 RMS(Cart)=  0.00000270 RMS(Int)=  0.00022148
 SLEqS1 Cycle:   151 Max:0.673095E-03 RMS:0.233793E-03 Conv:0.684088E-09
 SLEqS1 Cycle:   151 Max:0.673094E-03 RMS:0.233793E-03 Conv:0.684088E-09
 Iteration 26 RMS(Cart)=  0.00000466 RMS(Int)=  0.00022080
 SLEqS1 Cycle:   151 Max:0.673460E-03 RMS:0.233971E-03 Conv:0.614451E-09
 SLEqS1 Cycle:   151 Max:0.673461E-03 RMS:0.233971E-03 Conv:0.614451E-09
 Iteration 27 RMS(Cart)=  0.00000463 RMS(Int)=  0.00022148
 SLEqS1 Cycle:   151 Max:0.673029E-03 RMS:0.233752E-03 Conv:0.704318E-09
 SLEqS1 Cycle:   151 Max:0.673029E-03 RMS:0.233751E-03 Conv:0.704318E-09
 Iteration 28 RMS(Cart)=  0.00000654 RMS(Int)=  0.00022052
 SLEqS1 Cycle:   151 Max:0.673124E-03 RMS:0.233819E-03 Conv:0.630437E-09
 SLEqS1 Cycle:   151 Max:0.673124E-03 RMS:0.233819E-03 Conv:0.630437E-09
 Iteration 29 RMS(Cart)=  0.00000220 RMS(Int)=  0.00022084
 SLEqS1 Cycle:   151 Max:0.672990E-03 RMS:0.233733E-03 Conv:0.673041E-09
 SLEqS1 Cycle:   151 Max:0.672984E-03 RMS:0.233730E-03 Conv:0.673041E-09
 Iteration 30 RMS(Cart)=  0.00000324 RMS(Int)=  0.00022037
 SLEqS1 Cycle:   151 Max:0.672306E-03 RMS:0.233466E-03 Conv:0.727547E-09
 SLEqS1 Cycle:   151 Max:0.672300E-03 RMS:0.233464E-03 Conv:0.727547E-09
 Iteration 31 RMS(Cart)=  0.00000790 RMS(Int)=  0.00021928
 SLEqS1 Cycle:   151 Max:0.672006E-03 RMS:0.233362E-03 Conv:0.675545E-09
 SLEqS1 Cycle:   151 Max:0.672005E-03 RMS:0.233362E-03 Conv:0.675545E-09
 Iteration 32 RMS(Cart)=  0.00000295 RMS(Int)=  0.00021889
 SLEqS1 Cycle:   151 Max:0.672028E-03 RMS:0.233370E-03 Conv:0.652032E-09
 SLEqS1 Cycle:   151 Max:0.672032E-03 RMS:0.233372E-03 Conv:0.652032E-09
 Iteration 33 RMS(Cart)=  0.00000026 RMS(Int)=  0.00021885
 Variable       Old X    -DE/DX   Delta X   Delta X   Delta X     New X
                                 (Linear)    (Quad)   (Total)
    R1        2.25901   0.00031   0.00000   0.00042   0.00043   2.25944
    R2        3.68027  -0.00007   0.00000  -0.01239  -0.01240   3.66787
    R3        1.78630   0.00017   0.00000   0.00049   0.00006   1.78636
    R4        1.77329   0.00000   0.00000   0.00003   0.00006   1.77335
    A1        1.81794  -0.00004   0.00000  -0.00101  -0.00104   1.81690
    A2        2.86337   0.00028   0.00000   0.02196   0.02179   2.88516
    A3        3.14159  -0.00023   0.00000   0.00046   0.00000   3.14159
    D1       -0.16444   0.00005   0.00000   0.05667   0.05667  -0.10777
    D2        1.74938   0.00000   0.00000  -0.00008  -0.00008   1.74930
         Item               Value     Threshold  Converged?
 Maximum Force            0.000305     0.000450     YES
 RMS     Force            0.000170     0.000300     YES
 Maximum Displacement     0.023317     0.001800     NO 
 RMS     Displacement     0.013817     0.001200     NO 
 Predicted change in Energy=-5.005984D-06
 GradGradGradGradGradGradGradGradGradGradGradGradGradGradGradGradGradGrad

 1|1|UNPC-DESKTOP-319GPER|Freq|RM062X|6-31+G(d,p)|H2O3|SAGAD|09-Feb-202
 1|0||#N Geom=AllCheck Guess=TCheck SCRF=Check GenChk RM062X/6-31+G(d,p
 ) Freq||ts OOH vs OH||0,1|O,-2.1960098064,1.3265577392,0.53864414|O,-1
 .8303205468,1.1051750338,-0.577724702|H,-0.1560123881,0.1374366502,-0.
 3475260433|O,0.6214479589,-0.2606300417,0.0139039486|H,1.3932478824,-0
 .6557993914,0.3727026567||Version=IA32W-G09RevA.02|State=1-A|HF=-226.5
 590242|RMSD=1.971e-010|RMSF=2.172e-004|ZeroPoint=0.0255605|Thermal=0.0
 303952|Dipole=-0.1320455,0.075968,0.0471143|DipoleDeriv=0.0204173,0.00
 53663,-0.0130843,0.0052337,0.0273279,0.0091705,0.0212629,-0.0118527,0.
 0707106,-0.0999837,0.0592325,0.0274192,0.0622438,-0.0310188,-0.0179425
 ,-0.0325376,0.0179922,-0.0269786,0.8057812,-0.1807503,-0.004513,-0.178
 8564,0.580707,0.0037966,0.1055993,-0.058517,0.4480541,-1.2772029,0.136
 3627,-0.0236911,0.1307783,-1.0992784,0.0126342,-0.1121032,0.0618339,-1
 .0032066,0.5509881,-0.0202113,0.0138692,-0.0193994,0.5222624,-0.007658
 9,0.0177785,-0.0094564,0.5114205|Polar=15.7756038,-2.5040825,12.810857
 1,-1.7183389,1.0512666,17.4552896|PG=C01 [X(H2O3)]|NImag=2||0.09559484
 ,-0.05741584,0.03524620,-0.27254499,0.16508511,0.83632147,-0.09567177,
 0.05713079,0.27347995,0.10302658,0.05700426,-0.03556186,-0.16573329,-0
 .06015659,0.03913291,0.26870269,-0.16279497,-0.83426375,-0.26876224,0.
 16304950,0.83588816,-0.00051516,0.00074351,-0.00254975,0.00204648,-0.0
 0256167,0.00418003,0.40188028,0.00091873,0.00023776,0.00148077,-0.0023
 4045,-0.00119287,-0.00241029,-0.22500764,0.07750468,0.00457548,-0.0027
 7674,-0.00410158,-0.00161179,0.00097804,0.00057552,0.20486766,-0.10420
 732,0.06138855,0.00040039,-0.00026148,0.00143097,-0.00944596,0.0052572
 6,-0.00347835,-0.40547224,0.24903802,-0.22904637,0.85006831,-0.0002972
 2,0.00013703,-0.00071609,0.00469545,-0.00298391,0.00176276,0.24970190,
 -0.04602929,0.11689500,-0.51807188,0.10344121,-0.00008560,0.00010582,0
 .00148577,-0.00417633,0.00234716,-0.00256072,-0.22664618,0.11536647,-0
 .02481052,0.47232675,-0.24089632,0.05656070,0.00019169,-0.00019699,0.0
 0018382,0.00004466,0.00045674,-0.00064213,0.00206064,-0.02260866,0.021
 21502,-0.43555051,0.26397175,-0.24141864,0.43325351,-0.00020992,-0.000
 05914,-0.00011650,0.00067079,0.00060573,0.00039300,-0.02287611,-0.0305
 2028,-0.01088898,0.26403808,-0.05456503,0.12307687,-0.24162285,0.08453
 872,-0.00064758,0.00038078,0.00055810,0.00107041,-0.00064141,0.0003608
 0,0.02014824,-0.01022963,-0.03305196,-0.24123300,0.12295465,-0.0306752
 2,0.22066193,-0.11246438,0.06280829||0.00006491,-0.00003866,-0.0003583
 7,-0.00010899,0.00012372,0.00030445,0.00012298,-0.00016498,0.00016447,
 -0.00004236,-0.00011829,-0.00045648,-0.00003655,0.00019821,0.00034593|
 ||@


 DON'T WORRY CHARLIE BROWN...WE LEARN MORE FROM LOSING 
 THAN WE DO FROM WINNING.
 THEN THAT MAKES ME THE SMARTEST PERSON IN THE WORLD...
 CHARLES SCHULZ 'PEANUTS'
 Job cpu time:  0 days  0 hours  0 minutes 11.0 seconds.
 File lengths (MBytes):  RWF=      6 Int=      0 D2E=      0 Chk=      1 Scr=      1
 Normal termination of Gaussian 09 at Tue Feb 09 18:23:23 2021.
