 Entering Link 1 = C:\G09W\l1.exe PID=     10808.
  
 Copyright (c) 1988,1990,1992,1993,1995,1998,2003,2009, Gaussian, Inc.
                  All Rights Reserved.
  
 This is part of the Gaussian(R) 09 program.  It is based on
 the Gaussian(R) 03 system (copyright 2003, Gaussian, Inc.),
 the Gaussian(R) 98 system (copyright 1998, Gaussian, Inc.),
 the Gaussian(R) 94 system (copyright 1995, Gaussian, Inc.),
 the Gaussian 92(TM) system (copyright 1992, Gaussian, Inc.),
 the Gaussian 90(TM) system (copyright 1990, Gaussian, Inc.),
 the Gaussian 88(TM) system (copyright 1988, Gaussian, Inc.),
 the Gaussian 86(TM) system (copyright 1986, Carnegie Mellon
 University), and the Gaussian 82(TM) system (copyright 1983,
 Carnegie Mellon University). Gaussian is a federally registered
 trademark of Gaussian, Inc.
  
 This software contains proprietary and confidential information,
 including trade secrets, belonging to Gaussian, Inc.
  
 This software is provided under written license and may be
 used, copied, transmitted, or stored only in accord with that
 written license.
  
 The following legend is applicable only to US Government
 contracts under FAR:
  
                    RESTRICTED RIGHTS LEGEND
  
 Use, reproduction and disclosure by the US Government is
 subject to restrictions as set forth in subparagraphs (a)
 and (c) of the Commercial Computer Software - Restricted
 Rights clause in FAR 52.227-19.
  
 Gaussian, Inc.
 340 Quinnipiac St., Bldg. 40, Wallingford CT 06492
  
  
 ---------------------------------------------------------------
 Warning -- This program may not be used in any manner that
 competes with the business of Gaussian, Inc. or will provide
 assistance to any competitor of Gaussian, Inc.  The licensee
 of this program is prohibited from giving any competitor of
 Gaussian, Inc. access to this program.  By using this program,
 the user acknowledges that Gaussian, Inc. is engaged in the
 business of creating and licensing software in the field of
 computational chemistry and represents and warrants to the
 licensee that it is not a competitor of Gaussian, Inc. and that
 it will not use this program in any manner prohibited above.
 ---------------------------------------------------------------
  

 Cite this work as:
 Gaussian 09, Revision A.02,
 M. J. Frisch, G. W. Trucks, H. B. Schlegel, G. E. Scuseria, 
 M. A. Robb, J. R. Cheeseman, G. Scalmani, V. Barone, B. Mennucci, 
 G. A. Petersson, H. Nakatsuji, M. Caricato, X. Li, H. P. Hratchian, 
 A. F. Izmaylov, J. Bloino, G. Zheng, J. L. Sonnenberg, M. Hada, 
 M. Ehara, K. Toyota, R. Fukuda, J. Hasegawa, M. Ishida, T. Nakajima, 
 Y. Honda, O. Kitao, H. Nakai, T. Vreven, J. A. Montgomery, Jr., 
 J. E. Peralta, F. Ogliaro, M. Bearpark, J. J. Heyd, E. Brothers, 
 K. N. Kudin, V. N. Staroverov, R. Kobayashi, J. Normand, 
 K. Raghavachari, A. Rendell, J. C. Burant, S. S. Iyengar, J. Tomasi, 
 M. Cossi, N. Rega, J. M. Millam, M. Klene, J. E. Knox, J. B. Cross, 
 V. Bakken, C. Adamo, J. Jaramillo, R. Gomperts, R. E. Stratmann, 
 O. Yazyev, A. J. Austin, R. Cammi, C. Pomelli, J. W. Ochterski, 
 R. L. Martin, K. Morokuma, V. G. Zakrzewski, G. A. Voth, 
 P. Salvador, J. J. Dannenberg, S. Dapprich, A. D. Daniels, 
 O. Farkas, J. B. Foresman, J. V. Ortiz, J. Cioslowski, 
 and D. J. Fox, Gaussian, Inc., Wallingford CT, 2009.
 
 ******************************************
 Gaussian 09:  IA32W-G09RevA.02 11-Jun-2009
                23-Nov-2020 
 ******************************************
 %nprocshared=4
 Will use up to    4 processors via shared memory.
 %mem=150MW
 %chk=C:\Users\sagad\Documents\rayGit\FQ\quimicaComputacional\clase8Pka\myAcid\re
 actives\chloroformicAcidM062X.chk
 --------------------------
 # opt freq 6-31+g(d) m062x
 --------------------------
 1/14=-1,18=20,19=15,26=3,38=1/1,3;
 2/9=110,12=2,17=6,18=5,40=1/2;
 3/5=1,6=6,7=11,11=2,16=1,25=1,30=1,71=1,74=-55/1,2,3;
 4//1;
 5/5=2,38=5/2;
 6/7=2,8=2,9=2,10=2,28=1/1;
 7//1,2,3,16;
 1/14=-1,18=20,19=15/3(2);
 2/9=110/2;
 99//99;
 2/9=110/2;
 3/5=1,6=6,7=11,11=2,16=1,25=1,30=1,71=1,74=-55/1,2,3;
 4/5=5,16=3/1;
 5/5=2,38=5/2;
 7//1,2,3,16;
 1/14=-1,18=20,19=15/3(-5);
 2/9=110/2;
 6/7=2,8=2,9=2,10=2,19=2,28=1/1;
 99/9=1/99;
 -----------------------
 Chloroformic Acid M062X
 -----------------------
 Symbolic Z-matrix:
 Charge =  0 Multiplicity = 1
 C                    -0.29983   1.50626   0.1258 
 O                     0.06173   2.24068   1.26652 
 O                     0.61535   0.64982  -0.63005 
 Cl                   -2.03345   1.67059  -0.39861 
 H                     0.98924   2.09027   1.46324 
 

 GradGradGradGradGradGradGradGradGradGradGradGradGradGradGradGradGradGrad
 Berny optimization.
 Initialization pass.
                           ----------------------------
                           !    Initial Parameters    !
                           ! (Angstroms and Degrees)  !
 --------------------------                            --------------------------
 ! Name  Definition              Value          Derivative Info.                !
 --------------------------------------------------------------------------------
 ! R1    R(1,2)                  1.404          estimate D2E/DX2                !
 ! R2    R(1,3)                  1.4637         estimate D2E/DX2                !
 ! R3    R(1,4)                  1.8186         estimate D2E/DX2                !
 ! R4    R(2,5)                  0.96           estimate D2E/DX2                !
 ! A1    A(2,1,3)              124.3747         estimate D2E/DX2                !
 ! A2    A(2,1,4)              115.6253         estimate D2E/DX2                !
 ! A3    A(3,1,4)              120.0            estimate D2E/DX2                !
 ! A4    A(1,2,5)              109.4712         estimate D2E/DX2                !
 ! D1    D(3,1,2,5)              0.0            estimate D2E/DX2                !
 ! D2    D(4,1,2,5)            180.0            estimate D2E/DX2                !
 --------------------------------------------------------------------------------
 Trust Radius=3.00D-01 FncErr=1.00D-07 GrdErr=1.00D-06
 Number of steps in this run=  20 maximum allowed number of steps= 100.
 GradGradGradGradGradGradGradGradGradGradGradGradGradGradGradGradGradGrad

                          Input orientation:                          
 ---------------------------------------------------------------------
 Center     Atomic      Atomic             Coordinates (Angstroms)
 Number     Number       Type             X           Y           Z
 ---------------------------------------------------------------------
      1          6           0       -0.299832    1.506258    0.125795
      2          8           0        0.061730    2.240682    1.266516
      3          8           0        0.615353    0.649820   -0.630050
      4         17           0       -2.033454    1.670587   -0.398612
      5          1           0        0.989242    2.090274    1.463238
 ---------------------------------------------------------------------
                    Distance matrix (angstroms):
                    1          2          3          4          5
     1  C    0.000000
     2  O    1.404047   0.000000
     3  O    1.463677   2.536592   0.000000
     4  Cl   1.818640   2.736322   2.848105   0.000000
     5  H    1.947187   0.960000   2.568376   3.574816   0.000000
 Stoichiometry    CHClO2
 Framework group  CS[SG(CHClO2)]
 Deg. of freedom     7
 Full point group                 CS      NOp   2
 Largest Abelian subgroup         CS      NOp   2
 Largest concise Abelian subgroup C1      NOp   1
                         Standard orientation:                         
 ---------------------------------------------------------------------
 Center     Atomic      Atomic             Coordinates (Angstroms)
 Number     Number       Type             X           Y           Z
 ---------------------------------------------------------------------
      1          6           0        0.252619    0.392719    0.000000
      2          8           0       -0.555778    1.540692    0.000000
      3          8           0        1.716161    0.412601    0.000000
      4         17           0       -0.635222   -1.194476    0.000000
      5          1           0        0.000000    2.323450    0.000000
 ---------------------------------------------------------------------
 Rotational constants (GHZ):      9.5933029      4.5137771      3.0695247
 Standard basis: 6-31+G(d) (6D, 7F)
 There are    61 symmetry adapted basis functions of A'  symmetry.
 There are    21 symmetry adapted basis functions of A"  symmetry.
 Integral buffers will be    262144 words long.
 Raffenetti 2 integral format.
 Two-electron integral symmetry is turned on.
    82 basis functions,   156 primitive gaussians,    82 cartesian basis functions
    20 alpha electrons       20 beta electrons
       nuclear repulsion energy       140.2506783270 Hartrees.
 NAtoms=    5 NActive=    5 NUniq=    5 SFac= 7.50D-01 NAtFMM=   80 NAOKFM=F Big=F
 One-electron integrals computed using PRISM.
 NBasis=    82 RedAO= T  NBF=    61    21
 NBsUse=    82 1.00D-06 NBFU=    61    21
 Harris functional with IExCor= 1009 diagonalized for initial guess.
 ExpMin= 4.38D-02 ExpMax= 2.52D+04 ExpMxC= 3.78D+03 IAcc=2 IRadAn=         0 AccDes= 0.00D+00
 HarFok:  IExCor= 1009 AccDes= 0.00D+00 IRadAn=         0 IDoV= 1
 ScaDFX=  1.000000  1.000000  1.000000  1.000000
 FoFCou: FMM=F IPFlag=           0 FMFlag=      100000 FMFlg1=           0
         NFxFlg=           0 DoJE=T BraDBF=F KetDBF=T FulRan=T
         Omega=  0.000000  0.000000  1.000000  0.000000  0.000000 ICntrl=     500 IOpCl=  0
         NMat0=    1 NMatS0=    1 NMatT0=    0 NMatD0=    1 NMtDS0=    0 NMtDT0=    0
         I1Cent=           4 NGrid=           0.
 Petite list used in FoFCou.
 Initial guess orbital symmetries:
       Occupied  (A') (A') (A') (A') (A') (A') (A') (A") (A') (A')
                 (A') (A') (A') (A') (A") (A') (A") (A') (A") (A')
       Virtual   (A") (A') (A') (A') (A') (A") (A') (A') (A") (A')
                 (A') (A') (A') (A') (A") (A') (A') (A") (A') (A')
                 (A') (A') (A') (A") (A") (A') (A') (A') (A") (A')
                 (A") (A') (A') (A') (A") (A') (A') (A") (A') (A')
                 (A') (A") (A") (A') (A') (A") (A') (A') (A") (A')
                 (A') (A') (A") (A") (A') (A') (A') (A') (A') (A')
                 (A') (A')
 The electronic state of the initial guess is 1-A'.
 Requested convergence on RMS density matrix=1.00D-08 within 128 cycles.
 Requested convergence on MAX density matrix=1.00D-06.
 Requested convergence on             energy=1.00D-06.
 No special actions if energy rises.
 Keep R1 ints in memory in canonical form, NReq=6770502.
 SCF Done:  E(RM062X) =  -649.172657884     A.U. after   14 cycles
             Convg  =    0.2813D-08             -V/T =  2.0057

 **********************************************************************

            Population analysis using the SCF density.

 **********************************************************************

 Orbital symmetries:
       Occupied  (A') (A') (A') (A') (A') (A') (A") (A') (A') (A')
                 (A') (A') (A') (A') (A") (A') (A") (A') (A") (A')
       Virtual   (A") (A') (A') (A') (A') (A") (A') (A') (A") (A')
                 (A') (A') (A") (A') (A') (A') (A') (A") (A') (A')
                 (A') (A') (A') (A") (A") (A') (A') (A') (A") (A')
                 (A") (A') (A') (A') (A') (A") (A') (A") (A') (A')
                 (A') (A") (A") (A') (A') (A") (A') (A') (A') (A")
                 (A') (A') (A") (A") (A') (A') (A') (A') (A') (A')
                 (A') (A')
 The electronic state is 1-A'.
 Alpha  occ. eigenvalues -- -102.72729 -19.76489 -19.69152 -10.80964  -9.87246
 Alpha  occ. eigenvalues --   -7.59701  -7.58965  -7.58883  -1.25584  -1.08830
 Alpha  occ. eigenvalues --   -0.98317  -0.77040  -0.61726  -0.58754  -0.54905
 Alpha  occ. eigenvalues --   -0.49113  -0.44125  -0.43263  -0.38618  -0.37991
 Alpha virt. eigenvalues --   -0.05380  -0.02475   0.01422   0.03866   0.06068
 Alpha virt. eigenvalues --    0.06279   0.08732   0.09964   0.10246   0.15520
 Alpha virt. eigenvalues --    0.16808   0.18944   0.20202   0.20529   0.22274
 Alpha virt. eigenvalues --    0.25906   0.27566   0.28471   0.29557   0.34432
 Alpha virt. eigenvalues --    0.36222   0.56439   0.61485   0.61805   0.64879
 Alpha virt. eigenvalues --    0.68454   0.69269   0.80263   0.89320   0.89413
 Alpha virt. eigenvalues --    0.91121   1.01040   1.03754   1.08886   1.13318
 Alpha virt. eigenvalues --    1.14528   1.20725   1.29655   1.33438   1.34402
 Alpha virt. eigenvalues --    1.36307   1.41560   1.53858   1.54455   1.62130
 Alpha virt. eigenvalues --    1.74383   1.77249   1.83155   1.85750   1.86808
 Alpha virt. eigenvalues --    1.96541   2.18088   2.19600   2.40593   2.47565
 Alpha virt. eigenvalues --    2.52597   2.84952   2.88619   3.94348   4.13699
 Alpha virt. eigenvalues --    4.19183   4.39989
          Condensed to atoms (all electrons):
              1          2          3          4          5
     1  C    4.971590   0.162180   0.392866   0.248588  -0.002462
     2  O    0.162180   8.342993  -0.094381  -0.089504   0.189084
     3  O    0.392866  -0.094381   8.164880  -0.071691   0.007233
     4  Cl   0.248588  -0.089504  -0.071691  16.746748   0.009778
     5  H   -0.002462   0.189084   0.007233   0.009778   0.270405
 Mulliken atomic charges:
              1
     1  C    0.227238
     2  O   -0.510373
     3  O   -0.398907
     4  Cl   0.156080
     5  H    0.525962
 Sum of Mulliken atomic charges =   0.00000
 Mulliken charges with hydrogens summed into heavy atoms:
              1
     1  C    0.227238
     2  O    0.015589
     3  O   -0.398907
     4  Cl   0.156080
 Sum of Mulliken charges with hydrogens summed into heavy atoms =   0.00000
 Electronic spatial extent (au):  <R**2>=            365.9785
 Charge=              0.0000 electrons
 Dipole moment (field-independent basis, Debye):
    X=             -1.9494    Y=              1.5513    Z=              0.0000  Tot=              2.4913
 Quadrupole moment (field-independent basis, Debye-Ang):
   XX=            -36.2265   YY=            -21.8874   ZZ=            -29.6810
   XY=              1.3337   XZ=              0.0000   YZ=              0.0000
 Traceless Quadrupole moment (field-independent basis, Debye-Ang):
   XX=             -6.9616   YY=              7.3776   ZZ=             -0.4160
   XY=              1.3337   XZ=              0.0000   YZ=              0.0000
 Octapole moment (field-independent basis, Debye-Ang**2):
  XXX=             -9.9160  YYY=             18.8771  ZZZ=              0.0000  XYY=             -0.7289
  XXY=             -4.0969  XXZ=              0.0000  XZZ=             -0.3156  YZZ=              0.8210
  YYZ=              0.0000  XYZ=              0.0000
 Hexadecapole moment (field-independent basis, Debye-Ang**3):
 XXXX=           -189.3070 YYYY=           -169.1723 ZZZZ=            -29.7708 XXXY=            -29.5670
 XXXZ=              0.0000 YYYX=            -17.9223 YYYZ=              0.0000 ZZZX=              0.0000
 ZZZY=              0.0000 XXYY=            -70.6416 XXZZ=            -35.1454 YYZZ=            -45.3880
 XXYZ=              0.0000 YYXZ=              0.0000 ZZXY=             -9.1739
 N-N= 1.402506783270D+02 E-N=-1.817294607899D+03  KE= 6.455173081950D+02
 Symmetry A'   KE= 5.915295507562D+02
 Symmetry A"   KE= 5.398775743882D+01
 Calling FoFJK, ICntrl=      2127 FMM=F ISym2X=1 I1Cent= 0 IOpClX= 0 NMat=1 NMatS=1 NMatT=0.
 ***** Axes restored to original set *****
 -------------------------------------------------------------------
 Center     Atomic                   Forces (Hartrees/Bohr)
 Number     Number              X              Y              Z
 -------------------------------------------------------------------
      1        6           0.109458243   -0.081440057   -0.062236182
      2        8          -0.048095057   -0.034072011   -0.066379014
      3        8          -0.128956017    0.124569879    0.111725324
      4       17           0.051537490   -0.001079285    0.020696060
      5        1           0.016055341   -0.007978525   -0.003806188
 -------------------------------------------------------------------
 Cartesian Forces:  Max     0.128956017 RMS     0.072304229

 GradGradGradGradGradGradGradGradGradGradGradGradGradGradGradGradGradGrad
 Berny optimization.
 Internal  Forces:  Max     0.211230909 RMS     0.074867040
 Search for a local minimum.
 Step number   1 out of a maximum of   20
 All quantities printed in internal units (Hartrees-Bohrs-Radians)
 Mixed Optimization -- RFO/linear search
 Second derivative matrix not updated -- first step.
 The second derivative matrix:
                          R1        R2        R3        R4        A1
           R1           0.44956
           R2           0.00000   0.36508
           R3           0.00000   0.00000   0.24702
           R4           0.00000   0.00000   0.00000   0.55473
           A1           0.00000   0.00000   0.00000   0.00000   0.25000
           A2           0.00000   0.00000   0.00000   0.00000   0.00000
           A3           0.00000   0.00000   0.00000   0.00000   0.00000
           A4           0.00000   0.00000   0.00000   0.00000   0.00000
           D1           0.00000   0.00000   0.00000   0.00000   0.00000
           D2           0.00000   0.00000   0.00000   0.00000   0.00000
                          A2        A3        A4        D1        D2
           A2           0.25000
           A3           0.00000   0.25000
           A4           0.00000   0.00000   0.16000
           D1           0.00000   0.00000   0.00000   0.01638
           D2           0.00000   0.00000   0.00000   0.00000   0.01638
     Eigenvalues ---    0.01638   0.01638   0.16000   0.24702   0.25000
     Eigenvalues ---    0.25000   0.36508   0.44956   0.554731000.00000
 RFO step:  Lambda=-1.16500065D-01 EMin= 1.63824210D-02
 Linear search not attempted -- first point.
 Maximum step size (   0.300) exceeded in Quadratic search.
    -- Step size scaled by   0.606
 Iteration  1 RMS(Cart)=  0.08578098 RMS(Int)=  0.02094419
 Iteration  2 RMS(Cart)=  0.01876121 RMS(Int)=  0.00000281
 Iteration  3 RMS(Cart)=  0.00000369 RMS(Int)=  0.00000000
 Iteration  4 RMS(Cart)=  0.00000000 RMS(Int)=  0.00000000
 ClnCor:  largest displacement from symmetrization is 1.12D-08 for atom     2.
 Variable       Old X    -DE/DX   Delta X   Delta X   Delta X     New X
                                 (Linear)    (Quad)   (Total)
    R1        2.65326  -0.08730   0.00000  -0.09346  -0.09346   2.55980
    R2        2.76595  -0.21123   0.00000  -0.26580  -0.26580   2.50015
    R3        3.43673  -0.05518   0.00000  -0.09199  -0.09199   3.34474
    R4        1.81414   0.01603   0.00000   0.01448   0.01448   1.82861
    A1        2.17075  -0.00032   0.00000  -0.00052  -0.00052   2.17023
    A2        2.01804  -0.01078   0.00000  -0.01783  -0.01783   2.00021
    A3        2.09440   0.01110   0.00000   0.01835   0.01835   2.11275
    A4        1.91063  -0.01639   0.00000  -0.03591  -0.03591   1.87472
    D1        0.00000   0.00000   0.00000   0.00000   0.00000   0.00000
    D2        3.14159   0.00000   0.00000   0.00000   0.00000   3.14159
         Item               Value     Threshold  Converged?
 Maximum Force            0.211231     0.000450     NO 
 RMS     Force            0.074867     0.000300     NO 
 Maximum Displacement     0.161302     0.001800     NO 
 RMS     Displacement     0.100450     0.001200     NO 
 Predicted change in Energy=-5.444932D-02
 GradGradGradGradGradGradGradGradGradGradGradGradGradGradGradGradGradGrad

                          Input orientation:                          
 ---------------------------------------------------------------------
 Center     Atomic      Atomic             Coordinates (Angstroms)
 Number     Number       Type             X           Y           Z
 ---------------------------------------------------------------------
      1          6           0       -0.282714    1.498930    0.123318
      2          8           0        0.043862    2.215722    1.225349
      3          8           0        0.562076    0.730502   -0.544692
      4         17           0       -1.970018    1.659171   -0.386672
      5          1           0        0.979833    2.053297    1.409584
 ---------------------------------------------------------------------
                    Distance matrix (angstroms):
                    1          2          3          4          5
     1  C    0.000000
     2  O    1.354590   0.000000
     3  O    1.323023   2.368010   0.000000
     4  Cl   1.769962   2.638954   2.701647   0.000000
     5  H    1.885690   0.967660   2.396561   3.476133   0.000000
 Stoichiometry    CHClO2
 Framework group  CS[SG(CHClO2)]
 Deg. of freedom     7
 Full point group                 CS      NOp   2
 Largest Abelian subgroup         CS      NOp   2
 Largest concise Abelian subgroup C1      NOp   1
                         Standard orientation:                         
 ---------------------------------------------------------------------
 Center     Atomic      Atomic             Coordinates (Angstroms)
 Number     Number       Type             X           Y           Z
 ---------------------------------------------------------------------
      1          6           0        0.000000    0.467264    0.000000
      2          8           0        1.282460    0.903396    0.000000
      3          8           0       -1.058371    1.261141    0.000000
      4         17           0       -0.179533   -1.293568    0.000000
      5          1           0        1.259354    1.870780    0.000000
 ---------------------------------------------------------------------
 Rotational constants (GHZ):     11.0088085      4.8570870      3.3701685
 Standard basis: 6-31+G(d) (6D, 7F)
 There are    61 symmetry adapted basis functions of A'  symmetry.
 There are    21 symmetry adapted basis functions of A"  symmetry.
 Integral buffers will be    262144 words long.
 Raffenetti 2 integral format.
 Two-electron integral symmetry is turned on.
    82 basis functions,   156 primitive gaussians,    82 cartesian basis functions
    20 alpha electrons       20 beta electrons
       nuclear repulsion energy       147.0710415073 Hartrees.
 NAtoms=    5 NActive=    5 NUniq=    5 SFac= 7.50D-01 NAtFMM=   80 NAOKFM=F Big=F
 One-electron integrals computed using PRISM.
 NBasis=    82 RedAO= T  NBF=    61    21
 NBsUse=    82 1.00D-06 NBFU=    61    21
 Initial guess read from the read-write file.
 B after Tr=     0.000000    0.000000    0.000000
         Rot=    1.000000    0.000000    0.000000    0.000000 Ang=   0.00 deg.
 Initial guess orbital symmetries:
       Occupied  (A') (A') (A') (A') (A') (A') (A") (A') (A') (A')
                 (A') (A') (A') (A') (A") (A') (A") (A') (A") (A')
       Virtual   (A") (A') (A') (A') (A') (A") (A') (A') (A") (A')
                 (A') (A') (A") (A') (A') (A') (A') (A") (A') (A')
                 (A') (A') (A') (A") (A") (A') (A') (A') (A") (A')
                 (A") (A') (A') (A') (A') (A") (A') (A") (A') (A')
                 (A') (A") (A") (A') (A') (A") (A') (A') (A') (A")
                 (A') (A') (A") (A") (A') (A') (A') (A') (A') (A')
                 (A') (A')
 Harris functional with IExCor= 1009 diagonalized for initial guess.
 ExpMin= 4.38D-02 ExpMax= 2.52D+04 ExpMxC= 3.78D+03 IAcc=2 IRadAn=         0 AccDes= 0.00D+00
 HarFok:  IExCor= 1009 AccDes= 0.00D+00 IRadAn=         0 IDoV= 1
 ScaDFX=  1.000000  1.000000  1.000000  1.000000
 FoFCou: FMM=F IPFlag=           0 FMFlag=      100000 FMFlg1=           0
         NFxFlg=           0 DoJE=T BraDBF=F KetDBF=T FulRan=T
         Omega=  0.000000  0.000000  1.000000  0.000000  0.000000 ICntrl=     500 IOpCl=  0
         NMat0=    1 NMatS0=    1 NMatT0=    0 NMatD0=    1 NMtDS0=    0 NMtDT0=    0
         I1Cent=           4 NGrid=           0.
 Petite list used in FoFCou.
 Requested convergence on RMS density matrix=1.00D-08 within 128 cycles.
 Requested convergence on MAX density matrix=1.00D-06.
 Requested convergence on             energy=1.00D-06.
 No special actions if energy rises.
 Keep R1 ints in memory in canonical form, NReq=6770502.
 SCF Done:  E(RM062X) =  -649.234191008     A.U. after   13 cycles
             Convg  =    0.7662D-08             -V/T =  2.0050
 Calling FoFJK, ICntrl=      2127 FMM=F ISym2X=1 I1Cent= 0 IOpClX= 0 NMat=1 NMatS=1 NMatT=0.
 ***** Axes restored to original set *****
 -------------------------------------------------------------------
 Center     Atomic                   Forces (Hartrees/Bohr)
 Number     Number              X              Y              Z
 -------------------------------------------------------------------
      1        6           0.089299902   -0.073788028   -0.060630987
      2        8          -0.024676296   -0.015075129   -0.030828785
      3        8          -0.097749886    0.090956163    0.080034557
      4       17           0.025646812    0.001184769    0.012609261
      5        1           0.007479468   -0.003277775   -0.001184046
 -------------------------------------------------------------------
 Cartesian Forces:  Max     0.097749886 RMS     0.054161299

 GradGradGradGradGradGradGradGradGradGradGradGradGradGradGradGradGradGrad
 Berny optimization.
 Using GEDIIS/GDIIS optimizer.
 Internal  Forces:  Max     0.155660159 RMS     0.051879134
 Search for a local minimum.
 Step number   2 out of a maximum of   20
 All quantities printed in internal units (Hartrees-Bohrs-Radians)
 Mixed Optimization -- RFO/linear search
 Update second derivatives using D2CorX and points    1    2
 DE= -6.15D-02 DEPred=-5.44D-02 R= 1.13D+00
 SS=  1.41D+00  RLast= 3.00D-01 DXNew= 5.0454D-01 9.0000D-01
 Trust test= 1.13D+00 RLast= 3.00D-01 DXMaxT set to 5.05D-01
 The second derivative matrix:
                          R1        R2        R3        R4        A1
           R1           0.49592
           R2          -0.00778   0.21243
           R3           0.02844  -0.00025   0.26434
           R4          -0.00758   0.00299  -0.00470   0.55596
           A1           0.00684   0.00782   0.00393  -0.00122   0.25049
           A2          -0.00735  -0.01522  -0.00403   0.00139  -0.00013
           A3           0.00052   0.00739   0.00010  -0.00017  -0.00036
           A4           0.01448   0.00848   0.00856  -0.00249   0.00150
           D1           0.00000   0.00000   0.00000   0.00000   0.00000
           D2           0.00000   0.00000   0.00000   0.00000   0.00000
                          A2        A3        A4        D1        D2
           A2           0.24941
           A3           0.00072   0.24964
           A4          -0.00113  -0.00037   0.16375
           D1           0.00000   0.00000   0.00000   0.01638
           D2           0.00000   0.00000   0.00000   0.00000   0.01638
 Use linear search instead of GDIIS.
     Eigenvalues ---    0.01638   0.01638   0.16098   0.20562   0.24991
     Eigenvalues ---    0.25459   0.26410   0.49945   0.557271000.00000
 RFO step:  Lambda=-7.84487898D-03 EMin= 1.63824210D-02
 Quartic linear search produced a step of  0.92457.
 Iteration  1 RMS(Cart)=  0.05558025 RMS(Int)=  0.04755767
 Iteration  2 RMS(Cart)=  0.04227789 RMS(Int)=  0.00007940
 Iteration  3 RMS(Cart)=  0.00009326 RMS(Int)=  0.00000001
 Iteration  4 RMS(Cart)=  0.00000000 RMS(Int)=  0.00000000
 ClnCor:  largest displacement from symmetrization is 7.90D-08 for atom     1.
 Variable       Old X    -DE/DX   Delta X   Delta X   Delta X     New X
                                 (Linear)    (Quad)   (Total)
    R1        2.55980  -0.03991  -0.08641   0.05552  -0.03089   2.52891
    R2        2.50015  -0.15566  -0.24575  -0.10448  -0.35023   2.14992
    R3        3.34474  -0.02797  -0.08505   0.08480  -0.00025   3.34450
    R4        1.82861   0.00758   0.01338  -0.00588   0.00750   1.83612
    A1        2.17023   0.00297  -0.00048   0.02379   0.02331   2.19354
    A2        2.00021  -0.01151  -0.01649  -0.02883  -0.04532   1.95489
    A3        2.11275   0.00854   0.01697   0.00504   0.02201   2.13476
    A4        1.87472  -0.00609  -0.03320   0.08047   0.04727   1.92199
    D1        0.00000   0.00000   0.00000   0.00000   0.00000   0.00000
    D2        3.14159   0.00000   0.00000   0.00000   0.00000   3.14159
         Item               Value     Threshold  Converged?
 Maximum Force            0.155660     0.000450     NO 
 RMS     Force            0.051879     0.000300     NO 
 Maximum Displacement     0.153087     0.001800     NO 
 RMS     Displacement     0.091737     0.001200     NO 
 Predicted change in Energy=-4.308534D-02
 GradGradGradGradGradGradGradGradGradGradGradGradGradGradGradGradGradGrad

                          Input orientation:                          
 ---------------------------------------------------------------------
 Center     Atomic      Atomic             Coordinates (Angstroms)
 Number     Number       Type             X           Y           Z
 ---------------------------------------------------------------------
      1          6           0       -0.244453    1.463705    0.092496
      2          8           0        0.050249    2.181823    1.182612
      3          8           0        0.481065    0.802611   -0.482752
      4         17           0       -1.938198    1.649413   -0.386092
      5          1           0        0.984377    2.060070    1.420624
 ---------------------------------------------------------------------
                    Distance matrix (angstroms):
                    1          2          3          4          5
     1  C    0.000000
     2  O    1.338244   0.000000
     3  O    1.137687   2.204828   0.000000
     4  Cl   1.769832   2.588091   2.565005   0.000000
     5  H    1.905150   0.971632   2.336100   3.460391   0.000000
 Stoichiometry    CHClO2
 Framework group  CS[SG(CHClO2)]
 Deg. of freedom     7
 Full point group                 CS      NOp   2
 Largest Abelian subgroup         CS      NOp   2
 Largest concise Abelian subgroup C1      NOp   1
                         Standard orientation:                         
 ---------------------------------------------------------------------
 Center     Atomic      Atomic             Coordinates (Angstroms)
 Number     Number       Type             X           Y           Z
 ---------------------------------------------------------------------
      1          6           0        0.000000    0.500893    0.000000
      2          8           0        1.308449    0.781710    0.000000
      3          8           0       -0.842715    1.265199    0.000000
      4         17           0       -0.304099   -1.242617    0.000000
      5          1           0        1.443820    1.743865    0.000000
 ---------------------------------------------------------------------
 Rotational constants (GHZ):     12.6410275      5.0842398      3.6258982
 Standard basis: 6-31+G(d) (6D, 7F)
 There are    61 symmetry adapted basis functions of A'  symmetry.
 There are    21 symmetry adapted basis functions of A"  symmetry.
 Integral buffers will be    262144 words long.
 Raffenetti 2 integral format.
 Two-electron integral symmetry is turned on.
    82 basis functions,   156 primitive gaussians,    82 cartesian basis functions
    20 alpha electrons       20 beta electrons
       nuclear repulsion energy       153.4658682867 Hartrees.
 NAtoms=    5 NActive=    5 NUniq=    5 SFac= 7.50D-01 NAtFMM=   80 NAOKFM=F Big=F
 One-electron integrals computed using PRISM.
 NBasis=    82 RedAO= T  NBF=    61    21
 NBsUse=    82 1.00D-06 NBFU=    61    21
 Initial guess read from the read-write file.
 B after Tr=     0.000000    0.000000    0.000000
         Rot=    1.000000    0.000000    0.000000    0.000000 Ang=   0.00 deg.
 Initial guess orbital symmetries:
       Occupied  (A') (A') (A') (A') (A') (A') (A") (A') (A') (A')
                 (A') (A') (A') (A') (A") (A') (A") (A') (A") (A')
       Virtual   (A") (A') (A') (A') (A") (A') (A') (A') (A") (A')
                 (A') (A') (A") (A') (A') (A') (A") (A') (A') (A')
                 (A') (A') (A') (A") (A") (A') (A') (A') (A') (A")
                 (A") (A') (A') (A') (A') (A") (A') (A") (A') (A')
                 (A') (A") (A") (A') (A') (A") (A') (A') (A") (A')
                 (A') (A") (A') (A') (A") (A') (A') (A') (A') (A')
                 (A') (A')
 Harris functional with IExCor= 1009 diagonalized for initial guess.
 ExpMin= 4.38D-02 ExpMax= 2.52D+04 ExpMxC= 3.78D+03 IAcc=2 IRadAn=         0 AccDes= 0.00D+00
 HarFok:  IExCor= 1009 AccDes= 0.00D+00 IRadAn=         0 IDoV= 1
 ScaDFX=  1.000000  1.000000  1.000000  1.000000
 FoFCou: FMM=F IPFlag=           0 FMFlag=      100000 FMFlg1=           0
         NFxFlg=           0 DoJE=T BraDBF=F KetDBF=T FulRan=T
         Omega=  0.000000  0.000000  1.000000  0.000000  0.000000 ICntrl=     500 IOpCl=  0
         NMat0=    1 NMatS0=    1 NMatT0=    0 NMatD0=    1 NMtDS0=    0 NMtDT0=    0
         I1Cent=           4 NGrid=           0.
 Petite list used in FoFCou.
 Requested convergence on RMS density matrix=1.00D-08 within 128 cycles.
 Requested convergence on MAX density matrix=1.00D-06.
 Requested convergence on             energy=1.00D-06.
 No special actions if energy rises.
 Keep R1 ints in memory in canonical form, NReq=6770502.
 SCF Done:  E(RM062X) =  -649.253016880     A.U. after   12 cycles
             Convg  =    0.8225D-08             -V/T =  2.0039
 Calling FoFJK, ICntrl=      2127 FMM=F ISym2X=1 I1Cent= 0 IOpClX= 0 NMat=1 NMatS=1 NMatT=0.
 ***** Axes restored to original set *****
 -------------------------------------------------------------------
 Center     Atomic                   Forces (Hartrees/Bohr)
 Number     Number              X              Y              Z
 -------------------------------------------------------------------
      1        6          -0.059681099    0.058518905    0.052870909
      2        8          -0.017028694    0.008411224    0.003968514
      3        8           0.070599337   -0.067178126   -0.059797637
      4       17           0.004823652    0.003800944    0.007172260
      5        1           0.001286803   -0.003552947   -0.004214045
 -------------------------------------------------------------------
 Cartesian Forces:  Max     0.070599337 RMS     0.039456492

 GradGradGradGradGradGradGradGradGradGradGradGradGradGradGradGradGradGrad
 Berny optimization.
 Using GEDIIS/GDIIS optimizer.
 Internal  Forces:  Max     0.114284208 RMS     0.037065628
 Search for a local minimum.
 Step number   3 out of a maximum of   20
 All quantities printed in internal units (Hartrees-Bohrs-Radians)
 Mixed Optimization -- RFO/linear search
 Update second derivatives using D2CorX and points    2    3
 DE= -1.88D-02 DEPred=-4.31D-02 R= 4.37D-01
 Trust test= 4.37D-01 RLast= 3.59D-01 DXMaxT set to 5.05D-01
 The second derivative matrix:
                          R1        R2        R3        R4        A1
           R1           0.50673
           R2           0.07040   0.77533
           R3           0.03722   0.06084   0.26932
           R4          -0.00902  -0.00784  -0.00625   0.55608
           A1           0.01203   0.04316   0.00616  -0.00226   0.25113
           A2          -0.01265  -0.05050  -0.00564   0.00257  -0.00017
           A3           0.00062   0.00735  -0.00051  -0.00030  -0.00095
           A4           0.01463   0.00834   0.00761  -0.00270   0.00058
           D1           0.00000   0.00000   0.00000   0.00000   0.00000
           D2           0.00000   0.00000   0.00000   0.00000   0.00000
                          A2        A3        A4        D1        D2
           A2           0.24864
           A3           0.00153   0.24942
           A4           0.00014  -0.00071   0.16322
           D1           0.00000   0.00000   0.00000   0.01638
           D2           0.00000   0.00000   0.00000   0.00000   0.01638
 Use linear search instead of GDIIS.
     Eigenvalues ---    0.01638   0.01638   0.16220   0.24031   0.24998
     Eigenvalues ---    0.25911   0.49103   0.55652   0.810721000.00000
 RFO step:  Lambda=-3.81510472D-03 EMin= 1.63824210D-02
 Quartic linear search produced a step of -0.27526.
 Iteration  1 RMS(Cart)=  0.06437867 RMS(Int)=  0.00093998
 Iteration  2 RMS(Cart)=  0.00086034 RMS(Int)=  0.00000024
 Iteration  3 RMS(Cart)=  0.00000035 RMS(Int)=  0.00000000
 ClnCor:  largest displacement from symmetrization is 7.32D-08 for atom     1.
 Variable       Old X    -DE/DX   Delta X   Delta X   Delta X     New X
                                 (Linear)    (Quad)   (Total)
    R1        2.52891  -0.00109   0.00850  -0.02909  -0.02059   2.50833
    R2        2.14992   0.11428   0.09640   0.00396   0.10036   2.25028
    R3        3.34450  -0.00615   0.00007  -0.04358  -0.04351   3.30098
    R4        1.83612   0.00068  -0.00207   0.00556   0.00349   1.83961
    A1        2.19354   0.01261  -0.00642   0.05014   0.04373   2.23726
    A2        1.95489  -0.01838   0.01247  -0.08518  -0.07270   1.88219
    A3        2.13476   0.00577  -0.00606   0.03503   0.02897   2.16374
    A4        1.92199  -0.01040  -0.01301  -0.02232  -0.03533   1.88665
    D1        0.00000   0.00000   0.00000   0.00000   0.00000   0.00000
    D2        3.14159   0.00000   0.00000   0.00000   0.00000  -3.14159
         Item               Value     Threshold  Converged?
 Maximum Force            0.114284     0.000450     NO 
 RMS     Force            0.037066     0.000300     NO 
 Maximum Displacement     0.098888     0.001800     NO 
 RMS     Displacement     0.064276     0.001200     NO 
 Predicted change in Energy=-8.680391D-03
 GradGradGradGradGradGradGradGradGradGradGradGradGradGradGradGradGradGrad

                          Input orientation:                          
 ---------------------------------------------------------------------
 Center     Atomic      Atomic             Coordinates (Angstroms)
 Number     Number       Type             X           Y           Z
 ---------------------------------------------------------------------
      1          6           0       -0.233471    1.458883    0.090745
      2          8           0        0.011936    2.186998    1.173093
      3          8           0        0.520324    0.765081   -0.516237
      4         17           0       -1.913360    1.680462   -0.333763
      5          1           0        0.947611    2.066198    1.413049
 ---------------------------------------------------------------------
                    Distance matrix (angstroms):
                    1          2          3          4          5
     1  C    0.000000
     2  O    1.327349   0.000000
     3  O    1.190796   2.265864   0.000000
     4  Cl   1.746806   2.496790   2.606537   0.000000
     5  H    1.874107   0.973478   2.365930   3.374211   0.000000
 Stoichiometry    CHClO2
 Framework group  CS[SG(CHClO2)]
 Deg. of freedom     7
 Full point group                 CS      NOp   2
 Largest Abelian subgroup         CS      NOp   2
 Largest concise Abelian subgroup C1      NOp   1
                         Standard orientation:                         
 ---------------------------------------------------------------------
 Center     Atomic      Atomic             Coordinates (Angstroms)
 Number     Number       Type             X           Y           Z
 ---------------------------------------------------------------------
      1          6           0        0.000000    0.501062    0.000000
      2          8           0        1.314895    0.682461    0.000000
      3          8           0       -0.857171    1.327653    0.000000
      4         17           0       -0.302929   -1.219277    0.000000
      5          1           0        1.487994    1.640425    0.000000
 ---------------------------------------------------------------------
 Rotational constants (GHZ):     11.9667834      5.2736756      3.6605136
 Standard basis: 6-31+G(d) (6D, 7F)
 There are    61 symmetry adapted basis functions of A'  symmetry.
 There are    21 symmetry adapted basis functions of A"  symmetry.
 Integral buffers will be    262144 words long.
 Raffenetti 2 integral format.
 Two-electron integral symmetry is turned on.
    82 basis functions,   156 primitive gaussians,    82 cartesian basis functions
    20 alpha electrons       20 beta electrons
       nuclear repulsion energy       153.2468425755 Hartrees.
 NAtoms=    5 NActive=    5 NUniq=    5 SFac= 7.50D-01 NAtFMM=   80 NAOKFM=F Big=F
 One-electron integrals computed using PRISM.
 NBasis=    82 RedAO= T  NBF=    61    21
 NBsUse=    82 1.00D-06 NBFU=    61    21
 Initial guess read from the read-write file.
 B after Tr=     0.000000    0.000000    0.000000
         Rot=    1.000000    0.000000    0.000000    0.000000 Ang=   0.00 deg.
 Initial guess orbital symmetries:
       Occupied  (A') (A') (A') (A') (A') (A') (A") (A') (A') (A')
                 (A') (A') (A') (A') (A") (A') (A") (A') (A") (A')
       Virtual   (A') (A") (A') (A') (A") (A') (A') (A") (A') (A')
                 (A') (A") (A') (A') (A') (A') (A") (A') (A') (A')
                 (A') (A') (A") (A") (A') (A') (A') (A') (A") (A')
                 (A") (A') (A') (A') (A') (A") (A') (A") (A') (A')
                 (A') (A") (A") (A') (A') (A') (A") (A") (A') (A')
                 (A') (A") (A') (A') (A") (A') (A') (A') (A') (A')
                 (A') (A')
 Harris functional with IExCor= 1009 diagonalized for initial guess.
 ExpMin= 4.38D-02 ExpMax= 2.52D+04 ExpMxC= 3.78D+03 IAcc=2 IRadAn=         0 AccDes= 0.00D+00
 HarFok:  IExCor= 1009 AccDes= 0.00D+00 IRadAn=         0 IDoV= 1
 ScaDFX=  1.000000  1.000000  1.000000  1.000000
 FoFCou: FMM=F IPFlag=           0 FMFlag=      100000 FMFlg1=           0
         NFxFlg=           0 DoJE=T BraDBF=F KetDBF=T FulRan=T
         Omega=  0.000000  0.000000  1.000000  0.000000  0.000000 ICntrl=     500 IOpCl=  0
         NMat0=    1 NMatS0=    1 NMatT0=    0 NMatD0=    1 NMtDS0=    0 NMtDT0=    0
         I1Cent=           4 NGrid=           0.
 Petite list used in FoFCou.
 Requested convergence on RMS density matrix=1.00D-08 within 128 cycles.
 Requested convergence on MAX density matrix=1.00D-06.
 Requested convergence on             energy=1.00D-06.
 No special actions if energy rises.
 Keep R1 ints in memory in canonical form, NReq=6770502.
 SCF Done:  E(RM062X) =  -649.259101658     A.U. after   12 cycles
             Convg  =    0.2563D-08             -V/T =  2.0042
 Calling FoFJK, ICntrl=      2127 FMM=F ISym2X=1 I1Cent= 0 IOpClX= 0 NMat=1 NMatS=1 NMatT=0.
 ***** Axes restored to original set *****
 -------------------------------------------------------------------
 Center     Atomic                   Forces (Hartrees/Bohr)
 Number     Number              X              Y              Z
 -------------------------------------------------------------------
      1        6          -0.004523870   -0.001702803   -0.004228402
      2        8           0.005064249    0.001184738    0.003765506
      3        8          -0.000029052    0.002584569    0.003455202
      4       17          -0.001972589   -0.001607624   -0.003004492
      5        1           0.001461261   -0.000458881    0.000012186
 -------------------------------------------------------------------
 Cartesian Forces:  Max     0.005064249 RMS     0.002815923

 GradGradGradGradGradGradGradGradGradGradGradGradGradGradGradGradGradGrad
 Berny optimization.
 Using GEDIIS/GDIIS optimizer.
 Internal  Forces:  Max     0.008693429 RMS     0.004169632
 Search for a local minimum.
 Step number   4 out of a maximum of   20
 All quantities printed in internal units (Hartrees-Bohrs-Radians)
 Mixed Optimization -- RFO/linear search
 Update second derivatives using D2CorX and points    1    2    3    4
 DE= -6.08D-03 DEPred=-8.68D-03 R= 7.01D-01
 SS=  1.41D+00  RLast= 1.47D-01 DXNew= 8.4853D-01 4.4180D-01
 Trust test= 7.01D-01 RLast= 1.47D-01 DXMaxT set to 5.05D-01
 The second derivative matrix:
                          R1        R2        R3        R4        A1
           R1           0.52245
           R2           0.06652   1.08984
           R3           0.04811   0.04705   0.27739
           R4          -0.00732  -0.02104  -0.00424   0.55511
           A1           0.00799   0.08751   0.00110  -0.00619   0.25653
           A2          -0.01087  -0.09635  -0.00219   0.00940  -0.00254
           A3           0.00288   0.00884   0.00109  -0.00321  -0.00398
           A4           0.02142  -0.01725   0.01331  -0.00168  -0.00562
           D1           0.00000   0.00000   0.00000   0.00000   0.00000
           D2           0.00000   0.00000   0.00000   0.00000   0.00000
                          A2        A3        A4        D1        D2
           A2           0.24309
           A3           0.00945   0.24453
           A4           0.00696  -0.00135   0.16765
           D1           0.00000   0.00000   0.00000   0.01638
           D2           0.00000   0.00000   0.00000   0.00000   0.01638
 Use linear search instead of GDIIS.
     Eigenvalues ---    0.01638   0.01638   0.16399   0.22311   0.25040
     Eigenvalues ---    0.26908   0.52296   0.55527   1.121791000.00000
 RFO step:  Lambda=-5.10838070D-04 EMin= 1.63824210D-02
 Quartic linear search produced a step of -0.10424.
 Iteration  1 RMS(Cart)=  0.02828354 RMS(Int)=  0.00033907
 Iteration  2 RMS(Cart)=  0.00034247 RMS(Int)=  0.00000002
 Iteration  3 RMS(Cart)=  0.00000003 RMS(Int)=  0.00000000
 ClnCor:  largest displacement from symmetrization is 1.53D-08 for atom     2.
 Variable       Old X    -DE/DX   Delta X   Delta X   Delta X     New X
                                 (Linear)    (Quad)   (Total)
    R1        2.50833   0.00465   0.00215   0.00774   0.00989   2.51821
    R2        2.25028  -0.00330  -0.01046   0.01169   0.00123   2.25151
    R3        3.30098   0.00244   0.00454   0.00427   0.00881   3.30979
    R4        1.83961   0.00151  -0.00036   0.00221   0.00184   1.84145
    A1        2.23726  -0.00742  -0.00456  -0.02613  -0.03069   2.20657
    A2        1.88219   0.00869   0.00758   0.03131   0.03889   1.92107
    A3        2.16374  -0.00127  -0.00302  -0.00518  -0.00820   2.15554
    A4        1.88665  -0.00093   0.00368  -0.01230  -0.00862   1.87804
    D1        0.00000   0.00000   0.00000   0.00000   0.00000   0.00000
    D2        3.14159   0.00000   0.00000   0.00000   0.00000  -3.14159
         Item               Value     Threshold  Converged?
 Maximum Force            0.008693     0.000450     NO 
 RMS     Force            0.004170     0.000300     NO 
 Maximum Displacement     0.042045     0.001800     NO 
 RMS     Displacement     0.028281     0.001200     NO 
 Predicted change in Energy=-3.105018D-04
 GradGradGradGradGradGradGradGradGradGradGradGradGradGradGradGradGradGrad

                          Input orientation:                          
 ---------------------------------------------------------------------
 Center     Atomic      Atomic             Coordinates (Angstroms)
 Number     Number       Type             X           Y           Z
 ---------------------------------------------------------------------
      1          6           0       -0.246185    1.467795    0.097240
      2          8           0        0.023671    2.190989    1.183489
      3          8           0        0.518554    0.777124   -0.500839
      4         17           0       -1.926105    1.667960   -0.356013
      5          1           0        0.963105    2.053754    1.403010
 ---------------------------------------------------------------------
                    Distance matrix (angstroms):
                    1          2          3          4          5
     1  C    0.000000
     2  O    1.332580   0.000000
     3  O    1.191449   2.254082   0.000000
     4  Cl   1.751467   2.538751   2.605940   0.000000
     5  H    1.873703   0.974453   2.334963   3.404487   0.000000
 Stoichiometry    CHClO2
 Framework group  CS[SG(CHClO2)]
 Deg. of freedom     7
 Full point group                 CS      NOp   2
 Largest Abelian subgroup         CS      NOp   2
 Largest concise Abelian subgroup C1      NOp   1
                         Standard orientation:                         
 ---------------------------------------------------------------------
 Center     Atomic      Atomic             Coordinates (Angstroms)
 Number     Number       Type             X           Y           Z
 ---------------------------------------------------------------------
      1          6           0        0.000000    0.492468    0.000000
      2          8           0        1.310269    0.735292    0.000000
      3          8           0       -0.870329    1.306149    0.000000
      4         17           0       -0.291195   -1.234623    0.000000
      5          1           0        1.430789    1.702263    0.000000
 ---------------------------------------------------------------------
 Rotational constants (GHZ):     12.0981362      5.1696557      3.6219569
 Standard basis: 6-31+G(d) (6D, 7F)
 There are    61 symmetry adapted basis functions of A'  symmetry.
 There are    21 symmetry adapted basis functions of A"  symmetry.
 Integral buffers will be    262144 words long.
 Raffenetti 2 integral format.
 Two-electron integral symmetry is turned on.
    82 basis functions,   156 primitive gaussians,    82 cartesian basis functions
    20 alpha electrons       20 beta electrons
       nuclear repulsion energy       152.6818685844 Hartrees.
 NAtoms=    5 NActive=    5 NUniq=    5 SFac= 7.50D-01 NAtFMM=   80 NAOKFM=F Big=F
 One-electron integrals computed using PRISM.
 NBasis=    82 RedAO= T  NBF=    61    21
 NBsUse=    82 1.00D-06 NBFU=    61    21
 Initial guess read from the read-write file.
 B after Tr=     0.000000    0.000000    0.000000
         Rot=    1.000000    0.000000    0.000000    0.000000 Ang=   0.00 deg.
 Initial guess orbital symmetries:
       Occupied  (A') (A') (A') (A') (A') (A') (A") (A') (A') (A')
                 (A') (A') (A') (A') (A") (A') (A") (A') (A") (A')
       Virtual   (A') (A") (A') (A') (A") (A') (A') (A") (A') (A')
                 (A') (A") (A') (A') (A') (A') (A") (A') (A') (A')
                 (A') (A') (A") (A") (A') (A') (A') (A') (A') (A")
                 (A") (A') (A') (A') (A') (A") (A') (A") (A') (A')
                 (A') (A") (A") (A') (A') (A") (A') (A") (A') (A')
                 (A') (A") (A') (A') (A") (A') (A') (A') (A') (A')
                 (A') (A')
 Harris functional with IExCor= 1009 diagonalized for initial guess.
 ExpMin= 4.38D-02 ExpMax= 2.52D+04 ExpMxC= 3.78D+03 IAcc=2 IRadAn=         0 AccDes= 0.00D+00
 HarFok:  IExCor= 1009 AccDes= 0.00D+00 IRadAn=         0 IDoV= 1
 ScaDFX=  1.000000  1.000000  1.000000  1.000000
 FoFCou: FMM=F IPFlag=           0 FMFlag=      100000 FMFlg1=           0
         NFxFlg=           0 DoJE=T BraDBF=F KetDBF=T FulRan=T
         Omega=  0.000000  0.000000  1.000000  0.000000  0.000000 ICntrl=     500 IOpCl=  0
         NMat0=    1 NMatS0=    1 NMatT0=    0 NMatD0=    1 NMtDS0=    0 NMtDT0=    0
         I1Cent=           4 NGrid=           0.
 Petite list used in FoFCou.
 Requested convergence on RMS density matrix=1.00D-08 within 128 cycles.
 Requested convergence on MAX density matrix=1.00D-06.
 Requested convergence on             energy=1.00D-06.
 No special actions if energy rises.
 Keep R1 ints in memory in canonical form, NReq=6770502.
 SCF Done:  E(RM062X) =  -649.259317433     A.U. after   11 cycles
             Convg  =    0.3178D-08             -V/T =  2.0042
 Calling FoFJK, ICntrl=      2127 FMM=F ISym2X=1 I1Cent= 0 IOpClX= 0 NMat=1 NMatS=1 NMatT=0.
 ***** Axes restored to original set *****
 -------------------------------------------------------------------
 Center     Atomic                   Forces (Hartrees/Bohr)
 Number     Number              X              Y              Z
 -------------------------------------------------------------------
      1        6           0.001382942   -0.001828030   -0.001858437
      2        8          -0.002432836    0.000774807   -0.000005767
      3        8          -0.001833887    0.001372284    0.001053210
      4       17           0.002793103    0.000205178    0.001475397
      5        1           0.000090678   -0.000524238   -0.000664403
 -------------------------------------------------------------------
 Cartesian Forces:  Max     0.002793103 RMS     0.001468047

 GradGradGradGradGradGradGradGradGradGradGradGradGradGradGradGradGradGrad
 Berny optimization.
 Using GEDIIS/GDIIS optimizer.
 Internal  Forces:  Max     0.003028536 RMS     0.001663001
 Search for a local minimum.
 Step number   5 out of a maximum of   20
 All quantities printed in internal units (Hartrees-Bohrs-Radians)
 Mixed Optimization -- RFO/linear search
 Update second derivatives using D2CorX and points    1    2    3    4    5
 DE= -2.16D-04 DEPred=-3.11D-04 R= 6.95D-01
 SS=  1.41D+00  RLast= 5.27D-02 DXNew= 8.4853D-01 1.5805D-01
 Trust test= 6.95D-01 RLast= 5.27D-02 DXMaxT set to 5.05D-01
 The second derivative matrix:
                          R1        R2        R3        R4        A1
           R1           0.54090
           R2           0.10261   1.13923
           R3           0.07528   0.08356   0.30647
           R4          -0.01027  -0.01551  -0.00015   0.55276
           A1           0.00380   0.05502  -0.02697  -0.00459   0.26760
           A2          -0.00325  -0.05815   0.03183   0.01026  -0.02075
           A3          -0.00055   0.00313  -0.00486  -0.00567   0.00314
           A4           0.03748  -0.00692   0.02161   0.00186  -0.02088
           D1           0.00000   0.00000   0.00000   0.00000   0.00000
           D2           0.00000   0.00000   0.00000   0.00000   0.00000
                          A2        A3        A4        D1        D2
           A2           0.26859
           A3           0.00216   0.24470
           A4           0.02375  -0.00287   0.16676
           D1           0.00000   0.00000   0.00000   0.01638
           D2           0.00000   0.00000   0.00000   0.00000   0.01638
 Use linear search instead of GDIIS.
     Eigenvalues ---    0.01638   0.01638   0.15519   0.23462   0.24355
     Eigenvalues ---    0.33132   0.54276   0.55587   1.173691000.00000
 RFO step:  Lambda=-2.94963147D-05 EMin= 1.63824210D-02
 Quartic linear search produced a step of -0.23963.
 Iteration  1 RMS(Cart)=  0.00611678 RMS(Int)=  0.00001303
 Iteration  2 RMS(Cart)=  0.00001319 RMS(Int)=  0.00000000
 Iteration  3 RMS(Cart)=  0.00000000 RMS(Int)=  0.00000000
 ClnCor:  largest displacement from symmetrization is 1.07D-08 for atom     1.
 Variable       Old X    -DE/DX   Delta X   Delta X   Delta X     New X
                                 (Linear)    (Quad)   (Total)
    R1        2.51821  -0.00091  -0.00237   0.00240   0.00003   2.51824
    R2        2.25151  -0.00251  -0.00030  -0.00212  -0.00242   2.24909
    R3        3.30979  -0.00303  -0.00211  -0.00548  -0.00759   3.30220
    R4        1.84145   0.00004  -0.00044   0.00068   0.00024   1.84169
    A1        2.20657   0.00158   0.00735  -0.00188   0.00548   2.21205
    A2        1.92107  -0.00236  -0.00932   0.00053  -0.00879   1.91228
    A3        2.15554   0.00078   0.00196   0.00135   0.00331   2.15885
    A4        1.87804  -0.00164   0.00206  -0.00852  -0.00646   1.87158
    D1        0.00000   0.00000   0.00000   0.00000   0.00000   0.00000
    D2        3.14159   0.00000   0.00000   0.00000   0.00000   3.14159
         Item               Value     Threshold  Converged?
 Maximum Force            0.003029     0.000450     NO 
 RMS     Force            0.001663     0.000300     NO 
 Maximum Displacement     0.009754     0.001800     NO 
 RMS     Displacement     0.006121     0.001200     NO 
 Predicted change in Energy=-3.326123D-05
 GradGradGradGradGradGradGradGradGradGradGradGradGradGradGradGradGradGrad

                          Input orientation:                          
 ---------------------------------------------------------------------
 Center     Atomic      Atomic             Coordinates (Angstroms)
 Number     Number       Type             X           Y           Z
 ---------------------------------------------------------------------
      1          6           0       -0.244087    1.466284    0.096114
      2          8           0        0.019573    2.191571    1.182509
      3          8           0        0.519341    0.776188   -0.501756
      4         17           0       -1.921056    1.670190   -0.350851
      5          1           0        0.959268    2.053389    1.400872
 ---------------------------------------------------------------------
                    Distance matrix (angstroms):
                    1          2          3          4          5
     1  C    0.000000
     2  O    1.332595   0.000000
     3  O    1.190170   2.256064   0.000000
     4  Cl   1.747450   2.527661   2.603373   0.000000
     5  H    1.869532   0.974579   2.333404   3.392881   0.000000
 Stoichiometry    CHClO2
 Framework group  CS[SG(CHClO2)]
 Deg. of freedom     7
 Full point group                 CS      NOp   2
 Largest Abelian subgroup         CS      NOp   2
 Largest concise Abelian subgroup C1      NOp   1
                         Standard orientation:                         
 ---------------------------------------------------------------------
 Center     Atomic      Atomic             Coordinates (Angstroms)
 Number     Number       Type             X           Y           Z
 ---------------------------------------------------------------------
      1          6           0        0.000000    0.492983    0.000000
      2          8           0        1.313084    0.720184    0.000000
      3          8           0       -0.864144    1.311370    0.000000
      4         17           0       -0.295907   -1.229231    0.000000
      5          1           0        1.438891    1.686608    0.000000
 ---------------------------------------------------------------------
 Rotational constants (GHZ):     12.0781553      5.2040738      3.6370084
 Standard basis: 6-31+G(d) (6D, 7F)
 There are    61 symmetry adapted basis functions of A'  symmetry.
 There are    21 symmetry adapted basis functions of A"  symmetry.
 Integral buffers will be    262144 words long.
 Raffenetti 2 integral format.
 Two-electron integral symmetry is turned on.
    82 basis functions,   156 primitive gaussians,    82 cartesian basis functions
    20 alpha electrons       20 beta electrons
       nuclear repulsion energy       152.9272860240 Hartrees.
 NAtoms=    5 NActive=    5 NUniq=    5 SFac= 7.50D-01 NAtFMM=   80 NAOKFM=F Big=F
 One-electron integrals computed using PRISM.
 NBasis=    82 RedAO= T  NBF=    61    21
 NBsUse=    82 1.00D-06 NBFU=    61    21
 Initial guess read from the read-write file.
 B after Tr=     0.000000    0.000000    0.000000
         Rot=    1.000000    0.000000    0.000000    0.000000 Ang=   0.00 deg.
 Initial guess orbital symmetries:
       Occupied  (A') (A') (A') (A') (A') (A') (A") (A') (A') (A')
                 (A') (A') (A') (A') (A") (A') (A") (A') (A") (A')
       Virtual   (A') (A") (A') (A') (A") (A') (A') (A") (A') (A')
                 (A') (A") (A') (A') (A') (A') (A") (A') (A') (A')
                 (A') (A') (A") (A") (A') (A') (A') (A') (A') (A")
                 (A") (A') (A') (A') (A') (A") (A') (A") (A') (A')
                 (A') (A") (A") (A') (A') (A") (A') (A") (A') (A')
                 (A') (A") (A') (A') (A") (A') (A') (A') (A') (A')
                 (A') (A')
 Requested convergence on RMS density matrix=1.00D-08 within 128 cycles.
 Requested convergence on MAX density matrix=1.00D-06.
 Requested convergence on             energy=1.00D-06.
 No special actions if energy rises.
 Keep R1 ints in memory in canonical form, NReq=6770502.
 SCF Done:  E(RM062X) =  -649.259357973     A.U. after   10 cycles
             Convg  =    0.3345D-08             -V/T =  2.0042
 Calling FoFJK, ICntrl=      2127 FMM=F ISym2X=1 I1Cent= 0 IOpClX= 0 NMat=1 NMatS=1 NMatT=0.
 ***** Axes restored to original set *****
 -------------------------------------------------------------------
 Center     Atomic                   Forces (Hartrees/Bohr)
 Number     Number              X              Y              Z
 -------------------------------------------------------------------
      1        6          -0.000779099   -0.000185578   -0.000583743
      2        8           0.000050496   -0.000002138    0.000018828
      3        8           0.000015236    0.000323484    0.000440562
      4       17           0.000562298   -0.000113332    0.000089546
      5        1           0.000151069   -0.000022436    0.000034808
 -------------------------------------------------------------------
 Cartesian Forces:  Max     0.000779099 RMS     0.000331225

 GradGradGradGradGradGradGradGradGradGradGradGradGradGradGradGradGradGrad
 Berny optimization.
 Using GEDIIS/GDIIS optimizer.
 Internal  Forces:  Max     0.000565712 RMS     0.000301814
 Search for a local minimum.
 Step number   6 out of a maximum of   20
 All quantities printed in internal units (Hartrees-Bohrs-Radians)
 Mixed Optimization -- En-DIIS/RFO-DIIS
 Update second derivatives using D2CorX and points    1    2    3    4    5
                                                      6
 DE= -4.05D-05 DEPred=-3.33D-05 R= 1.22D+00
 SS=  1.41D+00  RLast= 1.50D-02 DXNew= 8.4853D-01 4.4850D-02
 Trust test= 1.22D+00 RLast= 1.50D-02 DXMaxT set to 5.05D-01
 The second derivative matrix:
                          R1        R2        R3        R4        A1
           R1           0.55259
           R2           0.09376   1.11213
           R3           0.07409   0.05169   0.26180
           R4          -0.01252  -0.00503   0.00878   0.55027
           A1           0.00574   0.04725  -0.03118  -0.00440   0.27435
           A2          -0.00685  -0.06666   0.01854   0.01355  -0.02670
           A3           0.00111   0.01941   0.01264  -0.00914   0.00235
           A4           0.04191  -0.01072   0.00972   0.00795  -0.03360
           D1           0.00000   0.00000   0.00000   0.00000   0.00000
           D2           0.00000   0.00000   0.00000   0.00000   0.00000
                          A2        A3        A4        D1        D2
           A2           0.26757
           A3           0.00913   0.23852
           A4           0.02851   0.00509   0.16961
           D1           0.00000   0.00000   0.00000   0.01638
           D2           0.00000   0.00000   0.00000   0.00000   0.01638
 Use linear search instead of GDIIS.
     Eigenvalues ---    0.01638   0.01638   0.15005   0.21987   0.23591
     Eigenvalues ---    0.32114   0.54705   0.56276   1.140071000.00000
 RFO step:  Lambda=-3.32440856D-06 EMin= 1.63824210D-02
 Quartic linear search produced a step of  0.01561.
 Iteration  1 RMS(Cart)=  0.00139672 RMS(Int)=  0.00000120
 Iteration  2 RMS(Cart)=  0.00000112 RMS(Int)=  0.00000000
 Iteration  3 RMS(Cart)=  0.00000000 RMS(Int)=  0.00000000
 ClnCor:  largest displacement from symmetrization is 1.79D-08 for atom     1.
 Variable       Old X    -DE/DX   Delta X   Delta X   Delta X     New X
                                 (Linear)    (Quad)   (Total)
    R1        2.51824   0.00004   0.00000   0.00057   0.00057   2.51881
    R2        2.24909  -0.00041  -0.00004  -0.00013  -0.00016   2.24893
    R3        3.30220  -0.00057  -0.00012  -0.00248  -0.00260   3.29960
    R4        1.84169   0.00019   0.00000   0.00038   0.00039   1.84207
    A1        2.21205  -0.00050   0.00009  -0.00226  -0.00218   2.20987
    A2        1.91228   0.00027  -0.00014   0.00119   0.00105   1.91334
    A3        2.15885   0.00023   0.00005   0.00107   0.00113   2.15998
    A4        1.87158  -0.00008  -0.00010  -0.00095  -0.00105   1.87053
    D1        0.00000   0.00000   0.00000   0.00000   0.00000   0.00000
    D2        3.14159   0.00000   0.00000   0.00000   0.00000   3.14159
         Item               Value     Threshold  Converged?
 Maximum Force            0.000566     0.000450     NO 
 RMS     Force            0.000302     0.000300     NO 
 Maximum Displacement     0.002172     0.001800     NO 
 RMS     Displacement     0.001397     0.001200     NO 
 Predicted change in Energy=-1.688009D-06
 GradGradGradGradGradGradGradGradGradGradGradGradGradGradGradGradGradGrad

                          Input orientation:                          
 ---------------------------------------------------------------------
 Center     Atomic      Atomic             Coordinates (Angstroms)
 Number     Number       Type             X           Y           Z
 ---------------------------------------------------------------------
      1          6           0       -0.245051    1.466559    0.096069
      2          8           0        0.019519    2.191726    1.182695
      3          8           0        0.519620    0.776956   -0.500607
      4         17           0       -1.920613    1.669896   -0.351056
      5          1           0        0.959565    2.052485    1.399787
 ---------------------------------------------------------------------
                    Distance matrix (angstroms):
                    1          2          3          4          5
     1  C    0.000000
     2  O    1.332899   0.000000
     3  O    1.190083   2.255035   0.000000
     4  Cl   1.746074   2.527609   2.602776   0.000000
     5  H    1.869248   0.974784   2.330670   3.392234   0.000000
 Stoichiometry    CHClO2
 Framework group  CS[SG(CHClO2)]
 Deg. of freedom     7
 Full point group                 CS      NOp   2
 Largest Abelian subgroup         CS      NOp   2
 Largest concise Abelian subgroup C1      NOp   1
                         Standard orientation:                         
 ---------------------------------------------------------------------
 Center     Atomic      Atomic             Coordinates (Angstroms)
 Number     Number       Type             X           Y           Z
 ---------------------------------------------------------------------
      1          6           0        0.000000    0.491889    0.000000
      2          8           0        1.313264    0.719831    0.000000
      3          8           0       -0.862727    1.311645    0.000000
      4         17           0       -0.296581   -1.228812    0.000000
      5          1           0        1.437576    1.686655    0.000000
 ---------------------------------------------------------------------
 Rotational constants (GHZ):     12.0901539      5.2054276      3.6387572
 Standard basis: 6-31+G(d) (6D, 7F)
 There are    61 symmetry adapted basis functions of A'  symmetry.
 There are    21 symmetry adapted basis functions of A"  symmetry.
 Integral buffers will be    262144 words long.
 Raffenetti 2 integral format.
 Two-electron integral symmetry is turned on.
    82 basis functions,   156 primitive gaussians,    82 cartesian basis functions
    20 alpha electrons       20 beta electrons
       nuclear repulsion energy       152.9645959046 Hartrees.
 NAtoms=    5 NActive=    5 NUniq=    5 SFac= 7.50D-01 NAtFMM=   80 NAOKFM=F Big=F
 One-electron integrals computed using PRISM.
 NBasis=    82 RedAO= T  NBF=    61    21
 NBsUse=    82 1.00D-06 NBFU=    61    21
 Initial guess read from the read-write file.
 B after Tr=     0.000000    0.000000    0.000000
         Rot=    1.000000    0.000000    0.000000    0.000000 Ang=   0.00 deg.
 Initial guess orbital symmetries:
       Occupied  (A') (A') (A') (A') (A') (A') (A") (A') (A') (A')
                 (A') (A') (A') (A') (A") (A') (A") (A') (A") (A')
       Virtual   (A') (A") (A') (A') (A") (A') (A') (A") (A') (A')
                 (A') (A") (A') (A') (A') (A') (A") (A') (A') (A')
                 (A') (A') (A") (A") (A') (A') (A') (A') (A') (A")
                 (A") (A') (A') (A') (A') (A") (A') (A") (A') (A')
                 (A') (A") (A") (A') (A') (A") (A') (A") (A') (A')
                 (A') (A") (A') (A') (A") (A') (A') (A') (A') (A')
                 (A') (A')
 Requested convergence on RMS density matrix=1.00D-08 within 128 cycles.
 Requested convergence on MAX density matrix=1.00D-06.
 Requested convergence on             energy=1.00D-06.
 No special actions if energy rises.
 Keep R1 ints in memory in canonical form, NReq=6770502.
 SCF Done:  E(RM062X) =  -649.259360019     A.U. after    9 cycles
             Convg  =    0.3773D-08             -V/T =  2.0042
 Calling FoFJK, ICntrl=      2127 FMM=F ISym2X=1 I1Cent= 0 IOpClX= 0 NMat=1 NMatS=1 NMatT=0.
 ***** Axes restored to original set *****
 -------------------------------------------------------------------
 Center     Atomic                   Forces (Hartrees/Bohr)
 Number     Number              X              Y              Z
 -------------------------------------------------------------------
      1        6          -0.000198073    0.000018632   -0.000060108
      2        8           0.000034059   -0.000008792    0.000002839
      3        8           0.000066990    0.000014691    0.000048495
      4       17           0.000154291   -0.000061801   -0.000016624
      5        1          -0.000057267    0.000037269    0.000025398
 -------------------------------------------------------------------
 Cartesian Forces:  Max     0.000198073 RMS     0.000075148

 GradGradGradGradGradGradGradGradGradGradGradGradGradGradGradGradGradGrad
 Berny optimization.
 Using GEDIIS/GDIIS optimizer.
 Internal  Forces:  Max     0.000140911 RMS     0.000051698
 Search for a local minimum.
 Step number   7 out of a maximum of   20
 All quantities printed in internal units (Hartrees-Bohrs-Radians)
 Mixed Optimization -- En-DIIS/RFO-DIIS
 Swaping is turned off.
 Update second derivatives using D2CorX and points    1    2    3    4    5
                                                      6    7
 DE= -2.05D-06 DEPred=-1.69D-06 R= 1.21D+00
 SS=  1.41D+00  RLast= 3.94D-03 DXNew= 8.4853D-01 1.1808D-02
 Trust test= 1.21D+00 RLast= 3.94D-03 DXMaxT set to 5.05D-01
 The second derivative matrix:
                          R1        R2        R3        R4        A1
           R1           0.56437
           R2           0.08769   1.12593
           R3           0.07612   0.04421   0.23341
           R4          -0.01544  -0.01491   0.00559   0.55497
           A1           0.00907   0.04747  -0.04743  -0.00707   0.26417
           A2          -0.00787  -0.06417   0.03144   0.01305  -0.01869
           A3          -0.00120   0.01670   0.01599  -0.00597   0.00452
           A4           0.03792   0.00211   0.01020   0.00480  -0.03068
           D1           0.00000   0.00000   0.00000   0.00000   0.00000
           D2           0.00000   0.00000   0.00000   0.00000   0.00000
                          A2        A3        A4        D1        D2
           A2           0.26355
           A3           0.00513   0.24035
           A4           0.02594   0.00473   0.17606
           D1           0.00000   0.00000   0.00000   0.01638
           D2           0.00000   0.00000   0.00000   0.00000   0.01638
     Eigenvalues ---    0.01638   0.01638   0.15054   0.18909   0.23699
     Eigenvalues ---    0.32025   0.55064   0.57480   1.150481000.00000
 En-DIIS/RFO-DIIS IScMMF=        0 using points:     7    6
 RFO step:  Lambda=-6.22216912D-08.
 DIIS coeffs:      1.19795     -0.19795
 Iteration  1 RMS(Cart)=  0.00022636 RMS(Int)=  0.00000002
 Iteration  2 RMS(Cart)=  0.00000002 RMS(Int)=  0.00000000
 ClnCor:  largest displacement from symmetrization is 6.69D-09 for atom     2.
 Variable       Old X    -DE/DX   Delta X   Delta X   Delta X     New X
                                  (DIIS)     (GDIIS)  (Total)
    R1        2.51881   0.00001   0.00011   0.00000   0.00012   2.51893
    R2        2.24893   0.00000  -0.00003   0.00008   0.00005   2.24898
    R3        3.29960  -0.00014  -0.00051  -0.00025  -0.00077   3.29883
    R4        1.84207  -0.00002   0.00008  -0.00011  -0.00004   1.84204
    A1        2.20987  -0.00006  -0.00043   0.00005  -0.00038   2.20949
    A2        1.91334   0.00004   0.00021   0.00003   0.00024   1.91358
    A3        2.15998   0.00002   0.00022  -0.00009   0.00014   2.16011
    A4        1.87053   0.00001  -0.00021   0.00019  -0.00002   1.87051
    D1        0.00000   0.00000   0.00000   0.00000   0.00000   0.00000
    D2        3.14159   0.00000   0.00000   0.00000   0.00000   3.14159
         Item               Value     Threshold  Converged?
 Maximum Force            0.000141     0.000450     YES
 RMS     Force            0.000052     0.000300     YES
 Maximum Displacement     0.000400     0.001800     YES
 RMS     Displacement     0.000226     0.001200     YES
 Predicted change in Energy=-7.322040D-08
 Optimization completed.
    -- Stationary point found.
                           ----------------------------
                           !   Optimized Parameters   !
                           ! (Angstroms and Degrees)  !
 --------------------------                            --------------------------
 ! Name  Definition              Value          Derivative Info.                !
 --------------------------------------------------------------------------------
 ! R1    R(1,2)                  1.3329         -DE/DX =    0.0                 !
 ! R2    R(1,3)                  1.1901         -DE/DX =    0.0                 !
 ! R3    R(1,4)                  1.7461         -DE/DX =   -0.0001              !
 ! R4    R(2,5)                  0.9748         -DE/DX =    0.0                 !
 ! A1    A(2,1,3)              126.6164         -DE/DX =   -0.0001              !
 ! A2    A(2,1,4)              109.6261         -DE/DX =    0.0                 !
 ! A3    A(3,1,4)              123.7575         -DE/DX =    0.0                 !
 ! A4    A(1,2,5)              107.1734         -DE/DX =    0.0                 !
 ! D1    D(3,1,2,5)              0.0            -DE/DX =    0.0                 !
 ! D2    D(4,1,2,5)            180.0            -DE/DX =    0.0                 !
 --------------------------------------------------------------------------------
 GradGradGradGradGradGradGradGradGradGradGradGradGradGradGradGradGradGrad

                          Input orientation:                          
 ---------------------------------------------------------------------
 Center     Atomic      Atomic             Coordinates (Angstroms)
 Number     Number       Type             X           Y           Z
 ---------------------------------------------------------------------
      1          6           0       -0.245051    1.466559    0.096069
      2          8           0        0.019519    2.191726    1.182695
      3          8           0        0.519620    0.776956   -0.500607
      4         17           0       -1.920613    1.669896   -0.351056
      5          1           0        0.959565    2.052485    1.399787
 ---------------------------------------------------------------------
                    Distance matrix (angstroms):
                    1          2          3          4          5
     1  C    0.000000
     2  O    1.332899   0.000000
     3  O    1.190083   2.255035   0.000000
     4  Cl   1.746074   2.527609   2.602776   0.000000
     5  H    1.869248   0.974784   2.330670   3.392234   0.000000
 Stoichiometry    CHClO2
 Framework group  CS[SG(CHClO2)]
 Deg. of freedom     7
 Full point group                 CS      NOp   2
 Largest Abelian subgroup         CS      NOp   2
 Largest concise Abelian subgroup C1      NOp   1
                         Standard orientation:                         
 ---------------------------------------------------------------------
 Center     Atomic      Atomic             Coordinates (Angstroms)
 Number     Number       Type             X           Y           Z
 ---------------------------------------------------------------------
      1          6           0        0.000000    0.491889    0.000000
      2          8           0        1.313264    0.719831    0.000000
      3          8           0       -0.862727    1.311645    0.000000
      4         17           0       -0.296581   -1.228812    0.000000
      5          1           0        1.437576    1.686655    0.000000
 ---------------------------------------------------------------------
 Rotational constants (GHZ):     12.0901539      5.2054276      3.6387572

 **********************************************************************

            Population analysis using the SCF density.

 **********************************************************************

 Orbital symmetries:
       Occupied  (A') (A') (A') (A') (A') (A') (A") (A') (A') (A')
                 (A') (A') (A') (A') (A") (A') (A") (A') (A") (A')
       Virtual   (A') (A") (A') (A') (A") (A') (A') (A") (A') (A')
                 (A') (A") (A') (A') (A') (A') (A") (A') (A') (A')
                 (A') (A') (A") (A") (A') (A') (A') (A') (A') (A")
                 (A") (A') (A') (A') (A') (A") (A') (A") (A') (A')
                 (A') (A") (A") (A') (A') (A") (A') (A") (A') (A')
                 (A') (A") (A') (A') (A") (A') (A') (A') (A') (A')
                 (A') (A')
 The electronic state is 1-A'.
 Alpha  occ. eigenvalues -- -102.69684 -19.73927 -19.68740 -10.76744  -9.84492
 Alpha  occ. eigenvalues --   -7.56901  -7.56234  -7.56157  -1.29047  -1.19686
 Alpha  occ. eigenvalues --   -0.98001  -0.75478  -0.61878  -0.61252  -0.58644
 Alpha  occ. eigenvalues --   -0.51733  -0.44352  -0.42774  -0.40934  -0.39122
 Alpha virt. eigenvalues --   -0.00362   0.02018   0.03443   0.05239   0.05694
 Alpha virt. eigenvalues --    0.05913   0.10425   0.10654   0.11149   0.16258
 Alpha virt. eigenvalues --    0.17449   0.19952   0.20042   0.24127   0.26421
 Alpha virt. eigenvalues --    0.27614   0.28499   0.30830   0.33210   0.36364
 Alpha virt. eigenvalues --    0.45842   0.58470   0.63998   0.65220   0.65594
 Alpha virt. eigenvalues --    0.71193   0.76275   0.82953   0.90509   0.91229
 Alpha virt. eigenvalues --    0.93941   1.00900   1.09369   1.10594   1.16886
 Alpha virt. eigenvalues --    1.17507   1.21798   1.30796   1.32799   1.33669
 Alpha virt. eigenvalues --    1.35424   1.41852   1.53126   1.56205   1.71904
 Alpha virt. eigenvalues --    1.76325   1.77408   1.88168   1.90803   1.93138
 Alpha virt. eigenvalues --    2.15276   2.34488   2.43482   2.65367   2.66726
 Alpha virt. eigenvalues --    2.81298   2.99612   3.13198   4.02152   4.21325
 Alpha virt. eigenvalues --    4.28024   4.46774
          Condensed to atoms (all electrons):
              1          2          3          4          5
     1  C    4.826280   0.160184   0.403403   0.326706   0.005069
     2  O    0.160184   8.494017  -0.168501  -0.143971   0.171292
     3  O    0.403403  -0.168501   8.207172  -0.107916   0.011193
     4  Cl   0.326706  -0.143971  -0.107916  16.834716   0.012695
     5  H    0.005069   0.171292   0.011193   0.012695   0.297507
 Mulliken atomic charges:
              1
     1  C    0.278359
     2  O   -0.513021
     3  O   -0.345351
     4  Cl   0.077770
     5  H    0.502243
 Sum of Mulliken atomic charges =   0.00000
 Mulliken charges with hydrogens summed into heavy atoms:
              1
     1  C    0.278359
     2  O   -0.010778
     3  O   -0.345351
     4  Cl   0.077770
 Sum of Mulliken charges with hydrogens summed into heavy atoms =   0.00000
 Electronic spatial extent (au):  <R**2>=            318.1945
 Charge=              0.0000 electrons
 Dipole moment (field-independent basis, Debye):
    X=              1.7486    Y=              0.9360    Z=              0.0000  Tot=              1.9833
 Quadrupole moment (field-independent basis, Debye-Ang):
   XX=            -30.7481   YY=            -26.4318   ZZ=            -28.8705
   XY=              5.4067   XZ=              0.0000   YZ=              0.0000
 Traceless Quadrupole moment (field-independent basis, Debye-Ang):
   XX=             -2.0646   YY=              2.2517   ZZ=             -0.1870
[...]
                 (A') (A') (A") (A") (A') (A') (A') (A') (A') (A")
                 (A") (A') (A') (A') (A') (A") (A') (A") (A') (A')
                 (A') (A") (A") (A') (A') (A") (A') (A") (A') (A')
                 (A') (A") (A') (A') (A") (A') (A') (A') (A') (A')
                 (A') (A')
 The electronic state is 1-A'.
 Alpha  occ. eigenvalues -- -102.69684 -19.73927 -19.68740 -10.76744  -9.84492
 Alpha  occ. eigenvalues --   -7.56901  -7.56234  -7.56157  -1.29047  -1.19686
 Alpha  occ. eigenvalues --   -0.98001  -0.75478  -0.61878  -0.61252  -0.58644
 Alpha  occ. eigenvalues --   -0.51733  -0.44352  -0.42774  -0.40934  -0.39122
 Alpha virt. eigenvalues --   -0.00362   0.02018   0.03443   0.05239   0.05694
 Alpha virt. eigenvalues --    0.05913   0.10425   0.10654   0.11149   0.16258
 Alpha virt. eigenvalues --    0.17449   0.19952   0.20042   0.24127   0.26421
 Alpha virt. eigenvalues --    0.27614   0.28499   0.30830   0.33210   0.36364
 Alpha virt. eigenvalues --    0.45842   0.58470   0.63998   0.65220   0.65594
 Alpha virt. eigenvalues --    0.71193   0.76275   0.82953   0.90509   0.91229
 Alpha virt. eigenvalues --    0.93941   1.00900   1.09369   1.10594   1.16886
 Alpha virt. eigenvalues --    1.17507   1.21798   1.30796   1.32799   1.33669
 Alpha virt. eigenvalues --    1.35424   1.41852   1.53126   1.56205   1.71904
 Alpha virt. eigenvalues --    1.76325   1.77408   1.88168   1.90803   1.93138
 Alpha virt. eigenvalues --    2.15276   2.34488   2.43482   2.65367   2.66726
 Alpha virt. eigenvalues --    2.81298   2.99612   3.13198   4.02152   4.21325
 Alpha virt. eigenvalues --    4.28024   4.46774
          Condensed to atoms (all electrons):
              1          2          3          4          5
     1  C    4.826280   0.160184   0.403403   0.326706   0.005069
     2  O    0.160184   8.494016  -0.168501  -0.143971   0.171292
     3  O    0.403403  -0.168501   8.207172  -0.107916   0.011193
     4  Cl   0.326706  -0.143971  -0.107916  16.834716   0.012695
     5  H    0.005069   0.171292   0.011193   0.012695   0.297507
 Mulliken atomic charges:
              1
     1  C    0.278359
     2  O   -0.513021
     3  O   -0.345351
     4  Cl   0.077770
     5  H    0.502243
 Sum of Mulliken atomic charges =   0.00000
 Mulliken charges with hydrogens summed into heavy atoms:
              1
     1  C    0.278359
     2  O   -0.010778
     3  O   -0.345351
     4  Cl   0.077770
 Sum of Mulliken charges with hydrogens summed into heavy atoms =   0.00000
 APT atomic charges:
              1
     1  C    1.592271
     2  O   -0.772877
     3  O   -0.813741
     4  Cl  -0.338579
     5  H    0.332925
 Sum of APT charges=   0.00000
 APT Atomic charges with hydrogens summed into heavy atoms:
              1
     1  C    1.592271
     2  O   -0.439952
     3  O   -0.813741
     4  Cl  -0.338579
     5  H    0.000000
 Sum of APT charges=   0.00000
 Electronic spatial extent (au):  <R**2>=            318.1945
 Charge=              0.0000 electrons
 Dipole moment (field-independent basis, Debye):
    X=              1.7486    Y=              0.9360    Z=              0.0000  Tot=              1.9833
 Quadrupole moment (field-independent basis, Debye-Ang):
   XX=            -30.7481   YY=            -26.4318   ZZ=            -28.8705
   XY=              5.4067   XZ=              0.0000   YZ=              0.0000
 Traceless Quadrupole moment (field-independent basis, Debye-Ang):
   XX=             -2.0646   YY=              2.2517   ZZ=             -0.1870
   XY=              5.4067   XZ=              0.0000   YZ=              0.0000
 Octapole moment (field-independent basis, Debye-Ang**2):
  XXX=              3.7645  YYY=              4.5537  ZZZ=              0.0000  XYY=             10.2116
  XXY=              4.1099  XXZ=              0.0000  XZZ=              0.2616  YZZ=              1.5880
  YYZ=              0.0000  XYZ=              0.0000
 Hexadecapole moment (field-independent basis, Debye-Ang**3):
 XXXX=           -124.5071 YYYY=           -208.3746 ZZZZ=            -28.1350 XXXY=             -4.3094
 XXXZ=              0.0000 YYYX=              8.3242 YYYZ=              0.0000 ZZZX=              0.0000
 ZZZY=              0.0000 XXYY=            -49.5828 XXZZ=            -26.0730 YYZZ=            -43.5001
 XXYZ=              0.0000 YYXZ=              0.0000 ZZXY=             -4.7663
 N-N= 1.529645959046D+02 E-N=-1.843753495683D+03  KE= 6.465445590980D+02
 Symmetry A'   KE= 5.924800934250D+02
 Symmetry A"   KE= 5.406446567292D+01
  Exact polarizability:  29.817   0.805  41.192   0.000   0.000  19.142
 Approx polarizability:  35.323  -1.862  48.603   0.000   0.000  22.032
 Calling FoFJK, ICntrl=    100127 FMM=F ISym2X=1 I1Cent= 0 IOpClX= 0 NMat=1 NMatS=1 NMatT=0.
 Full mass-weighted force constant matrix:
 Low frequencies ---  -21.6401    0.0019    0.0039    0.0040    9.7378   27.6376
 Low frequencies ---  414.4630  502.5510  553.7058
 Diagonal vibrational polarizability:
        9.6352328      12.6224043      12.1813624
 Harmonic frequencies (cm**-1), IR intensities (KM/Mole), Raman scattering
 activities (A**4/AMU), depolarization ratios for plane and unpolarized
 incident light, reduced masses (AMU), force constants (mDyne/A),
 and normal coordinates:
                     1                      2                      3
                    A'                     A'                     A"
 Frequencies --   414.4628               502.5457               553.7051
 Red. masses --    10.3085                12.8700                 1.2085
 Frc consts  --     1.0433                 1.9150                 0.2183
 IR Inten    --     2.3273                 5.3230                98.3014
  Atom  AN      X      Y      Z        X      Y      Z        X      Y      Z
     1   6     0.31  -0.12   0.00    -0.06   0.09   0.00     0.00   0.00   0.12
     2   8     0.24   0.46   0.00    -0.13   0.32   0.00     0.00   0.00   0.04
     3   8     0.08  -0.37   0.00     0.29   0.46   0.00     0.00   0.00  -0.02
     4  17    -0.24  -0.01   0.00    -0.04  -0.40   0.00     0.00   0.00  -0.02
     5   1    -0.36   0.54   0.00    -0.52   0.37   0.00     0.00   0.00  -0.99
                     4                      5                      6
                    A"                     A'                     A'
 Frequencies --   713.9174               734.8053              1189.7822
 Red. masses --     5.9193                 4.2899                 4.1165
 Frc consts  --     1.7775                 1.3647                 3.4333
 IR Inten    --    67.2883               167.8977               377.6023
  Atom  AN      X      Y      Z        X      Y      Z        X      Y      Z
     1   6     0.00   0.00   0.58     0.06   0.33   0.00    -0.24  -0.18   0.00
     2   8     0.00   0.00  -0.20     0.21  -0.01   0.00     0.34  -0.01   0.00
     3   8     0.00   0.00  -0.20    -0.24   0.02   0.00    -0.12   0.12   0.00
     4  17     0.00   0.00  -0.04    -0.03  -0.11   0.00     0.01   0.01   0.00
     5   1     0.00   0.00   0.76     0.87  -0.10   0.00    -0.86   0.17   0.00
                     7                      8                      9
                    A'                     A'                     A'
 Frequencies --  1347.3355              1919.6401              3733.1260
 Red. masses --     1.7345                12.1594                 1.0647
 Frc consts  --     1.8552                26.3998                 8.7420
 IR Inten    --   109.8463               537.3878               117.1575
  Atom  AN      X      Y      Z        X      Y      Z        X      Y      Z
     1   6     0.16   0.16   0.00     0.61  -0.50   0.00     0.00   0.00   0.00
     2   8    -0.02  -0.10   0.00    -0.09   0.01   0.00     0.01   0.06   0.00
     3   8    -0.03  -0.01   0.00    -0.38   0.36   0.00     0.00   0.00   0.00
     4  17     0.00  -0.01   0.00     0.00   0.00   0.00     0.00   0.00   0.00
     5   1    -0.97   0.06   0.00     0.29  -0.05   0.00    -0.15  -0.99   0.00

 -------------------
 - Thermochemistry -
 -------------------
 Temperature   298.150 Kelvin.  Pressure   1.00000 Atm.
 Atom     1 has atomic number  6 and mass  12.00000
 Atom     2 has atomic number  8 and mass  15.99491
 Atom     3 has atomic number  8 and mass  15.99491
 Atom     4 has atomic number 17 and mass  34.96885
 Atom     5 has atomic number  1 and mass   1.00783
 Molecular mass:    79.96651 amu.
 Principal axes and moments of inertia in atomic units:
                           1         2         3
     Eigenvalues --   149.27363 346.70374 495.97737
           X            0.22552   0.97424   0.00000
           Y            0.97424  -0.22552   0.00000
           Z            0.00000   0.00000   1.00000
 This molecule is an asymmetric top.
 Rotational symmetry number  1.
 Rotational temperatures (Kelvin)      0.58024     0.24982     0.17463
 Rotational constants (GHZ):          12.09015     5.20543     3.63876
 Zero-point vibrational energy      66448.5 (Joules/Mol)
                                   15.88157 (Kcal/Mol)
 Warning -- explicit consideration of   3 degrees of freedom as
           vibrations may cause significant error
 Vibrational temperatures:    596.32   723.05   796.66  1027.17  1057.22
          (Kelvin)           1711.83  1938.51  2761.93  5371.13
 
 Zero-point correction=                           0.025309 (Hartree/Particle)
 Thermal correction to Energy=                    0.029081
 Thermal correction to Enthalpy=                  0.030025
 Thermal correction to Gibbs Free Energy=        -0.001586
 Sum of electronic and zero-point Energies=           -649.234051
 Sum of electronic and thermal Energies=              -649.230279
 Sum of electronic and thermal Enthalpies=            -649.229335
 Sum of electronic and thermal Free Energies=         -649.260946
 
                     E (Thermal)             CV                S
                      KCal/Mol        Cal/Mol-Kelvin    Cal/Mol-Kelvin
 Total                   18.248             11.698             66.530
 Electronic               0.000              0.000              0.000
 Translational            0.889              2.981             39.052
 Rotational               0.889              2.981             24.755
 Vibrational             16.471              5.736              2.724
 Vibration     1          0.778              1.439              0.911
 Vibration     2          0.858              1.244              0.652
 Vibration     3          0.909              1.132              0.537
                       Q            Log10(Q)             Ln(Q)
 Total Bot       0.536372D+01          0.729466          1.679658
 Total V=0       0.234814D+13         12.370724         28.484646
 Vib (Bot)       0.332737D-11        -11.477899        -26.428840
 Vib (Bot)    1  0.425441D+00         -0.371160         -0.854628
 Vib (Bot)    2  0.326301D+00         -0.486381         -1.119934
 Vib (Bot)    3  0.282414D+00         -0.549114         -1.264382
 Vib (V=0)       0.145666D+01          0.163359          0.376148
 Vib (V=0)    1  0.115651D+01          0.063148          0.145404
 Vib (V=0)    2  0.109705D+01          0.040228          0.092628
 Vib (V=0)    3  0.107425D+01          0.031103          0.071618
 Electronic      0.100000D+01          0.000000          0.000000
 Translational   0.281072D+08          7.448817         17.151536
 Rotational      0.573519D+05          4.758548         10.956962
 ***** Axes restored to original set *****
 -------------------------------------------------------------------
 Center     Atomic                   Forces (Hartrees/Bohr)
 Number     Number              X              Y              Z
 -------------------------------------------------------------------
      1        6          -0.000198079    0.000018647   -0.000060091
      2        8           0.000034062   -0.000008798    0.000002832
      3        8           0.000066991    0.000014686    0.000048489
      4       17           0.000154295   -0.000061805   -0.000016627
      5        1          -0.000057269    0.000037270    0.000025398
 -------------------------------------------------------------------
 Cartesian Forces:  Max     0.000198079 RMS     0.000075149

 GradGradGradGradGradGradGradGradGradGradGradGradGradGradGradGradGradGrad
 Berny optimization.
 Internal  Forces:  Max     0.000140915 RMS     0.000051699
 Search for a local minimum.
 Step number   1 out of a maximum of    2
 All quantities printed in internal units (Hartrees-Bohrs-Radians)
 Second derivative matrix not updated -- analytic derivatives used.
 The second derivative matrix:
                          R1        R2        R3        R4        A1
           R1           0.46410
           R2           0.08126   0.96989
           R3           0.04059   0.06122   0.23259
           R4           0.00692  -0.00673  -0.00123   0.50128
           A1           0.02261   0.04171  -0.05439  -0.01117   0.18729
           A2           0.02292  -0.04925   0.03886   0.00892  -0.10186
           A3          -0.04553   0.00754   0.01554   0.00225  -0.08543
           A4           0.04006   0.00295   0.00549   0.02541  -0.02543
           D1           0.00000   0.00000   0.00000   0.00000   0.00000
           D2           0.00000   0.00000   0.00000   0.00000   0.00000
                          A2        A3        A4        D1        D2
           A2           0.17455
           A3          -0.07269   0.15812
           A4           0.02433   0.00110   0.18058
           D1           0.00000   0.00000   0.00000   0.10747
           D2           0.00000   0.00000   0.00000  -0.09214   0.11254
     Eigenvalues ---    0.01783   0.15172   0.18845   0.20217   0.22114
     Eigenvalues ---    0.33442   0.47092   0.50840   0.993371000.00000
 Angle between quadratic step and forces=   9.02 degrees.
 Linear search not attempted -- first point.
 Iteration  1 RMS(Cart)=  0.00023465 RMS(Int)=  0.00000003
 Iteration  2 RMS(Cart)=  0.00000003 RMS(Int)=  0.00000001
 ClnCor:  largest displacement from symmetrization is 1.01D-08 for atom     1.
 Variable       Old X    -DE/DX   Delta X   Delta X   Delta X     New X
                                 (Linear)    (Quad)   (Total)
    R1        2.51881   0.00001   0.00000   0.00009   0.00009   2.51890
    R2        2.24893   0.00000   0.00000   0.00007   0.00007   2.24900
    R3        3.29960  -0.00014   0.00000  -0.00078  -0.00078   3.29882
    R4        1.84207  -0.00002   0.00000  -0.00006  -0.00006   1.84202
    A1        2.20987  -0.00006   0.00000  -0.00040  -0.00040   2.20948
    A2        1.91334   0.00004   0.00000   0.00026   0.00026   1.91359
    A3        2.15998   0.00002   0.00000   0.00014   0.00014   2.16011
    A4        1.87053   0.00001   0.00000  -0.00002  -0.00002   1.87051
    D1        0.00000   0.00000   0.00000   0.00000   0.00000   0.00000
    D2        3.14159   0.00000   0.00000   0.00000   0.00000   3.14159
         Item               Value     Threshold  Converged?
 Maximum Force            0.000141     0.000450     YES
 RMS     Force            0.000052     0.000300     YES
 Maximum Displacement     0.000412     0.001800     YES
 RMS     Displacement     0.000235     0.001200     YES
 Predicted change in Energy=-7.549432D-08
 Optimization completed.
    -- Stationary point found.
                           ----------------------------
                           !   Optimized Parameters   !
                           ! (Angstroms and Degrees)  !
 --------------------------                            --------------------------
 ! Name  Definition              Value          Derivative Info.                !
 --------------------------------------------------------------------------------
 ! R1    R(1,2)                  1.3329         -DE/DX =    0.0                 !
 ! R2    R(1,3)                  1.1901         -DE/DX =    0.0                 !
 ! R3    R(1,4)                  1.7461         -DE/DX =   -0.0001              !
 ! R4    R(2,5)                  0.9748         -DE/DX =    0.0                 !
 ! A1    A(2,1,3)              126.6164         -DE/DX =   -0.0001              !
 ! A2    A(2,1,4)              109.6261         -DE/DX =    0.0                 !
 ! A3    A(3,1,4)              123.7575         -DE/DX =    0.0                 !
 ! A4    A(1,2,5)              107.1734         -DE/DX =    0.0                 !
 ! D1    D(3,1,2,5)              0.0            -DE/DX =    0.0                 !
 ! D2    D(4,1,2,5)            180.0            -DE/DX =    0.0                 !
 --------------------------------------------------------------------------------
 GradGradGradGradGradGradGradGradGradGradGradGradGradGradGradGradGradGrad

 1|1|UNPC-DESKTOP-319GPER|Freq|RM062X|6-31+G(d)|C1H1Cl1O2|SAGAD|23-Nov-
 2020|0||#N Geom=AllCheck Guess=TCheck SCRF=Check GenChk RM062X/6-31+G(
 d) Freq||Chloroformic Acid M062X||0,1|C,-0.2450512873,1.466559153,0.09
 60688116|O,0.0195188583,2.1917262505,1.1826945443|O,0.5196200629,0.776
 955837,-0.5006070223|Cl,-1.9206128046,1.6698955757,-0.3510560645|H,0.9
 595648529,2.0524854808,1.3997866657||Version=IA32W-G09RevA.02|State=1-
 A'|HF=-649.25936|RMSD=8.968e-010|RMSF=7.515e-005|ZeroPoint=0.0253089|T
 hermal=0.0290807|Dipole=0.3794823,0.325142,0.5992912|DipoleDeriv=2.311
 0812,-0.3864504,0.3220507,-0.4152718,1.0180455,0.7114091,0.2833813,0.7
 237928,1.4476863,-0.6384612,-0.1857666,-0.3653035,-0.1215085,-0.624215
 5,-0.3955125,-0.2790891,-0.4231223,-1.0559552,-1.12225,0.3868382,0.175
 9548,0.3692496,-0.6665908,-0.3012349,0.1523564,-0.2936776,-0.6523813,-
 0.8382041,0.118163,-0.1809937,0.1103005,-0.0720497,0.015112,-0.1915427
 ,0.0184902,-0.1054818,0.287834,0.0672158,0.0482918,0.0572301,0.3448105
 ,-0.0297737,0.0348941,-0.0254831,0.366132|Polar=39.8677624,-4.0290902,
 23.7198697,3.4993998,4.4106986,26.5635122|PG=CS [SG(C1H1Cl1O2)]|NImag=
 0||0.65295610,-0.25344514,0.51701086,-0.13499346,0.34899745,0.58597076
 ,-0.11984387,-0.03159002,-0.06641046,0.58420429,0.00013029,-0.14762708
 ,-0.11224558,-0.06628444,0.20097998,-0.02385171,-0.12587485,-0.2430584
 9,0.14531773,0.18882333,0.35479763,-0.40538899,0.28703665,0.24327709,0
 .02688142,0.01280979,0.01564148,0.44234978,0.27531624,-0.33598024,-0.2
 3147838,0.02281361,-0.02194117,-0.06052755,-0.33254851,0.35617303,0.22
 755195,-0.22644246,-0.28132634,0.02906349,-0.06482590,-0.04401061,-0.2
 7032524,0.29060374,0.30682881,-0.11357294,-0.00036057,-0.03188933,-0.0
 3927083,-0.00580139,-0.02860994,-0.06281043,0.03009927,0.00637460,0.21
 353591,0.00787866,-0.03933296,0.00492515,-0.01472981,0.00740487,-0.008
 73688,0.03000078,0.00498250,-0.00234979,-0.02276712,0.02556742,-0.0208
 3485,0.00138499,-0.04757459,-0.04058909,-0.00490060,-0.01481544,0.0062
 4246,-0.00230747,0.01592779,0.05645970,0.00970767,0.04832464,-0.014150
 29,-0.00164093,-0.00998385,-0.45197100,0.05914575,-0.10849756,-0.00103
 178,0.00431939,0.00733520,0.00211828,-0.00038251,-0.00127821,0.4650347
 8,-0.02988006,0.00592943,-0.01019864,0.08979065,-0.03881660,0.00631595
 ,0.00270129,-0.00323411,0.00301442,-0.00117019,0.00137817,-0.00388459,
 -0.06144169,0.03474311,-0.04787193,0.00193487,-0.01401134,-0.06738167,
 -0.00685125,-0.05291310,0.00516422,0.00370966,0.00258035,-0.00233503,-
 0.00354615,-0.00186240,0.11242442,0.00475286,0.06620648||0.00019808,-0
 .00001865,0.00006009,-0.00003406,0.00000880,-0.00000283,-0.00006699,-0
 .00001469,-0.00004849,-0.00015429,0.00006180,0.00001663,0.00005727,-0.
 00003727,-0.00002540|||@


 THE TRULY SUCCESSFUL PERFORMANCE OF RESEARCHES IN
 INORGANIC CHEMISTRY IS POSSIBLE ONLY TO ONE WHO IS NOT
 ONLY A THEORETICAL CHEMIST, BUT ALSO AN ACCOMPLISHED
 ANALYST AND, MOREOVER, NOT MERELY A PRACTICALLY TRAINED,
 MECHANICAL WORKER, BUT A THINKING CREATIVE ARTIST.
   --  CLEMENS WINKLER, BER. 33, 1697(1900)
 Job cpu time:  0 days  0 hours  0 minutes 14.0 seconds.
 File lengths (MBytes):  RWF=      8 Int=      0 D2E=      0 Chk=      1 Scr=      1
 Normal termination of Gaussian 09 at Mon Nov 23 12:56:16 2020.
