 Entering Link 1 = C:\G09W\l1.exe PID=      5464.
  
 Copyright (c) 1988,1990,1992,1993,1995,1998,2003,2009, Gaussian, Inc.
                  All Rights Reserved.
  
 This is part of the Gaussian(R) 09 program.  It is based on
 the Gaussian(R) 03 system (copyright 2003, Gaussian, Inc.),
 the Gaussian(R) 98 system (copyright 1998, Gaussian, Inc.),
 the Gaussian(R) 94 system (copyright 1995, Gaussian, Inc.),
 the Gaussian 92(TM) system (copyright 1992, Gaussian, Inc.),
 the Gaussian 90(TM) system (copyright 1990, Gaussian, Inc.),
 the Gaussian 88(TM) system (copyright 1988, Gaussian, Inc.),
 the Gaussian 86(TM) system (copyright 1986, Carnegie Mellon
 University), and the Gaussian 82(TM) system (copyright 1983,
 Carnegie Mellon University). Gaussian is a federally registered
 trademark of Gaussian, Inc.
  
 This software contains proprietary and confidential information,
 including trade secrets, belonging to Gaussian, Inc.
  
 This software is provided under written license and may be
 used, copied, transmitted, or stored only in accord with that
 written license.
  
 The following legend is applicable only to US Government
 contracts under FAR:
  
                    RESTRICTED RIGHTS LEGEND
  
 Use, reproduction and disclosure by the US Government is
 subject to restrictions as set forth in subparagraphs (a)
 and (c) of the Commercial Computer Software - Restricted
 Rights clause in FAR 52.227-19.
  
 Gaussian, Inc.
 340 Quinnipiac St., Bldg. 40, Wallingford CT 06492
  
  
 ---------------------------------------------------------------
 Warning -- This program may not be used in any manner that
 competes with the business of Gaussian, Inc. or will provide
 assistance to any competitor of Gaussian, Inc.  The licensee
 of this program is prohibited from giving any competitor of
 Gaussian, Inc. access to this program.  By using this program,
 the user acknowledges that Gaussian, Inc. is engaged in the
 business of creating and licensing software in the field of
 computational chemistry and represents and warrants to the
 licensee that it is not a competitor of Gaussian, Inc. and that
 it will not use this program in any manner prohibited above.
 ---------------------------------------------------------------
  

 Cite this work as:
 Gaussian 09, Revision A.02,
 M. J. Frisch, G. W. Trucks, H. B. Schlegel, G. E. Scuseria, 
 M. A. Robb, J. R. Cheeseman, G. Scalmani, V. Barone, B. Mennucci, 
 G. A. Petersson, H. Nakatsuji, M. Caricato, X. Li, H. P. Hratchian, 
 A. F. Izmaylov, J. Bloino, G. Zheng, J. L. Sonnenberg, M. Hada, 
 M. Ehara, K. Toyota, R. Fukuda, J. Hasegawa, M. Ishida, T. Nakajima, 
 Y. Honda, O. Kitao, H. Nakai, T. Vreven, J. A. Montgomery, Jr., 
 J. E. Peralta, F. Ogliaro, M. Bearpark, J. J. Heyd, E. Brothers, 
 K. N. Kudin, V. N. Staroverov, R. Kobayashi, J. Normand, 
 K. Raghavachari, A. Rendell, J. C. Burant, S. S. Iyengar, J. Tomasi, 
 M. Cossi, N. Rega, J. M. Millam, M. Klene, J. E. Knox, J. B. Cross, 
 V. Bakken, C. Adamo, J. Jaramillo, R. Gomperts, R. E. Stratmann, 
 O. Yazyev, A. J. Austin, R. Cammi, C. Pomelli, J. W. Ochterski, 
 R. L. Martin, K. Morokuma, V. G. Zakrzewski, G. A. Voth, 
 P. Salvador, J. J. Dannenberg, S. Dapprich, A. D. Daniels, 
 O. Farkas, J. B. Foresman, J. V. Ortiz, J. Cioslowski, 
 and D. J. Fox, Gaussian, Inc., Wallingford CT, 2009.
 
 ******************************************
 Gaussian 09:  IA32W-G09RevA.02 11-Jun-2009
                06-Feb-2021 
 ******************************************
 %chk=D:\Documents\rayGit\FQ\quimicaComputacional\proyecto\decompositionHydrogenP
 eroxide\descompositionByRadicals\gasPhase\step2\ts\tsM062X.chk
 %mem=1500mb
 %nproc=4
 Will use up to    4 processors via shared memory.
 -------------------------------------------------------
 # opt(calcfc,ts,noeigen) freq=noraman 6-31+G(d,p) m062x
 -------------------------------------------------------
 1/5=1,10=4,11=1,14=-1,18=20,26=3,38=1/1,3;
 2/9=110,12=2,17=6,18=5,40=1/2;
 3/5=1,6=6,7=111,11=2,16=1,25=1,30=1,71=2,74=-55/1,2,3;
 4//1;
 5/5=2,38=5/2;
 8/6=4,10=90,11=11/1;
 11/6=1,8=1,9=11,15=111,16=1/1,2,10;
 10/6=1,7=6,13=1/2;
 6/7=2,8=2,9=2,10=2,28=1/1;
 7/10=1,18=20,25=1/1,2,3,16;
 1/5=1,10=4,11=1,14=-1,18=20/3(2);
 2/9=110/2;
 99//99;
 2/9=110/2;
 3/5=1,6=6,7=111,11=2,16=1,25=1,30=1,71=1,74=-55/1,2,3;
 4/5=5,16=3/1;
 5/5=2,38=5/2;
 7//1,2,3,16;
 1/5=1,11=1,14=-1,18=20/3(-5);
 2/9=110/2;
 6/7=2,8=2,9=2,10=2,19=2,28=1/1;
 99/9=1/99;
 ---
 ts2
 ---
 Symbolic Z-matrix:
 Charge =  0 Multiplicity = 2
 O                    -0.65177  -0.0075    0. 
 H                    -0.97222  -0.0075   -0.90494 
 O                     0.66823  -0.0075    0. 
 H                     1.1349    1.31243   0. 
 O                     1.60157   2.63237   0. 
 H                     2.56157   2.63237   0. 
 

 GradGradGradGradGradGradGradGradGradGradGradGradGradGradGradGradGradGrad
 Berny optimization.
 Initialization pass.
                           ----------------------------
                           !    Initial Parameters    !
                           ! (Angstroms and Degrees)  !
 --------------------------                            --------------------------
 ! Name  Definition              Value          Derivative Info.                !
 --------------------------------------------------------------------------------
 ! R1    R(1,2)                  0.96           calculate D2E/DX2 analytically  !
 ! R2    R(1,3)                  1.32           calculate D2E/DX2 analytically  !
 ! R3    R(3,4)                  1.4            calculate D2E/DX2 analytically  !
 ! R4    R(4,5)                  1.4            calculate D2E/DX2 analytically  !
 ! R5    R(5,6)                  0.96           calculate D2E/DX2 analytically  !
 ! A1    A(2,1,3)              109.5            calculate D2E/DX2 analytically  !
 ! A2    A(1,3,4)              109.4712         calculate D2E/DX2 analytically  !
 ! A3    A(4,5,6)              109.4712         calculate D2E/DX2 analytically  !
 ! A4    L(3,4,5,1,-1)         180.0            calculate D2E/DX2 analytically  !
 ! A5    L(3,4,5,1,-2)         180.0            calculate D2E/DX2 analytically  !
 ! D1    D(2,1,3,4)             90.0            calculate D2E/DX2 analytically  !
 ! D2    D(1,3,5,6)            180.0            calculate D2E/DX2 analytically  !
 --------------------------------------------------------------------------------
 Trust Radius=3.00D-01 FncErr=1.00D-07 GrdErr=1.00D-06
 Number of steps in this run=  22 maximum allowed number of steps= 100.
 Search for a saddle point of order  1.
 GradGradGradGradGradGradGradGradGradGradGradGradGradGradGradGradGradGrad

                          Input orientation:                          
 ---------------------------------------------------------------------
 Center     Atomic      Atomic             Coordinates (Angstroms)
 Number     Number       Type             X           Y           Z
 ---------------------------------------------------------------------
      1          8           0       -0.651768   -0.007500    0.000000
      2          1           0       -0.972222   -0.007500   -0.904936
      3          8           0        0.668232   -0.007500    0.000000
      4          1           0        1.134899    1.312433    0.000000
      5          8           0        1.601566    2.632365    0.000000
      6          1           0        2.561566    2.632365    0.000000
 ---------------------------------------------------------------------
                    Distance matrix (angstroms):
                    1          2          3          4          5
     1  O    0.000000
     2  H    0.960000   0.000000
     3  O    1.320000   1.873499   0.000000
     4  H    2.221351   2.645957   1.400000   0.000000
     5  O    3.470792   3.796338   2.800000   1.400000   0.000000
     6  H    4.158654   4.502827   3.248630   1.943605   0.960000
                    6
     6  H    0.000000
 Stoichiometry    H3O3(2)
 Framework group  C1[X(H3O3)]
 Deg. of freedom    12
 Full point group                 C1      NOp   1
 Largest Abelian subgroup         C1      NOp   1
 Largest concise Abelian subgroup C1      NOp   1
                         Standard orientation:                         
 ---------------------------------------------------------------------
 Center     Atomic      Atomic             Coordinates (Angstroms)
 Number     Number       Type             X           Y           Z
 ---------------------------------------------------------------------
      1          8           0       -1.488460   -0.390995   -0.116214
      2          1           0       -1.707553   -0.746138    0.748351
      3          8           0       -0.677962    0.641397    0.023997
      4          1           0        0.649885    0.198140    0.005441
      5          8           0        1.977733   -0.245117   -0.013114
      6          1           0        2.567185    0.505714    0.088857
 ---------------------------------------------------------------------
 Rotational constants (GHZ):     43.7398063      4.3514370      4.0047167
 Standard basis: 6-31+G(d,p) (6D, 7F)
 There are    72 symmetry adapted basis functions of A   symmetry.
 Integral buffers will be    262144 words long.
 Raffenetti 2 integral format.
 Two-electron integral symmetry is turned on.
    72 basis functions,   117 primitive gaussians,    72 cartesian basis functions
    14 alpha electrons       13 beta electrons
       nuclear repulsion energy        70.5691747920 Hartrees.
 NAtoms=    6 NActive=    6 NUniq=    6 SFac= 7.50D-01 NAtFMM=   80 NAOKFM=F Big=F
 One-electron integrals computed using PRISM.
 NBasis=    72 RedAO= T  NBF=    72
 NBsUse=    72 1.00D-06 NBFU=    72
 Harris functional with IExCor= 1009 diagonalized for initial guess.
 ExpMin= 8.45D-02 ExpMax= 5.48D+03 ExpMxC= 8.25D+02 IAcc=2 IRadAn=         0 AccDes= 0.00D+00
 HarFok:  IExCor= 1009 AccDes= 0.00D+00 IRadAn=         0 IDoV= 1
 ScaDFX=  1.000000  1.000000  1.000000  1.000000
 FoFCou: FMM=F IPFlag=           0 FMFlag=      100000 FMFlg1=           0
         NFxFlg=           0 DoJE=T BraDBF=F KetDBF=T FulRan=T
         Omega=  0.000000  0.000000  1.000000  0.000000  0.000000 ICntrl=     500 IOpCl=  0
         NMat0=    1 NMatS0=    1 NMatT0=    0 NMatD0=    1 NMtDS0=    0 NMtDT0=    0
         I1Cent=           4 NGrid=           0.
 Petite list used in FoFCou.
 Initial guess orbital symmetries:
 Alpha Orbitals:
       Occupied  (A) (A) (A) (A) (A) (A) (A) (A) (A) (A) (A) (A)
                 (A) (A)
       Virtual   (A) (A) (A) (A) (A) (A) (A) (A) (A) (A) (A) (A)
                 (A) (A) (A) (A) (A) (A) (A) (A) (A) (A) (A) (A)
                 (A) (A) (A) (A) (A) (A) (A) (A) (A) (A) (A) (A)
                 (A) (A) (A) (A) (A) (A) (A) (A) (A) (A) (A) (A)
                 (A) (A) (A) (A) (A) (A) (A) (A) (A) (A)
 Beta  Orbitals:
       Occupied  (A) (A) (A) (A) (A) (A) (A) (A) (A) (A) (A) (A)
                 (A)
       Virtual   (A) (A) (A) (A) (A) (A) (A) (A) (A) (A) (A) (A)
                 (A) (A) (A) (A) (A) (A) (A) (A) (A) (A) (A) (A)
                 (A) (A) (A) (A) (A) (A) (A) (A) (A) (A) (A) (A)
                 (A) (A) (A) (A) (A) (A) (A) (A) (A) (A) (A) (A)
                 (A) (A) (A) (A) (A) (A) (A) (A) (A) (A) (A)
 The electronic state of the initial guess is 2-A.
 Initial guess <Sx>= 0.0000 <Sy>= 0.0000 <Sz>= 0.5000 <S**2>= 0.7500 S= 0.5000
 Requested convergence on RMS density matrix=1.00D-08 within 128 cycles.
 Requested convergence on MAX density matrix=1.00D-06.
 Requested convergence on             energy=1.00D-06.
 No special actions if energy rises.
 Keep R1 and R2 ints in memory in canonical form, NReq=7883010.
 Integral accuracy reduced to 1.0D-05 until final iterations.
 Initial convergence to 1.0D-05 achieved.  Increase integral accuracy.
 SCF Done:  E(UM062X) =  -227.170842697     A.U. after   29 cycles
             Convg  =    0.6037D-08             -V/T =  2.0091
 <Sx>= 0.0000 <Sy>= 0.0000 <Sz>= 0.5000 <S**2>= 0.7729 S= 0.5114
 <L.S>= 0.000000000000E+00
 Annihilation of the first spin contaminant:
 S**2 before annihilation     0.7729,   after     0.7502
 Range of M.O.s used for correlation:     1    72
 NBasis=    72 NAE=    14 NBE=    13 NFC=     0 NFV=     0
 NROrb=     72 NOA=    14 NOB=    13 NVA=    58 NVB=    59

 **** Warning!!: The largest alpha MO coefficient is  0.14316542D+02


 **** Warning!!: The largest beta MO coefficient is  0.14615960D+02

 Symmetrizing basis deriv contribution to polar:
 IMax=3 JMax=2 DiffMx= 0.00D+00
 G2DrvN: will do     7 centers at a time, making    1 passes doing MaxLOS=2.
 Calling FoFCou, ICntrl=  3107 FMM=F I1Cent=   0 AccDes= 0.00D+00.
 FoFDir/FoFCou used for L=0 through L=2.
 End of G2Drv Frequency-dependent properties file   721 does not exist.
 End of G2Drv Frequency-dependent properties file   722 does not exist.
          IDoAtm=111111
          Differentiating once with respect to nuclear coordinates.
          Keep R1 and R2 ints in memory in canonical form, NReq=7730408.
          There are    21 degrees of freedom in the 1st order CPHF.  IDoFFX=5.
     15 vectors produced by pass  0 Test12= 7.52D-11 4.76D-07 XBig12= 2.22D-01 3.84D-01.
 AX will form    15 AO Fock derivatives at one time.
     15 vectors produced by pass  1 Test12= 7.52D-11 4.76D-07 XBig12= 2.46D-02 5.32D-02.
     15 vectors produced by pass  2 Test12= 7.52D-11 4.76D-07 XBig12= 1.30D-03 9.50D-03.
     15 vectors produced by pass  3 Test12= 7.52D-11 4.76D-07 XBig12= 2.37D-05 1.17D-03.
     15 vectors produced by pass  4 Test12= 7.52D-11 4.76D-07 XBig12= 2.91D-07 9.40D-05.
     14 vectors produced by pass  5 Test12= 7.52D-11 4.76D-07 XBig12= 3.97D-09 1.22D-05.
      3 vectors produced by pass  6 Test12= 7.52D-11 4.76D-07 XBig12= 3.77D-11 1.16D-06.
 Inverted reduced A of dimension    92 with in-core refinement.
 End of Minotr Frequency-dependent properties file   721 does not exist.
 End of Minotr Frequency-dependent properties file   722 does not exist.

 **********************************************************************

            Population analysis using the SCF density.

 **********************************************************************

 Orbital symmetries:
 Alpha Orbitals:
       Occupied  (A) (A) (A) (A) (A) (A) (A) (A) (A) (A) (A) (A)
                 (A) (A)
       Virtual   (A) (A) (A) (A) (A) (A) (A) (A) (A) (A) (A) (A)
                 (A) (A) (A) (A) (A) (A) (A) (A) (A) (A) (A) (A)
                 (A) (A) (A) (A) (A) (A) (A) (A) (A) (A) (A) (A)
                 (A) (A) (A) (A) (A) (A) (A) (A) (A) (A) (A) (A)
                 (A) (A) (A) (A) (A) (A) (A) (A) (A) (A)
 Beta  Orbitals:
       Occupied  (A) (A) (A) (A) (A) (A) (A) (A) (A) (A) (A) (A)
                 (A)
       Virtual   (A) (A) (A) (A) (A) (A) (A) (A) (A) (A) (A) (A)
                 (A) (A) (A) (A) (A) (A) (A) (A) (A) (A) (A) (A)
                 (A) (A) (A) (A) (A) (A) (A) (A) (A) (A) (A) (A)
                 (A) (A) (A) (A) (A) (A) (A) (A) (A) (A) (A) (A)
                 (A) (A) (A) (A) (A) (A) (A) (A) (A) (A) (A)
 The electronic state is 2-A.
 Alpha  occ. eigenvalues --  -19.80678 -19.78483 -19.64914  -1.38011  -1.07767
 Alpha  occ. eigenvalues --   -1.04163  -0.70489  -0.64854  -0.60925  -0.52751
 Alpha  occ. eigenvalues --   -0.45631  -0.43001  -0.39854  -0.37239
 Alpha virt. eigenvalues --    0.03468   0.05449   0.11431   0.13243   0.14373
 Alpha virt. eigenvalues --    0.17407   0.18566   0.19394   0.20473   0.21661
 Alpha virt. eigenvalues --    0.23375   0.24539   0.24706   0.30435   0.34770
 Alpha virt. eigenvalues --    0.36857   0.95752   1.02570   1.04700   1.07098
 Alpha virt. eigenvalues --    1.09671   1.11347   1.17128   1.20000   1.20703
 Alpha virt. eigenvalues --    1.22619   1.24567   1.26114   1.30220   1.40266
 Alpha virt. eigenvalues --    1.45381   1.50269   1.54210   1.61315   1.61656
 Alpha virt. eigenvalues --    1.68861   1.70661   1.73568   1.84096   2.12503
 Alpha virt. eigenvalues --    2.14560   2.21829   2.32668   2.35537   2.45045
 Alpha virt. eigenvalues --    2.49218   2.53597   2.62615   2.70630   2.79751
 Alpha virt. eigenvalues --    2.90221   3.01753   3.29844   3.37649   3.55016
 Alpha virt. eigenvalues --    3.84998   4.02895   4.21545
  Beta  occ. eigenvalues --  -19.79926 -19.77353 -19.64330  -1.35244  -1.05624
  Beta  occ. eigenvalues --   -1.00437  -0.68770  -0.60327  -0.56084  -0.50471
  Beta  occ. eigenvalues --   -0.40901  -0.37995  -0.35984
  Beta virt. eigenvalues --   -0.15596   0.03973   0.06585   0.12000   0.13670
  Beta virt. eigenvalues --    0.15094   0.17929   0.19317   0.20244   0.21272
  Beta virt. eigenvalues --    0.23559   0.23811   0.24795   0.25356   0.30916
  Beta virt. eigenvalues --    0.34870   0.37390   0.96224   1.02825   1.05020
  Beta virt. eigenvalues --    1.07265   1.10775   1.13541   1.17900   1.20599
  Beta virt. eigenvalues --    1.21223   1.23437   1.27001   1.27481   1.32606
  Beta virt. eigenvalues --    1.41568   1.46716   1.51546   1.55332   1.61886
  Beta virt. eigenvalues --    1.62495   1.70175   1.71772   1.74378   1.86042
  Beta virt. eigenvalues --    2.12224   2.14835   2.22953   2.33383   2.35209
  Beta virt. eigenvalues --    2.45499   2.49830   2.54806   2.63011   2.70810
  Beta virt. eigenvalues --    2.79920   2.90397   3.02412   3.29013   3.37632
  Beta virt. eigenvalues --    3.54633   3.85635   4.04029   4.22430
          Condensed to atoms (all electrons):
              1          2          3          4          5          6
     1  O    7.777890   0.260021   0.166704   0.013357   0.015925   0.000113
     2  H    0.260021   0.388016  -0.043316  -0.000766  -0.000151   0.000009
     3  O    0.166704  -0.043316   8.074392   0.011037  -0.030902   0.002038
     4  H    0.013357  -0.000766   0.011037   0.403818   0.185179  -0.012310
     5  O    0.015925  -0.000151  -0.030902   0.185179   8.316057   0.258387
     6  H    0.000113   0.000009   0.002038  -0.012310   0.258387   0.389177
 Mulliken atomic charges:
              1
     1  O   -0.234011
     2  H    0.396187
     3  O   -0.179952
     4  H    0.399685
     5  O   -0.744496
     6  H    0.362587
 Sum of Mulliken atomic charges =   0.00000
 Mulliken charges with hydrogens summed into heavy atoms:
              1
     1  O    0.162176
     3  O   -0.179952
     5  O    0.017776
 Sum of Mulliken charges with hydrogens summed into heavy atoms =   0.00000
          Atomic-Atomic Spin Densities.
              1          2          3          4          5          6
     1  O    0.379379  -0.000370  -0.100014  -0.008385   0.008306  -0.000195
     2  H   -0.000370  -0.012191   0.001851   0.000094   0.000045   0.000000
     3  O   -0.100014   0.001851   0.617926   0.039720  -0.019922   0.000235
     4  H   -0.008385   0.000094   0.039720  -0.146679  -0.009865  -0.000556
     5  O    0.008306   0.000045  -0.019922  -0.009865   0.346291   0.002150
     6  H   -0.000195   0.000000   0.000235  -0.000556   0.002150  -0.010913
 Mulliken atomic spin densities:
              1
     1  O    0.278721
     2  H   -0.010571
     3  O    0.539795
     4  H   -0.125671
     5  O    0.327005
     6  H   -0.009279
 Sum of Mulliken atomic spin densities =   1.00000
 APT atomic charges:
              1
     1  O   -0.450147
     2  H    0.640572
     3  O   -0.227788
     4  H    0.345241
     5  O   -1.010054
     6  H    0.702177
 Sum of APT charges=   0.00000
 APT Atomic charges with hydrogens summed into heavy atoms:
              1
     1  O    0.190425
     2  H    0.000000
     3  O   -0.227788
     4  H    0.000000
     5  O    0.037363
     6  H    0.000000
 Sum of APT charges=   0.00000
 Electronic spatial extent (au):  <R**2>=            285.5968
 Charge=              0.0000 electrons
 Dipole moment (field-independent basis, Debye):
    X=             -2.3578    Y=              0.4845    Z=              1.8532  Tot=              3.0378
 Quadrupole moment (field-independent basis, Debye-Ang):
   XX=            -15.6839   YY=            -17.8327   ZZ=            -18.4811
   XY=              6.5250   XZ=             -2.5293   YZ=             -1.2933
 Traceless Quadrupole moment (field-independent basis, Debye-Ang):
   XX=              1.6486   YY=             -0.5001   ZZ=             -1.1486
   XY=              6.5250   XZ=             -2.5293   YZ=             -1.2933
 Octapole moment (field-independent basis, Debye-Ang**2):
  XXX=             -3.0732  YYY=             -0.1295  ZZZ=              1.6642  XYY=             -2.5499
  XXY=              6.9946  XXZ=              7.0409  XZZ=             -5.0862  YZZ=             -0.9194
  YYZ=              1.3822  XYZ=              2.8278
 Hexadecapole moment (field-independent basis, Debye-Ang**3):
 XXXX=           -224.3121 YYYY=            -36.5496 ZZZZ=            -17.7220 XXXY=             33.5568
 XXXZ=             -7.0643 YYYX=              6.6588 YYYZ=             -1.2052 ZZZX=             -2.7501
 ZZZY=             -1.4671 XXYY=            -46.3409 XXZZ=            -48.1845 YYZZ=             -9.1436
 XXYZ=             -3.4877 YYXZ=             -2.1036 ZZXY=              3.2946
 N-N= 7.056917479198D+01 E-N=-1.007682131903D+03  KE= 3.358973838158D+02
  Exact polarizability:   0.000   0.000   0.000   0.000   0.000   0.000
 Approx polarizability:  61.931   0.179  22.331   0.135  -0.225  14.938
                          Isotropic Fermi Contact Couplings
        Atom                 a.u.       MegaHertz       Gauss      10(-4) cm-1
     1  O(17)              0.06598     -39.99389     -14.27081     -13.34053
     2  H(1)              -0.00602     -26.92218      -9.60650      -8.98027
     3  O(17)              0.06532     -39.59764     -14.12942     -13.20835
     4  H(1)              -0.04740    -211.85148     -75.59387     -70.66605
     5  O(17)              0.00713      -4.32230      -1.54230      -1.44176
     6  H(1)              -0.00470     -21.00339      -7.49453      -7.00598
 --------------------------------------------------------
       Center         ----  Spin Dipole Couplings  ----
                      3XX-RR        3YY-RR        3ZZ-RR
 --------------------------------------------------------
     1   Atom        0.571113      0.071202     -0.642315
     2   Atom       -0.021152     -0.014524      0.035676
     3   Atom        0.875336      0.223280     -1.098617
     4   Atom        0.130532     -0.057316     -0.073216
     5   Atom        0.606369     -0.028932     -0.577438
     6   Atom        0.013035      0.032175     -0.045211
 --------------------------------------------------------
                        XY            XZ            YZ
 --------------------------------------------------------
     1   Atom       -0.994339     -0.099054      0.037131
     2   Atom        0.003588     -0.027474     -0.040438
     3   Atom       -1.649456     -0.122758      0.105809
     4   Atom       -0.051100     -0.001222      0.000659
     5   Atom       -0.826394     -0.066021      0.043546
     6   Atom        0.035340      0.005585      0.010014
 --------------------------------------------------------


 ---------------------------------------------------------------------------------
              Anisotropic Spin Dipole Couplings in Principal Axis System
 ---------------------------------------------------------------------------------

       Atom             a.u.   MegaHertz   Gauss  10(-4) cm-1        Axes

              Baa    -0.7182    51.969    18.544    17.335  0.5772  0.7079  0.4070
     1 O(17)  Bbb    -0.6333    45.827    16.352    15.286 -0.2139 -0.3499  0.9120
              Bcc     1.3515   -97.797   -34.896   -32.622  0.7881 -0.6135 -0.0506
 
              Baa    -0.0436   -23.254    -8.298    -7.757  0.5354  0.6626  0.5237
     2 H(1)   Bbb    -0.0223   -11.897    -4.245    -3.968  0.7944 -0.6056 -0.0459
              Bcc     0.0659    35.151    12.543    11.725 -0.2867 -0.4406  0.8507
 
              Baa    -1.1326    81.955    29.244    27.337  0.6228  0.7689 -0.1442
     3 O(17)  Bbb    -1.1059    80.024    28.555    26.693  0.1287  0.0811  0.9884
              Bcc     2.2385  -161.979   -57.798   -54.031  0.7717 -0.6342 -0.0485
 
              Baa    -0.0733   -39.090   -13.948   -13.039 -0.0221 -0.1117  0.9935
     4 H(1)   Bbb    -0.0703   -37.497   -13.380   -12.508  0.2457  0.9627  0.1137
              Bcc     0.1435    76.587    27.328    25.547  0.9691 -0.2466 -0.0062
 
              Baa    -0.5968    43.181    15.408    14.404  0.5672  0.8182  0.0939
     5 O(17)  Bbb    -0.5809    42.031    14.998    14.020 -0.0163 -0.1028  0.9946
              Bcc     1.1776   -85.212   -30.406   -28.424  0.8234 -0.5656 -0.0450
 
              Baa    -0.0465   -24.817    -8.855    -8.278 -0.0247 -0.1153  0.9930
     6 H(1)   Bbb    -0.0139    -7.430    -2.651    -2.478  0.7979 -0.6008 -0.0499
              Bcc     0.0604    32.246    11.506    10.756  0.6023  0.7911  0.1068
 

 ---------------------------------------------------------------------------------

 Calling FoFJK, ICntrl=    100147 FMM=F ISym2X=0 I1Cent= 0 IOpClX= 1 NMat=1 NMatS=1 NMatT=0.
 ***** Axes restored to original set *****
 -------------------------------------------------------------------
 Center     Atomic                   Forces (Hartrees/Bohr)
 Number     Number              X              Y              Z
 -------------------------------------------------------------------
      1        8           0.000451282    0.001327989    0.025711957
      2        1           0.002885836    0.000131008   -0.018932409
      3        8           0.003114184    0.017417737   -0.007617182
      4        1           0.030645143    0.063375384    0.001806570
      5        8          -0.044636687   -0.073234564   -0.001120483
      6        1           0.007540241   -0.009017554    0.000151547
 -------------------------------------------------------------------
 Cartesian Forces:  Max     0.073234564 RMS     0.027743832

 GradGradGradGradGradGradGradGradGradGradGradGradGradGradGradGradGradGrad
 Berny optimization.
 Internal  Forces:  Max     0.089887152 RMS     0.027984039
 Search for a saddle point.
 Step number   1 out of a maximum of   22
 All quantities printed in internal units (Hartrees-Bohrs-Radians)
 Swaping is turned off.
 Second derivative matrix not updated -- analytic derivatives used.
 The second derivative matrix:
                          R1        R2        R3        R4        R5
           R1           0.54959
           R2           0.01546   0.47857
           R3          -0.00457   0.03971  -0.02543
           R4           0.00339  -0.03029   0.07455  -0.04194
           R5           0.00137  -0.00678   0.00463  -0.00952   0.56924
           A1          -0.00489   0.06564  -0.00081   0.00033  -0.00056
           A2           0.00042   0.03347  -0.01307   0.00666   0.00160
           A3           0.00008  -0.00465   0.01455   0.00023   0.00867
           A4           0.00117  -0.01193  -0.00086  -0.00307   0.00023
           A5          -0.00064   0.00059   0.00045   0.00042   0.00011
           D1           0.00282   0.00052   0.00093  -0.00127   0.00004
           D2           0.00027  -0.00036  -0.00008  -0.00003   0.00105
                          A1        A2        A3        A4        A5
           A1           0.23311
           A2           0.00225   0.09592
           A3          -0.00054   0.00406   0.09336
           A4          -0.00241  -0.00048   0.00358   0.01344
           A5           0.00132   0.00226  -0.00003   0.00294   0.00642
           D1           0.00381   0.00461  -0.00044  -0.00318  -0.00620
           D2          -0.00074  -0.00195   0.00186  -0.00190  -0.00051
                          D1        D2
           D1          -0.00155
           D2          -0.00188   0.00266
     Eigenvalues ---   -0.11501  -0.00579   0.00247   0.00735   0.01580
     Eigenvalues ---    0.03854   0.09353   0.09803   0.21725   0.49778
     Eigenvalues ---    0.55333   0.57010
 Eigenvectors required to have negative eigenvalues:
                          R4        R3        R2        A2        A3
   1                    0.73078  -0.66911   0.08985  -0.08003   0.04851
                          A4        A1        D1        R5        R1
   1                    0.01979  -0.01879   0.01819   0.01515  -0.01065
 RFO step:  Lambda0=2.070406600D-02 Lambda=-5.96483183D-02.
 Linear search not attempted -- option 19 set.
 Maximum step size (   0.300) exceeded in Quadratic search.
    -- Step size scaled by   0.263
 Iteration  1 RMS(Cart)=  0.09362791 RMS(Int)=  0.00520738
 Iteration  2 RMS(Cart)=  0.00481838 RMS(Int)=  0.00000549
 Iteration  3 RMS(Cart)=  0.00000806 RMS(Int)=  0.00000000
 Iteration  4 RMS(Cart)=  0.00000000 RMS(Int)=  0.00000000
 Variable       Old X    -DE/DX   Delta X   Delta X   Delta X     New X
                                 (Linear)    (Quad)   (Total)
    R1        1.81414   0.01690   0.00000   0.00456   0.00456   1.81870
    R2        2.49444  -0.00339   0.00000   0.01653   0.01653   2.51097
    R3        2.64562  -0.01992   0.00000  -0.21088  -0.21088   2.43474
    R4        2.64562  -0.08989   0.00000  -0.06316  -0.06316   2.58245
    R5        1.81414   0.00751   0.00000   0.00414   0.00414   1.81827
    A1        1.91114  -0.01649   0.00000  -0.02226  -0.02226   1.88888
    A2        1.91063  -0.00354   0.00000  -0.03706  -0.03706   1.87357
    A3        1.91063  -0.01630   0.00000  -0.00444  -0.00444   1.90620
    A4        3.14159  -0.00388   0.00000   0.00332   0.00332   3.14491
    A5        3.14159   0.00139   0.00000   0.09237   0.09237   3.23397
    D1        1.57080  -0.00015   0.00000   0.17073   0.17073   1.74152
    D2        3.14159  -0.00031   0.00000   0.04062   0.04062  -3.10097
         Item               Value     Threshold  Converged?
 Maximum Force            0.089887     0.000450     NO 
 RMS     Force            0.027984     0.000300     NO 
 Maximum Displacement     0.170049     0.001800     NO 
 RMS     Displacement     0.096783     0.001200     NO 
 Predicted change in Energy=-1.043683D-02
 GradGradGradGradGradGradGradGradGradGradGradGradGradGradGradGradGradGrad

                          Input orientation:                          
 ---------------------------------------------------------------------
 Center     Atomic      Atomic             Coordinates (Angstroms)
 Number     Number       Type             X           Y           Z
 ---------------------------------------------------------------------
      1          8           0       -0.618694    0.082486   -0.000223
      2          1           0       -0.937438   -0.019439   -0.902584
      3          8           0        0.709624    0.057862   -0.023435
      4          1           0        1.117557    1.278617    0.034389
      5          8           0        1.555272    2.573116    0.020021
      6          1           0        2.515952    2.582022   -0.033104
 ---------------------------------------------------------------------
                    Distance matrix (angstroms):
                    1          2          3          4          5
     1  O    0.000000
     2  H    0.962414   0.000000
     3  O    1.328750   1.868607   0.000000
     4  H    2.108672   2.604970   1.288408   0.000000
     5  O    3.306021   3.712970   2.653961   1.366576   0.000000
     6  H    4.009335   4.410158   3.103916   1.912832   0.962188
                    6
     6  H    0.000000
 Stoichiometry    H3O3(2)
 Framework group  C1[X(H3O3)]
 Deg. of freedom    12
 Full point group                 C1      NOp   1
 Largest Abelian subgroup         C1      NOp   1
 Largest concise Abelian subgroup C1      NOp   1
                         Standard orientation:                         
 ---------------------------------------------------------------------
 Center     Atomic      Atomic             Coordinates (Angstroms)
 Number     Number       Type             X           Y           Z
 ---------------------------------------------------------------------
      1          8           0       -1.424618   -0.400738   -0.111047
      2          1           0       -1.732923   -0.649839    0.765958
      3          8           0       -0.619156    0.648612    0.014133
      4          1           0        0.591808    0.211297   -0.034008
      5          8           0        1.876565   -0.253797   -0.009213
      6          1           0        2.478784    0.485927    0.117071
 ---------------------------------------------------------------------
 Rotational constants (GHZ):     42.9845772      4.7997163      4.3746087
 Standard basis: 6-31+G(d,p) (6D, 7F)
 There are    72 symmetry adapted basis functions of A   symmetry.
 Integral buffers will be    262144 words long.
 Raffenetti 2 integral format.
 Two-electron integral symmetry is turned on.
    72 basis functions,   117 primitive gaussians,    72 cartesian basis functions
    14 alpha electrons       13 beta electrons
       nuclear repulsion energy        72.1083525816 Hartrees.
 NAtoms=    6 NActive=    6 NUniq=    6 SFac= 7.50D-01 NAtFMM=   80 NAOKFM=F Big=F
 One-electron integrals computed using PRISM.
 NBasis=    72 RedAO= T  NBF=    72
 NBsUse=    72 1.00D-06 NBFU=    72
 Initial guess read from the read-write file.
 B after Tr=     0.000000    0.000000    0.000000
         Rot=    1.000000    0.000000    0.000000    0.000000 Ang=   0.00 deg.
 Initial guess orbital symmetries:
 Alpha Orbitals:
       Occupied  (A) (A) (A) (A) (A) (A) (A) (A) (A) (A) (A) (A)
                 (A) (A)
       Virtual   (A) (A) (A) (A) (A) (A) (A) (A) (A) (A) (A) (A)
                 (A) (A) (A) (A) (A) (A) (A) (A) (A) (A) (A) (A)
                 (A) (A) (A) (A) (A) (A) (A) (A) (A) (A) (A) (A)
                 (A) (A) (A) (A) (A) (A) (A) (A) (A) (A) (A) (A)
                 (A) (A) (A) (A) (A) (A) (A) (A) (A) (A)
 Beta  Orbitals:
       Occupied  (A) (A) (A) (A) (A) (A) (A) (A) (A) (A) (A) (A)
                 (A)
       Virtual   (A) (A) (A) (A) (A) (A) (A) (A) (A) (A) (A) (A)
                 (A) (A) (A) (A) (A) (A) (A) (A) (A) (A) (A) (A)
                 (A) (A) (A) (A) (A) (A) (A) (A) (A) (A) (A) (A)
                 (A) (A) (A) (A) (A) (A) (A) (A) (A) (A) (A) (A)
                 (A) (A) (A) (A) (A) (A) (A) (A) (A) (A) (A)
 Initial guess <Sx>= 0.0000 <Sy>= 0.0000 <Sz>= 0.5000 <S**2>= 0.7708 S= 0.5104
 Harris functional with IExCor= 1009 diagonalized for initial guess.
 ExpMin= 8.45D-02 ExpMax= 5.48D+03 ExpMxC= 8.25D+02 IAcc=2 IRadAn=         0 AccDes= 0.00D+00
 HarFok:  IExCor= 1009 AccDes= 0.00D+00 IRadAn=         0 IDoV= 1
 ScaDFX=  1.000000  1.000000  1.000000  1.000000
 FoFCou: FMM=F IPFlag=           0 FMFlag=      100000 FMFlg1=           0
         NFxFlg=           0 DoJE=T BraDBF=F KetDBF=T FulRan=T
         Omega=  0.000000  0.000000  1.000000  0.000000  0.000000 ICntrl=     500 IOpCl=  0
         NMat0=    1 NMatS0=    1 NMatT0=    0 NMatD0=    1 NMtDS0=    0 NMtDT0=    0
         I1Cent=           4 NGrid=           0.
 Petite list used in FoFCou.
 Requested convergence on RMS density matrix=1.00D-08 within 128 cycles.
 Requested convergence on MAX density matrix=1.00D-06.
 Requested convergence on             energy=1.00D-06.
 No special actions if energy rises.
 Keep R1 and R2 ints in memory in canonical form, NReq=7883010.
 Integral accuracy reduced to 1.0D-05 until final iterations.
 Initial convergence to 1.0D-05 achieved.  Increase integral accuracy.
 SCF Done:  E(UM062X) =  -227.181016783     A.U. after   30 cycles
             Convg  =    0.3280D-08             -V/T =  2.0089
 <Sx>= 0.0000 <Sy>= 0.0000 <Sz>= 0.5000 <S**2>= 0.7706 S= 0.5102
 <L.S>= 0.000000000000E+00
 Annihilation of the first spin contaminant:
 S**2 before annihilation     0.7706,   after     0.7501
 Calling FoFJK, ICntrl=      2127 FMM=F ISym2X=0 I1Cent= 0 IOpClX= 1 NMat=1 NMatS=1 NMatT=0.
 ***** Axes restored to original set *****
 -------------------------------------------------------------------
 Center     Atomic                   Forces (Hartrees/Bohr)
 Number     Number              X              Y              Z
 -------------------------------------------------------------------
      1        8          -0.001665341    0.003890850    0.019700922
      2        1           0.002572619   -0.001921813   -0.014370145
      3        8           0.004960658    0.016683015   -0.006145717
      4        1           0.023172944    0.048519390    0.001235047
      5        8          -0.035069925   -0.060498467    0.000072315
      6        1           0.006029046   -0.006672976   -0.000492421
 -------------------------------------------------------------------
 Cartesian Forces:  Max     0.060498467 RMS     0.022145082

 GradGradGradGradGradGradGradGradGradGradGradGradGradGradGradGradGradGrad
 Berny optimization.
 Internal  Forces:  Max     0.072887041 RMS     0.022818355
 Search for a saddle point.
 Step number   2 out of a maximum of   22
 All quantities printed in internal units (Hartrees-Bohrs-Radians)
 Swaping is turned off.
 Update second derivatives using D2CorX and points    1    2
 The second derivative matrix:
                          R1        R2        R3        R4        R5
           R1           0.54959
           R2           0.01541   0.47928
           R3          -0.00456   0.04347  -0.01848
           R4           0.00333  -0.02779   0.08249  -0.03532
           R5           0.00136  -0.00665   0.00535  -0.00905   0.56926
           A1          -0.00488   0.06578  -0.00117   0.00037  -0.00053
           A2           0.00042   0.03422  -0.01149   0.00832   0.00175
           A3           0.00007  -0.00432   0.01579   0.00119   0.00873
           A4           0.00116  -0.01192  -0.00064  -0.00296   0.00023
           A5          -0.00067  -0.00040   0.00020  -0.00103  -0.00009
           D1           0.00279  -0.00178  -0.00150  -0.00538  -0.00041
           D2           0.00025  -0.00065   0.00044  -0.00021   0.00099
                          A1        A2        A3        A4        A5
           A1           0.23304
           A2           0.00219   0.09627
           A3          -0.00052   0.00432   0.09349
           A4          -0.00240  -0.00044   0.00360   0.01344
           A5           0.00155   0.00213  -0.00029   0.00287   0.00586
           D1           0.00418   0.00397  -0.00112  -0.00333  -0.00676
           D2          -0.00062  -0.00188   0.00180  -0.00192  -0.00090
                          D1        D2
           D1          -0.00143
           D2          -0.00249   0.00245
     Eigenvalues ---   -0.11640  -0.00681   0.00264   0.00730   0.01604
     Eigenvalues ---    0.05173   0.09413   0.09920   0.21730   0.49887
     Eigenvalues ---    0.55336   0.57011
 Eigenvectors required to have negative eigenvalues:
                          R4        R3        R2        A2        A3
   1                    0.72749  -0.67169   0.09114  -0.08095   0.04907
                          D1        A4        A1        R5        R1
   1                    0.03229   0.02032  -0.02002   0.01533  -0.01064
 RFO step:  Lambda0=1.251746290D-02 Lambda=-4.34328378D-02.
 Linear search not attempted -- option 19 set.
 Maximum step size (   0.300) exceeded in Quadratic search.
    -- Step size scaled by   0.286
 Iteration  1 RMS(Cart)=  0.13304418 RMS(Int)=  0.00616994
 Iteration  2 RMS(Cart)=  0.00605461 RMS(Int)=  0.00000946
 Iteration  3 RMS(Cart)=  0.00001361 RMS(Int)=  0.00000000
 Iteration  4 RMS(Cart)=  0.00000000 RMS(Int)=  0.00000000
 Variable       Old X    -DE/DX   Delta X   Delta X   Delta X     New X
                                 (Linear)    (Quad)   (Total)
    R1        1.81870   0.01286   0.00000   0.00522   0.00522   1.82392
    R2        2.51097  -0.00083   0.00000   0.01580   0.01580   2.52678
    R3        2.43474  -0.01948   0.00000  -0.21053  -0.21053   2.22421
    R4        2.58245  -0.07289   0.00000  -0.06631  -0.06631   2.51614
    R5        1.81827   0.00595   0.00000   0.00391   0.00391   1.82218
    A1        1.88888  -0.01334   0.00000  -0.01551  -0.01551   1.87337
    A2        1.87357  -0.00318   0.00000  -0.01982  -0.01982   1.85376
    A3        1.90620  -0.01216   0.00000   0.00280   0.00280   1.90900
    A4        3.14491  -0.00373   0.00000  -0.04295  -0.04295   3.10196
    A5        3.23397   0.00213   0.00000  -0.07521  -0.07521   3.15875
    D1        1.74152   0.00042   0.00000  -0.17217  -0.17217   1.56936
    D2       -3.10097   0.00011   0.00000  -0.05662  -0.05662   3.12559
         Item               Value     Threshold  Converged?
 Maximum Force            0.072887     0.000450     NO 
 RMS     Force            0.022818     0.000300     NO 
 Maximum Displacement     0.252715     0.001800     NO 
 RMS     Displacement     0.136267     0.001200     NO 
 Predicted change in Energy=-8.789451D-03
 GradGradGradGradGradGradGradGradGradGradGradGradGradGradGradGradGradGrad

                          Input orientation:                          
 ---------------------------------------------------------------------
 Center     Atomic      Atomic             Coordinates (Angstroms)
 Number     Number       Type             X           Y           Z
 ---------------------------------------------------------------------
      1          8           0       -0.575776    0.115908    0.021600
      2          1           0       -0.866909    0.114292   -0.898621
      3          8           0        0.760890    0.081703    0.016670
      4          1           0        1.118262    1.203053    0.002711
      5          8           0        1.471964    2.486325   -0.028303
      6          1           0        2.433842    2.553384   -0.018994
 ---------------------------------------------------------------------
                    Distance matrix (angstroms):
                    1          2          3          4          5
     1  O    0.000000
     2  H    0.965177   0.000000
     3  O    1.337113   1.867765   0.000000
     4  H    2.012958   2.436945   1.177003   0.000000
     5  O    3.132826   3.443010   2.507958   1.331486   0.000000
     6  H    3.873078   4.197364   2.984836   1.885369   0.964258
                    6
     6  H    0.000000
 Stoichiometry    H3O3(2)
 Framework group  C1[X(H3O3)]
 Deg. of freedom    12
 Full point group                 C1      NOp   1
 Largest Abelian subgroup         C1      NOp   1
 Largest concise Abelian subgroup C1      NOp   1
                         Standard orientation:                         
 ---------------------------------------------------------------------
 Center     Atomic      Atomic             Coordinates (Angstroms)
 Number     Number       Type             X           Y           Z
 ---------------------------------------------------------------------
      1          8           0       -1.366300   -0.398664   -0.118018
      2          1           0       -1.558922   -0.734022    0.766289
      3          8           0       -0.568375    0.664799    0.024223
      4          1           0        0.534224    0.253494    0.003236
      5          8           0        1.761734   -0.262118   -0.011439
      6          1           0        2.408218    0.448397    0.072350
 ---------------------------------------------------------------------
 Rotational constants (GHZ):     41.2181515      5.3723495      4.8235202
 Standard basis: 6-31+G(d,p) (6D, 7F)
 There are    72 symmetry adapted basis functions of A   symmetry.
 Integral buffers will be    262144 words long.
 Raffenetti 2 integral format.
 Two-electron integral symmetry is turned on.
    72 basis functions,   117 primitive gaussians,    72 cartesian basis functions
    14 alpha electrons       13 beta electrons
       nuclear repulsion energy        73.9303409192 Hartrees.
 NAtoms=    6 NActive=    6 NUniq=    6 SFac= 7.50D-01 NAtFMM=   80 NAOKFM=F Big=F
 One-electron integrals computed using PRISM.
 NBasis=    72 RedAO= T  NBF=    72
 NBsUse=    72 1.00D-06 NBFU=    72
 Initial guess read from the read-write file.
 B after Tr=     0.000000    0.000000    0.000000
         Rot=    1.000000    0.000000    0.000000    0.000000 Ang=   0.00 deg.
 Initial guess orbital symmetries:
 Alpha Orbitals:
       Occupied  (A) (A) (A) (A) (A) (A) (A) (A) (A) (A) (A) (A)
                 (A) (A)
       Virtual   (A) (A) (A) (A) (A) (A) (A) (A) (A) (A) (A) (A)
                 (A) (A) (A) (A) (A) (A) (A) (A) (A) (A) (A) (A)
                 (A) (A) (A) (A) (A) (A) (A) (A) (A) (A) (A) (A)
                 (A) (A) (A) (A) (A) (A) (A) (A) (A) (A) (A) (A)
                 (A) (A) (A) (A) (A) (A) (A) (A) (A) (A)
 Beta  Orbitals:
       Occupied  (A) (A) (A) (A) (A) (A) (A) (A) (A) (A) (A) (A)
                 (A)
       Virtual   (A) (A) (A) (A) (A) (A) (A) (A) (A) (A) (A) (A)
                 (A) (A) (A) (A) (A) (A) (A) (A) (A) (A) (A) (A)
                 (A) (A) (A) (A) (A) (A) (A) (A) (A) (A) (A) (A)
                 (A) (A) (A) (A) (A) (A) (A) (A) (A) (A) (A) (A)
                 (A) (A) (A) (A) (A) (A) (A) (A) (A) (A) (A)
 Initial guess <Sx>= 0.0000 <Sy>= 0.0000 <Sz>= 0.5000 <S**2>= 0.7684 S= 0.5091
 Harris functional with IExCor= 1009 diagonalized for initial guess.
 ExpMin= 8.45D-02 ExpMax= 5.48D+03 ExpMxC= 8.25D+02 IAcc=2 IRadAn=         0 AccDes= 0.00D+00
 HarFok:  IExCor= 1009 AccDes= 0.00D+00 IRadAn=         0 IDoV= 1
 ScaDFX=  1.000000  1.000000  1.000000  1.000000
 FoFCou: FMM=F IPFlag=           0 FMFlag=      100000 FMFlg1=           0
         NFxFlg=           0 DoJE=T BraDBF=F KetDBF=T FulRan=T
         Omega=  0.000000  0.000000  1.000000  0.000000  0.000000 ICntrl=     500 IOpCl=  0
         NMat0=    1 NMatS0=    1 NMatT0=    0 NMatD0=    1 NMtDS0=    0 NMtDT0=    0
         I1Cent=           4 NGrid=           0.
 Petite list used in FoFCou.
 Requested convergence on RMS density matrix=1.00D-08 within 128 cycles.
 Requested convergence on MAX density matrix=1.00D-06.
 Requested convergence on             energy=1.00D-06.
 No special actions if energy rises.
 Keep R1 and R2 ints in memory in canonical form, NReq=7882864.
 Integral accuracy reduced to 1.0D-05 until final iterations.
 Initial convergence to 1.0D-05 achieved.  Increase integral accuracy.
 SCF Done:  E(UM062X) =  -227.188692475     A.U. after   31 cycles
             Convg  =    0.7120D-08             -V/T =  2.0084
 <Sx>= 0.0000 <Sy>= 0.0000 <Sz>= 0.5000 <S**2>= 0.7668 S= 0.5084
 <L.S>= 0.000000000000E+00
 Annihilation of the first spin contaminant:
 S**2 before annihilation     0.7668,   after     0.7501
 Calling FoFJK, ICntrl=      2127 FMM=F ISym2X=0 I1Cent= 0 IOpClX= 1 NMat=1 NMatS=1 NMatT=0.
 ***** Axes restored to original set *****
 -------------------------------------------------------------------
 Center     Atomic                   Forces (Hartrees/Bohr)
 Number     Number              X              Y              Z
 -------------------------------------------------------------------
      1        8          -0.006565435    0.002033428    0.014339623
      2        1           0.002471299   -0.000465526   -0.010026472
      3        8           0.006969463    0.007460059   -0.005943135
      4        1           0.014521917    0.036730946    0.001652764
      5        8          -0.022988872   -0.041358737   -0.000464457
      6        1           0.005591629   -0.004400169    0.000441677
 -------------------------------------------------------------------
 Cartesian Forces:  Max     0.041358737 RMS     0.015549415

 GradGradGradGradGradGradGradGradGradGradGradGradGradGradGradGradGradGrad
 Berny optimization.
 Internal  Forces:  Max     0.048695816 RMS     0.015226007
 Search for a saddle point.
 Step number   3 out of a maximum of   22
 All quantities printed in internal units (Hartrees-Bohrs-Radians)
 Swaping is turned off.
 Update second derivatives using D2CorX and points    1    2    3
 The second derivative matrix:
                          R1        R2        R3        R4        R5
           R1           0.54969
           R2           0.01481   0.48209
           R3          -0.00644   0.05759   0.01223
           R4           0.00177  -0.01837   0.11340  -0.01043
           R5           0.00124  -0.00609   0.00829  -0.00712   0.56937
           A1          -0.00495   0.06654  -0.00040   0.00167  -0.00037
           A2           0.00041   0.03479  -0.01254   0.00863   0.00187
           A3           0.00004  -0.00419   0.01640   0.00160   0.00875
           A4           0.00099  -0.01041   0.00180   0.00000   0.00054
           A5          -0.00079   0.00071   0.00169   0.00101   0.00015
           D1           0.00233   0.00198   0.00533   0.00228   0.00037
           D2           0.00020   0.00015   0.00018   0.00072   0.00116
                          A1        A2        A3        A4        A5
           A1           0.23302
           A2           0.00205   0.09600
           A3          -0.00049   0.00434   0.09350
           A4          -0.00237  -0.00063   0.00367   0.01357
           A5           0.00155   0.00200  -0.00022   0.00283   0.00548
           D1           0.00432   0.00364  -0.00093  -0.00308  -0.00733
           D2          -0.00072  -0.00211   0.00185  -0.00211  -0.00126
                          D1        D2
           D1          -0.00173
           D2          -0.00319   0.00209
     Eigenvalues ---   -0.12016  -0.00804   0.00256   0.00780   0.01608
     Eigenvalues ---    0.08397   0.09754   0.11997   0.21743   0.50419
     Eigenvalues ---    0.55340   0.57013
 Eigenvectors required to have negative eigenvalues:
                          R4        R3        R2        A2        A3
   1                    0.72238  -0.67679   0.09501  -0.08470   0.04928
                          A1        D1        R5        A4        R1
   1                   -0.02183   0.01946   0.01603   0.01465  -0.01074
 RFO step:  Lambda0=6.352085566D-03 Lambda=-1.62434367D-02.
 Linear search not attempted -- option 19 set.
 Maximum step size (   0.300) exceeded in Quadratic search.
    -- Step size scaled by   0.348
 Iteration  1 RMS(Cart)=  0.07676823 RMS(Int)=  0.00544008
 Iteration  2 RMS(Cart)=  0.00643264 RMS(Int)=  0.00004236
 Iteration  3 RMS(Cart)=  0.00004905 RMS(Int)=  0.00000000
 Iteration  4 RMS(Cart)=  0.00000000 RMS(Int)=  0.00000000
 Variable       Old X    -DE/DX   Delta X   Delta X   Delta X     New X
                                 (Linear)    (Quad)   (Total)
    R1        1.82392   0.00884   0.00000   0.00249   0.00249   1.82641
    R2        2.52678   0.00409   0.00000   0.02234   0.02234   2.54912
    R3        2.22421  -0.00947   0.00000  -0.13547  -0.13547   2.08874
    R4        2.51614  -0.04870   0.00000  -0.03342  -0.03342   2.48272
    R5        1.82218   0.00525   0.00000   0.00479   0.00479   1.82698
    A1        1.87337  -0.00996   0.00000  -0.02421  -0.02421   1.84916
    A2        1.85376  -0.00325   0.00000  -0.03925  -0.03925   1.81451
    A3        1.90900  -0.00867   0.00000  -0.00251  -0.00251   1.90649
    A4        3.10196  -0.00311   0.00000  -0.00739  -0.00739   3.09457
    A5        3.15875   0.00181   0.00000   0.14048   0.14048   3.29923
    D1        1.56936   0.00063   0.00000   0.21381   0.21381   1.78316
    D2        3.12559  -0.00048   0.00000   0.04864   0.04864  -3.10896
         Item               Value     Threshold  Converged?
 Maximum Force            0.048696     0.000450     NO 
 RMS     Force            0.015226     0.000300     NO 
 Maximum Displacement     0.151468     0.001800     NO 
 RMS     Displacement     0.078570     0.001200     NO 
 Predicted change in Energy=-3.711968D-03
 GradGradGradGradGradGradGradGradGradGradGradGradGradGradGradGradGradGrad

                          Input orientation:                          
 ---------------------------------------------------------------------
 Center     Atomic      Atomic             Coordinates (Angstroms)
 Number     Number       Type             X           Y           Z
 ---------------------------------------------------------------------
      1          8           0       -0.558133    0.196062    0.014389
      2          1           0       -0.852029    0.083174   -0.899393
      3          8           0        0.788495    0.124050   -0.017784
      4          1           0        1.113762    1.177922    0.054850
      5          8           0        1.443899    2.448249   -0.003029
      6          1           0        2.406278    2.525207   -0.053970
 ---------------------------------------------------------------------
                    Distance matrix (angstroms):
                    1          2          3          4          5
     1  O    0.000000
     2  H    0.966497   0.000000
     3  O    1.348936   1.862854   0.000000
     4  H    1.939308   2.444051   1.105314   0.000000
     5  O    3.013433   3.415894   2.414885   1.313801   0.000000
     6  H    3.770586   4.158705   2.895528   1.870192   0.966794
                    6
     6  H    0.000000
 Stoichiometry    H3O3(2)
 Framework group  C1[X(H3O3)]
 Deg. of freedom    12
 Full point group                 C1      NOp   1
 Largest Abelian subgroup         C1      NOp   1
 Largest concise Abelian subgroup C1      NOp   1
                         Standard orientation:                         
 ---------------------------------------------------------------------
 Center     Atomic      Atomic             Coordinates (Angstroms)
 Number     Number       Type             X           Y           Z
 ---------------------------------------------------------------------
      1          8           0       -1.316251   -0.413729   -0.112180
      2          1           0       -1.611974   -0.633344    0.781371
      3          8           0       -0.530325    0.675244    0.014653
      4          1           0        0.496595    0.273040   -0.058743
      5          8           0        1.691883   -0.269751   -0.006452
      6          1           0        2.352923    0.426194    0.109206
 ---------------------------------------------------------------------
 Rotational constants (GHZ):     40.0872200      5.7906489      5.1410642
 Standard basis: 6-31+G(d,p) (6D, 7F)
 There are    72 symmetry adapted basis functions of A   symmetry.
 Integral buffers will be    262144 words long.
 Raffenetti 2 integral format.
 Two-electron integral symmetry is turned on.
    72 basis functions,   117 primitive gaussians,    72 cartesian basis functions
    14 alpha electrons       13 beta electrons
       nuclear repulsion energy        75.0875730740 Hartrees.
 NAtoms=    6 NActive=    6 NUniq=    6 SFac= 7.50D-01 NAtFMM=   80 NAOKFM=F Big=F
 One-electron integrals computed using PRISM.
 NBasis=    72 RedAO= T  NBF=    72
 NBsUse=    72 1.00D-06 NBFU=    72
 Initial guess read from the read-write file.
 B after Tr=     0.000000    0.000000    0.000000
         Rot=    1.000000    0.000000    0.000000    0.000000 Ang=   0.00 deg.
 Initial guess orbital symmetries:
 Alpha Orbitals:
       Occupied  (A) (A) (A) (A) (A) (A) (A) (A) (A) (A) (A) (A)
                 (A) (A)
       Virtual   (A) (A) (A) (A) (A) (A) (A) (A) (A) (A) (A) (A)
                 (A) (A) (A) (A) (A) (A) (A) (A) (A) (A) (A) (A)
                 (A) (A) (A) (A) (A) (A) (A) (A) (A) (A) (A) (A)
                 (A) (A) (A) (A) (A) (A) (A) (A) (A) (A) (A) (A)
                 (A) (A) (A) (A) (A) (A) (A) (A) (A) (A)
 Beta  Orbitals:
       Occupied  (A) (A) (A) (A) (A) (A) (A) (A) (A) (A) (A) (A)
                 (A)
       Virtual   (A) (A) (A) (A) (A) (A) (A) (A) (A) (A) (A) (A)
                 (A) (A) (A) (A) (A) (A) (A) (A) (A) (A) (A) (A)
                 (A) (A) (A) (A) (A) (A) (A) (A) (A) (A) (A) (A)
                 (A) (A) (A) (A) (A) (A) (A) (A) (A) (A) (A) (A)
                 (A) (A) (A) (A) (A) (A) (A) (A) (A) (A) (A)
 Initial guess <Sx>= 0.0000 <Sy>= 0.0000 <Sz>= 0.5000 <S**2>= 0.7655 S= 0.5077
 Harris functional with IExCor= 1009 diagonalized for initial guess.
 ExpMin= 8.45D-02 ExpMax= 5.48D+03 ExpMxC= 8.25D+02 IAcc=2 IRadAn=         0 AccDes= 0.00D+00
 HarFok:  IExCor= 1009 AccDes= 0.00D+00 IRadAn=         0 IDoV= 1
 ScaDFX=  1.000000  1.000000  1.000000  1.000000
 FoFCou: FMM=F IPFlag=           0 FMFlag=      100000 FMFlg1=           0
         NFxFlg=           0 DoJE=T BraDBF=F KetDBF=T FulRan=T
         Omega=  0.000000  0.000000  1.000000  0.000000  0.000000 ICntrl=     500 IOpCl=  0
         NMat0=    1 NMatS0=    1 NMatT0=    0 NMatD0=    1 NMtDS0=    0 NMtDT0=    0
         I1Cent=           4 NGrid=           0.
 Petite list used in FoFCou.
 Requested convergence on RMS density matrix=1.00D-08 within 128 cycles.
 Requested convergence on MAX density matrix=1.00D-06.
 Requested convergence on             energy=1.00D-06.
 No special actions if energy rises.
 Keep R1 and R2 ints in memory in canonical form, NReq=7882860.
 Integral accuracy reduced to 1.0D-05 until final iterations.
 Initial convergence to 1.0D-05 achieved.  Increase integral accuracy.
 SCF Done:  E(UM062X) =  -227.191317988     A.U. after   29 cycles
             Convg  =    0.8830D-08             -V/T =  2.0081
 <Sx>= 0.0000 <Sy>= 0.0000 <Sz>= 0.5000 <S**2>= 0.7639 S= 0.5069
 <L.S>= 0.000000000000E+00
 Annihilation of the first spin contaminant:
 S**2 before annihilation     0.7639,   after     0.7501
 Calling FoFJK, ICntrl=      2127 FMM=F ISym2X=0 I1Cent= 0 IOpClX= 1 NMat=1 NMatS=1 NMatT=0.
 ***** Axes restored to original set *****
 -------------------------------------------------------------------
 Center     Atomic                   Forces (Hartrees/Bohr)
 Number     Number              X              Y              Z
 -------------------------------------------------------------------
      1        8          -0.007338094    0.001923229    0.009312574
      2        1           0.001783438   -0.001090025   -0.006512929
      3        8           0.003463639   -0.005324848   -0.005458800
      4        1           0.012018606    0.031612620    0.003166094
      5        8          -0.014103978   -0.024498538    0.000018734
      6        1           0.004176389   -0.002622436   -0.000525671
 -------------------------------------------------------------------
 Cartesian Forces:  Max     0.031612620 RMS     0.011152310

 GradGradGradGradGradGradGradGradGradGradGradGradGradGradGradGradGradGrad
 Berny optimization.
 Internal  Forces:  Max     0.028690254 RMS     0.009229929
 Search for a saddle point.
 Step number   4 out of a maximum of   22
 All quantities printed in internal units (Hartrees-Bohrs-Radians)
 Swaping is turned off.
 Update second derivatives using D2CorX and points    2    3    4
 The second derivative matrix:
                          R1        R2        R3        R4        R5
           R1           0.54969
           R2           0.01473   0.48319
           R3          -0.00660   0.06767   0.06354
           R4           0.00169  -0.01479   0.13312  -0.00295
           R5           0.00122  -0.00591   0.01003  -0.00650   0.56940
           A1          -0.00493   0.06694  -0.00018   0.00188  -0.00029
           A2           0.00039   0.03669  -0.00342   0.01218   0.00220
           A3           0.00003  -0.00395   0.01794   0.00218   0.00880
           A4           0.00099  -0.00988   0.00346   0.00070   0.00064
           A5          -0.00084  -0.00128  -0.00221  -0.00093  -0.00022
           D1           0.00235  -0.00254  -0.01267  -0.00503  -0.00043
           D2           0.00019  -0.00021   0.00014   0.00057   0.00109
                          A1        A2        A3        A4        A5
           A1           0.23286
           A2           0.00204   0.09759
           A3          -0.00046   0.00462   0.09354
           A4          -0.00244  -0.00034   0.00373   0.01356
           A5           0.00209   0.00159  -0.00040   0.00287   0.00318
           D1           0.00473   0.00080  -0.00149  -0.00366  -0.00892
           D2          -0.00055  -0.00201   0.00183  -0.00208  -0.00216
                          D1        D2
           D1           0.00063
           D2          -0.00431   0.00175
     Eigenvalues ---   -0.11392  -0.00989   0.00274   0.00810   0.01656
     Eigenvalues ---    0.08851   0.09754   0.16477   0.21877   0.50907
     Eigenvalues ---    0.55359   0.57015
 Eigenvectors required to have negative eigenvalues:
                          R4        R3        R2        A2        A3
   1                    0.76882  -0.62421   0.09762  -0.07218   0.04811
                          D1        A1        A4        R5        R1
   1                   -0.03098  -0.02241   0.01739   0.01692  -0.01042
 RFO step:  Lambda0=5.140756335D-03 Lambda=-9.97815042D-03.
 Linear search not attempted -- option 19 set.
 Maximum step size (   0.300) exceeded in Quadratic search.
    -- Step size scaled by   0.371
 Iteration  1 RMS(Cart)=  0.06917379 RMS(Int)=  0.00604211
 Iteration  2 RMS(Cart)=  0.00727307 RMS(Int)=  0.00003865
 Iteration  3 RMS(Cart)=  0.00003105 RMS(Int)=  0.00000000
 Iteration  4 RMS(Cart)=  0.00000000 RMS(Int)=  0.00000000
 Variable       Old X    -DE/DX   Delta X   Delta X   Delta X     New X
                                 (Linear)    (Quad)   (Total)
    R1        1.82641   0.00581   0.00000   0.00178   0.00178   1.82820
    R2        2.54912   0.00567   0.00000   0.02053   0.02053   2.56965
    R3        2.08874   0.00499   0.00000  -0.06415  -0.06415   2.02459
    R4        2.48272  -0.02869   0.00000   0.05268   0.05268   2.53540
    R5        1.82698   0.00397   0.00000   0.00466   0.00466   1.83163
    A1        1.84916  -0.00698   0.00000  -0.02154  -0.02154   1.82762
    A2        1.81451  -0.00055   0.00000  -0.01950  -0.01950   1.79500
    A3        1.90649  -0.00541   0.00000  -0.00608  -0.00608   1.90041
    A4        3.09457  -0.00189   0.00000  -0.00576  -0.00576   3.08881
    A5        3.29923   0.00321   0.00000   0.20950   0.20950   3.50874
    D1        1.78316   0.00024   0.00000   0.16550   0.16550   1.94867
    D2       -3.10896   0.00059   0.00000   0.10230   0.10230  -3.00665
         Item               Value     Threshold  Converged?
 Maximum Force            0.028690     0.000450     NO 
 RMS     Force            0.009230     0.000300     NO 
 Maximum Displacement     0.169669     0.001800     NO 
 RMS     Displacement     0.071785     0.001200     NO 
 Predicted change in Energy= 1.359531D-04
 GradGradGradGradGradGradGradGradGradGradGradGradGradGradGradGradGradGrad

                          Input orientation:                          
 ---------------------------------------------------------------------
 Center     Atomic      Atomic             Coordinates (Angstroms)
 Number     Number       Type             X           Y           Z
 ---------------------------------------------------------------------
      1          8           0       -0.557062    0.225270   -0.002112
      2          1           0       -0.841549    0.067072   -0.913145
      3          8           0        0.799731    0.145828   -0.045215
      4          1           0        1.103609    1.155503    0.144635
      5          8           0        1.440948    2.449011    0.030005
      6          1           0        2.396596    2.511979   -0.119103
 ---------------------------------------------------------------------
                    Distance matrix (angstroms):
                    1          2          3          4          5
     1  O    0.000000
     2  H    0.967440   0.000000
     3  O    1.359800   1.858308   0.000000
     4  H    1.909109   2.467229   1.071367   0.000000
     5  O    2.989665   3.431174   2.391959   1.341678   0.000000
     6  H    3.737221   4.134448   2.855540   1.892459   0.969258
                    6
     6  H    0.000000
 Stoichiometry    H3O3(2)
 Framework group  C1[X(H3O3)]
 Deg. of freedom    12
 Full point group                 C1      NOp   1
 Largest Abelian subgroup         C1      NOp   1
 Largest concise Abelian subgroup C1      NOp   1
                         Standard orientation:                         
 ---------------------------------------------------------------------
 Center     Atomic      Atomic             Coordinates (Angstroms)
 Number     Number       Type             X           Y           Z
 ---------------------------------------------------------------------
      1          8           0       -1.305899   -0.422202   -0.103487
      2          1           0       -1.644885   -0.573572    0.789887
      3          8           0       -0.515726    0.678736    0.008841
      4          1           0        0.466943    0.284301   -0.154283
      5          8           0        1.678547   -0.273278   -0.008601
      6          1           0        2.322561    0.423226    0.190367
 ---------------------------------------------------------------------
 Rotational constants (GHZ):     39.5115896      5.8870844      5.2106705
 Standard basis: 6-31+G(d,p) (6D, 7F)
 There are    72 symmetry adapted basis functions of A   symmetry.
 Integral buffers will be    262144 words long.
 Raffenetti 2 integral format.
 Two-electron integral symmetry is turned on.
    72 basis functions,   117 primitive gaussians,    72 cartesian basis functions
    14 alpha electrons       13 beta electrons
       nuclear repulsion energy        75.2101987627 Hartrees.
 NAtoms=    6 NActive=    6 NUniq=    6 SFac= 7.50D-01 NAtFMM=   80 NAOKFM=F Big=F
 One-electron integrals computed using PRISM.
 NBasis=    72 RedAO= T  NBF=    72
 NBsUse=    72 1.00D-06 NBFU=    72
 Initial guess read from the read-write file.
 B after Tr=     0.000000    0.000000    0.000000
         Rot=    1.000000    0.000000    0.000000    0.000000 Ang=   0.00 deg.
 Initial guess orbital symmetries:
 Alpha Orbitals:
       Occupied  (A) (A) (A) (A) (A) (A) (A) (A) (A) (A) (A) (A)
                 (A) (A)
       Virtual   (A) (A) (A) (A) (A) (A) (A) (A) (A) (A) (A) (A)
                 (A) (A) (A) (A) (A) (A) (A) (A) (A) (A) (A) (A)
                 (A) (A) (A) (A) (A) (A) (A) (A) (A) (A) (A) (A)
                 (A) (A) (A) (A) (A) (A) (A) (A) (A) (A) (A) (A)
                 (A) (A) (A) (A) (A) (A) (A) (A) (A) (A)
 Beta  Orbitals:
       Occupied  (A) (A) (A) (A) (A) (A) (A) (A) (A) (A) (A) (A)
                 (A)
       Virtual   (A) (A) (A) (A) (A) (A) (A) (A) (A) (A) (A) (A)
                 (A) (A) (A) (A) (A) (A) (A) (A) (A) (A) (A) (A)
                 (A) (A) (A) (A) (A) (A) (A) (A) (A) (A) (A) (A)
                 (A) (A) (A) (A) (A) (A) (A) (A) (A) (A) (A) (A)
                 (A) (A) (A) (A) (A) (A) (A) (A) (A) (A) (A)
 Initial guess <Sx>= 0.0000 <Sy>= 0.0000 <Sz>= 0.5000 <S**2>= 0.7635 S= 0.5067
 Harris functional with IExCor= 1009 diagonalized for initial guess.
 ExpMin= 8.45D-02 ExpMax= 5.48D+03 ExpMxC= 8.25D+02 IAcc=2 IRadAn=         0 AccDes= 0.00D+00
 HarFok:  IExCor= 1009 AccDes= 0.00D+00 IRadAn=         0 IDoV= 1
 ScaDFX=  1.000000  1.000000  1.000000  1.000000
 FoFCou: FMM=F IPFlag=           0 FMFlag=      100000 FMFlg1=           0
         NFxFlg=           0 DoJE=T BraDBF=F KetDBF=T FulRan=T
         Omega=  0.000000  0.000000  1.000000  0.000000  0.000000 ICntrl=     500 IOpCl=  0
         NMat0=    1 NMatS0=    1 NMatT0=    0 NMatD0=    1 NMtDS0=    0 NMtDT0=    0
         I1Cent=           4 NGrid=           0.
 Petite list used in FoFCou.
 Requested convergence on RMS density matrix=1.00D-08 within 128 cycles.
 Requested convergence on MAX density matrix=1.00D-06.
 Requested convergence on             energy=1.00D-06.
 No special actions if energy rises.
 Keep R1 and R2 ints in memory in canonical form, NReq=7882568.
 Integral accuracy reduced to 1.0D-05 until final iterations.
 Initial convergence to 1.0D-05 achieved.  Increase integral accuracy.
 SCF Done:  E(UM062X) =  -227.190903516     A.U. after   28 cycles
             Convg  =    0.7669D-08             -V/T =  2.0080
 <Sx>= 0.0000 <Sy>= 0.0000 <Sz>= 0.5000 <S**2>= 0.7626 S= 0.5063
 <L.S>= 0.000000000000E+00
 Annihilation of the first spin contaminant:
 S**2 before annihilation     0.7626,   after     0.7501
 Calling FoFJK, ICntrl=      2127 FMM=F ISym2X=0 I1Cent= 0 IOpClX= 1 NMat=1 NMatS=1 NMatT=0.
 ***** Axes restored to original set *****
 -------------------------------------------------------------------
 Center     Atomic                   Forces (Hartrees/Bohr)
 Number     Number              X              Y              Z
 -------------------------------------------------------------------
      1        8          -0.009317284    0.000704261    0.005090148
      2        1           0.001077233   -0.000584275   -0.003724844
      3        8           0.005903446   -0.003607643   -0.004336993
      4        1           0.008286857    0.021132457    0.003043316
      5        8          -0.008648503   -0.016386163    0.001169391
      6        1           0.002698251   -0.001258636   -0.001241017
 -------------------------------------------------------------------
 Cartesian Forces:  Max     0.021132457 RMS     0.007727507

 GradGradGradGradGradGradGradGradGradGradGradGradGradGradGradGradGradGrad
 Berny optimization.
 Internal  Forces:  Max     0.018500792 RMS     0.006400644
 Search for a saddle point.
 Step number   5 out of a maximum of   22
 All quantities printed in internal units (Hartrees-Bohrs-Radians)
 Swaping is turned off.
 Update second derivatives using D2CorX and points    2    3    4    5
 The second derivative matrix:
                          R1        R2        R3        R4        R5
           R1           0.54971
           R2           0.01461   0.48310
           R3          -0.00730   0.07765   0.05822
           R4           0.00164  -0.01395   0.12971  -0.00436
           R5           0.00122  -0.00596   0.01042  -0.00651   0.56940
           A1          -0.00502   0.06805   0.00073   0.00191  -0.00024
           A2           0.00020   0.03886  -0.00086   0.01202   0.00229
           A3          -0.00001  -0.00356   0.01946   0.00230   0.00881
           A4           0.00095  -0.00930   0.00270   0.00041   0.00065
           A5          -0.00023  -0.01067  -0.00483  -0.00113  -0.00074
           D1           0.00300  -0.01252  -0.01684  -0.00505  -0.00098
           D2           0.00044  -0.00431  -0.00064   0.00038   0.00085
                          A1        A2        A3        A4        A5
           A1           0.23305
           A2           0.00256   0.09887
           A3          -0.00027   0.00506   0.09365
           A4          -0.00241  -0.00027   0.00381   0.01351
           A5           0.00133  -0.00162  -0.00178   0.00308   0.00435
           D1           0.00373  -0.00300  -0.00306  -0.00340  -0.00511
           D2          -0.00079  -0.00329   0.00126  -0.00195  -0.00234
                          D1        D2
           D1           0.00759
           D2          -0.00326   0.00137
     Eigenvalues ---   -0.11470  -0.00411   0.00353   0.00812   0.01663
     Eigenvalues ---    0.08797   0.09787   0.15691   0.21892   0.51346
     Eigenvalues ---    0.55373   0.57015
 Eigenvectors required to have negative eigenvalues:
                          R4        R3        R2        A2        A3
   1                    0.76128  -0.63139   0.10654  -0.06669   0.05226
                          D1        A1        R5        A4        R1
   1                   -0.04401  -0.02271   0.01727   0.01544  -0.01116
 RFO step:  Lambda0=2.205732939D-03 Lambda=-5.13533458D-03.
 Linear search not attempted -- option 19 set.
 Maximum step size (   0.300) exceeded in Quadratic search.
    -- Step size scaled by   0.370
 Iteration  1 RMS(Cart)=  0.08854717 RMS(Int)=  0.00969993
 Iteration  2 RMS(Cart)=  0.01169457 RMS(Int)=  0.00008273
 Iteration  3 RMS(Cart)=  0.00007825 RMS(Int)=  0.00000001
 Iteration  4 RMS(Cart)=  0.00000001 RMS(Int)=  0.00000000
 Variable       Old X    -DE/DX   Delta X   Delta X   Delta X     New X
                                 (Linear)    (Quad)   (Total)
    R1        1.82820   0.00337   0.00000   0.00025   0.00025   1.82844
    R2        2.56965   0.00837   0.00000   0.02483   0.02483   2.59448
    R3        2.02459   0.00426   0.00000  -0.04301  -0.04301   1.98158
    R4        2.53540  -0.01850   0.00000   0.03706   0.03706   2.57246
    R5        1.83163   0.00278   0.00000   0.00340   0.00340   1.83504
    A1        1.82762  -0.00419   0.00000  -0.01603  -0.01603   1.81159
    A2        1.79500   0.00114   0.00000   0.00142   0.00142   1.79643
    A3        1.90041  -0.00281   0.00000   0.00293   0.00293   1.90334
    A4        3.08881  -0.00139   0.00000  -0.01542  -0.01542   3.07339
    A5        3.50874   0.00336   0.00000   0.21875   0.21875   3.72749
    D1        1.94867  -0.00019   0.00000   0.09215   0.09215   2.04081
    D2       -3.00665   0.00142   0.00000   0.17117   0.17117  -2.83548
         Item               Value     Threshold  Converged?
 Maximum Force            0.018501     0.000450     NO 
 RMS     Force            0.006401     0.000300     NO 
 Maximum Displacement     0.207544     0.001800     NO 
 RMS     Displacement     0.094893     0.001200     NO 
 Predicted change in Energy=-5.945271D-04
 GradGradGradGradGradGradGradGradGradGradGradGradGradGradGradGradGradGrad

                          Input orientation:                          
 ---------------------------------------------------------------------
 Center     Atomic      Atomic             Coordinates (Angstroms)
 Number     Number       Type             X           Y           Z
 ---------------------------------------------------------------------
      1          8           0       -0.557100    0.226363   -0.020992
      2          1           0       -0.814505    0.086850   -0.943201
      3          8           0        0.814524    0.175199   -0.052579
      4          1           0        1.092350    1.138585    0.254462
      5          8           0        1.441904    2.442300    0.077692
      6          1           0        2.365101    2.485366   -0.220318
 ---------------------------------------------------------------------
                    Distance matrix (angstroms):
                    1          2          3          4          5
     1  O    0.000000
     2  H    0.967570   0.000000
     3  O    1.372942   1.858695   0.000000
     4  H    1.904918   2.485285   1.048606   0.000000
     5  O    2.985989   3.417858   2.355913   1.361289   0.000000
     6  H    3.698930   4.047880   2.787345   1.912884   0.971060
                    6
     6  H    0.000000
 Stoichiometry    H3O3(2)
 Framework group  C1[X(H3O3)]
 Deg. of freedom    12
 Full point group                 C1      NOp   1
 Largest Abelian subgroup         C1      NOp   1
 Largest concise Abelian subgroup C1      NOp   1
                         Standard orientation:                         
 ---------------------------------------------------------------------
 Center     Atomic      Atomic             Coordinates (Angstroms)
 Number     Number       Type             X           Y           Z
 ---------------------------------------------------------------------
      1          8           0       -1.314417   -0.416860   -0.093984
      2          1           0       -1.637593   -0.543715    0.809153
      3          8           0       -0.487871    0.674981    0.004374
      4          1           0        0.449418    0.283942   -0.256685
      5          8           0        1.667342   -0.276219   -0.020065
      6          1           0        2.267743    0.404556    0.324930
 ---------------------------------------------------------------------
 Rotational constants (GHZ):     39.6682672      5.9472357      5.2739817
 Standard basis: 6-31+G(d,p) (6D, 7F)
 There are    72 symmetry adapted basis functions of A   symmetry.
 Integral buffers will be    262144 words long.
 Raffenetti 2 integral format.
 Two-electron integral symmetry is turned on.
    72 basis functions,   117 primitive gaussians,    72 cartesian basis functions
    14 alpha electrons       13 beta electrons
       nuclear repulsion energy        75.2894064465 Hartrees.
 NAtoms=    6 NActive=    6 NUniq=    6 SFac= 7.50D-01 NAtFMM=   80 NAOKFM=F Big=F
 One-electron integrals computed using PRISM.
 NBasis=    72 RedAO= T  NBF=    72
 NBsUse=    72 1.00D-06 NBFU=    72
 Initial guess read from the read-write file.
 B after Tr=     0.000000    0.000000    0.000000
         Rot=    1.000000    0.000000    0.000000    0.000000 Ang=   0.00 deg.
 Initial guess orbital symmetries:
 Alpha Orbitals:
       Occupied  (A) (A) (A) (A) (A) (A) (A) (A) (A) (A) (A) (A)
                 (A) (A)
       Virtual   (A) (A) (A) (A) (A) (A) (A) (A) (A) (A) (A) (A)
                 (A) (A) (A) (A) (A) (A) (A) (A) (A) (A) (A) (A)
                 (A) (A) (A) (A) (A) (A) (A) (A) (A) (A) (A) (A)
                 (A) (A) (A) (A) (A) (A) (A) (A) (A) (A) (A) (A)
                 (A) (A) (A) (A) (A) (A) (A) (A) (A) (A)
 Beta  Orbitals:
       Occupied  (A) (A) (A) (A) (A) (A) (A) (A) (A) (A) (A) (A)
                 (A)
       Virtual   (A) (A) (A) (A) (A) (A) (A) (A) (A) (A) (A) (A)
                 (A) (A) (A) (A) (A) (A) (A) (A) (A) (A) (A) (A)
                 (A) (A) (A) (A) (A) (A) (A) (A) (A) (A) (A) (A)
                 (A) (A) (A) (A) (A) (A) (A) (A) (A) (A) (A) (A)
                 (A) (A) (A) (A) (A) (A) (A) (A) (A) (A) (A)
 Initial guess <Sx>= 0.0000 <Sy>= 0.0000 <Sz>= 0.5000 <S**2>= 0.7621 S= 0.5061
 Harris functional with IExCor= 1009 diagonalized for initial guess.
 ExpMin= 8.45D-02 ExpMax= 5.48D+03 ExpMxC= 8.25D+02 IAcc=2 IRadAn=         0 AccDes= 0.00D+00
 HarFok:  IExCor= 1009 AccDes= 0.00D+00 IRadAn=         0 IDoV= 1
 ScaDFX=  1.000000  1.000000  1.000000  1.000000
 FoFCou: FMM=F IPFlag=           0 FMFlag=      100000 FMFlg1=           0
         NFxFlg=           0 DoJE=T BraDBF=F KetDBF=T FulRan=T
         Omega=  0.000000  0.000000  1.000000  0.000000  0.000000 ICntrl=     500 IOpCl=  0
         NMat0=    1 NMatS0=    1 NMatT0=    0 NMatD0=    1 NMtDS0=    0 NMtDT0=    0
         I1Cent=           4 NGrid=           0.
 Petite list used in FoFCou.
 Requested convergence on RMS density matrix=1.00D-08 within 128 cycles.
 Requested convergence on MAX density matrix=1.00D-06.
 Requested convergence on             energy=1.00D-06.
 No special actions if energy rises.
 Keep R1 and R2 ints in memory in canonical form, NReq=7882568.
 Integral accuracy reduced to 1.0D-05 until final iterations.
 Initial convergence to 1.0D-05 achieved.  Increase integral accuracy.
 SCF Done:  E(UM062X) =  -227.191323233     A.U. after   29 cycles
             Convg  =    0.6859D-08             -V/T =  2.0080
 <Sx>= 0.0000 <Sy>= 0.0000 <Sz>= 0.5000 <S**2>= 0.7611 S= 0.5055
 <L.S>= 0.000000000000E+00
 Annihilation of the first spin contaminant:
 S**2 before annihilation     0.7611,   after     0.7500
 Calling FoFJK, ICntrl=      2127 FMM=F ISym2X=0 I1Cent= 0 IOpClX= 1 NMat=1 NMatS=1 NMatT=0.
 ***** Axes restored to original set *****
 -------------------------------------------------------------------
 Center     Atomic                   Forces (Hartrees/Bohr)
 Number     Number              X              Y              Z
 -------------------------------------------------------------------
      1        8          -0.007753446    0.000187306    0.002736225
      2        1           0.000819516   -0.000144874   -0.002256041
      3        8           0.005163498   -0.003982396   -0.003180480
      4        1           0.005041089    0.013455771    0.002438595
      5        8          -0.004874235   -0.008593597    0.001656954
      6        1           0.001603578   -0.000922209   -0.001395253
 -------------------------------------------------------------------
 Cartesian Forces:  Max     0.013455771 RMS     0.004967652

 GradGradGradGradGradGradGradGradGradGradGradGradGradGradGradGradGradGrad
 Berny optimization.
 Internal  Forces:  Max     0.009977280 RMS     0.004070201
 Search for a saddle point.
 Step number   6 out of a maximum of   22
 All quantities printed in internal units (Hartrees-Bohrs-Radians)
 Swaping is turned off.
[...]
     2 H(1)   Bbb    -0.0046    -2.434    -0.869    -0.812  0.7506 -0.3123  0.5822
              Bcc     0.0151     8.078     2.882     2.695 -0.6605 -0.3313  0.6738
 
              Baa    -0.5725    41.424    14.781    13.818 -0.2633  0.0496  0.9634
     3 O(17)  Bbb    -0.5364    38.814    13.850    12.947  0.5818  0.8048  0.1176
              Bcc     1.1089   -80.238   -28.631   -26.764  0.7695 -0.5915  0.2407
 
              Baa    -0.0937   -49.971   -17.831   -16.668  0.3806  0.9173  0.1170
     4 H(1)   Bbb    -0.0488   -26.013    -9.282    -8.677  0.0387 -0.1422  0.9891
              Bcc     0.1424    75.984    27.113    25.346  0.9239 -0.3719 -0.0896
 
              Baa    -1.4367   103.960    37.096    34.677  0.4501  0.5762  0.6822
     5 O(17)  Bbb    -1.4339   103.756    37.023    34.609  0.0420  0.7495 -0.6607
              Bcc     2.8706  -207.717   -74.118   -69.287  0.8920 -0.3260 -0.3131
 
              Baa    -0.1080   -57.644   -20.569   -19.228  0.0507  0.7485 -0.6611
     6 H(1)   Bbb    -0.0353   -18.816    -6.714    -6.276  0.8871 -0.3378 -0.3144
              Bcc     0.1433    76.460    27.283    25.504  0.4587  0.5706  0.6812
 

 ---------------------------------------------------------------------------------

 Calling FoFJK, ICntrl=    100127 FMM=F ISym2X=0 I1Cent= 0 IOpClX= 1 NMat=1 NMatS=1 NMatT=0.
 Full mass-weighted force constant matrix:
 Low frequencies ----1049.5756   -0.0023   -0.0023   -0.0018   14.4310   28.1213
 Low frequencies ---   60.9543  168.3249  226.0869
 ******    1 imaginary frequencies (negative Signs) ****** 
 Diagonal vibrational polarizability:
      122.8632279      36.0979098      47.0463905
 Harmonic frequencies (cm**-1), IR intensities (KM/Mole), Raman scattering
 activities (A**4/AMU), depolarization ratios for plane and unpolarized
 incident light, reduced masses (AMU), force constants (mDyne/A),
 and normal coordinates:
                     1                      2                      3
                     A                      A                      A
 Frequencies -- -1049.5668               168.1668               226.0242
 Red. masses --     1.2746                 4.6642                 1.1165
 Frc consts  --     0.8273                 0.0777                 0.0336
 IR Inten    --  2587.2689                17.8482               135.1253
  Atom  AN      X      Y      Z        X      Y      Z        X      Y      Z
     1   8     0.04   0.04   0.00     0.31  -0.10   0.01    -0.01   0.00   0.04
     2   1    -0.05   0.04   0.00     0.59  -0.33   0.03     0.02   0.05   0.05
     3   8     0.01  -0.06  -0.02    -0.06   0.21  -0.02     0.01  -0.01  -0.04
     4   1     0.75  -0.32   0.56    -0.04   0.44  -0.12     0.00   0.02  -0.07
     5   8    -0.09   0.04  -0.02    -0.28  -0.10   0.01     0.02   0.04  -0.04
     6   1    -0.07  -0.01  -0.02    -0.07  -0.29   0.04    -0.40  -0.55   0.72
                     4                      5                      6
                     A                      A                      A
 Frequencies --   294.2974               403.2182               693.2245
 Red. masses --     1.4966                 1.5637                 1.3982
 Frc consts  --     0.0764                 0.1498                 0.3959
 IR Inten    --    21.6189               132.2613               174.2181
  Atom  AN      X      Y      Z        X      Y      Z        X      Y      Z
     1   8    -0.06   0.06   0.00     0.06  -0.03  -0.01     0.03   0.00   0.00
     2   1     0.62  -0.50   0.05    -0.58   0.52  -0.05    -0.02  -0.02  -0.02
     3   8     0.11  -0.08  -0.01     0.12  -0.05   0.05    -0.07   0.06   0.02
     4   1    -0.04  -0.07  -0.31    -0.13   0.05  -0.38     0.05  -0.07   0.20
     5   8    -0.07   0.03   0.03    -0.11   0.03  -0.01     0.09  -0.08  -0.03
     6   1    -0.36   0.30  -0.02    -0.36   0.24  -0.03    -0.81   0.52   0.04
                     7                      8                      9
                     A                      A                      A
 Frequencies --  1066.7455              1351.5054              1473.9670
 Red. masses --     7.4677                 1.0890                 1.0811
 Frc consts  --     5.0067                 1.1720                 1.3839
 IR Inten    --    99.5357               115.8906                76.7375
  Atom  AN      X      Y      Z        X      Y      Z        X      Y      Z
     1   8     0.29   0.35   0.04     0.05   0.02   0.02    -0.02   0.00   0.05
     2   1    -0.08   0.04  -0.11    -0.37  -0.46  -0.16    -0.51  -0.57  -0.15
     3   8    -0.30  -0.36  -0.02     0.01   0.04  -0.01     0.02   0.01  -0.04
     4   1    -0.32   0.36  -0.56    -0.39  -0.68   0.03     0.33   0.52  -0.10
     5   8     0.03  -0.01   0.02    -0.01   0.02   0.00     0.01  -0.01   0.00
     6   1     0.09  -0.04  -0.01     0.04  -0.05   0.02    -0.01   0.03  -0.02
                    10                     11                     12
                     A                      A                      A
 Frequencies --  2299.4306              3786.7592              3838.2131
 Red. masses --     1.1324                 1.0668                 1.0684
 Frc consts  --     3.5278                 9.0134                 9.2739
 IR Inten    --  2128.1064               124.8545               106.4548
  Atom  AN      X      Y      Z        X      Y      Z        X      Y      Z
     1   8    -0.01  -0.01  -0.01     0.00   0.00   0.00    -0.01  -0.01   0.06
     2   1     0.01   0.02   0.02    -0.01  -0.01   0.06     0.21   0.17  -0.96
     3   8    -0.06   0.05   0.04     0.00   0.00   0.00     0.00   0.00   0.00
     4   1     0.55  -0.38  -0.73    -0.02   0.02   0.01     0.02   0.00   0.00
     5   8     0.03  -0.01   0.01     0.03   0.04   0.04     0.00   0.00   0.00
     6   1     0.05  -0.05  -0.01    -0.44  -0.57  -0.69    -0.03  -0.03  -0.04

 -------------------
 - Thermochemistry -
 -------------------
 Temperature   298.150 Kelvin.  Pressure   1.00000 Atm.
 Atom     1 has atomic number  8 and mass  15.99491
 Atom     2 has atomic number  1 and mass   1.00783
 Atom     3 has atomic number  8 and mass  15.99491
 Atom     4 has atomic number  1 and mass   1.00783
 Atom     5 has atomic number  8 and mass  15.99491
 Atom     6 has atomic number  1 and mass   1.00783
 Molecular mass:    51.00822 amu.
 Principal axes and moments of inertia in atomic units:
                           1         2         3
     Eigenvalues --    46.35228 302.29115 338.76828
           X            0.99974   0.02272  -0.00270
           Y           -0.02281   0.99885  -0.04206
           Z            0.00175   0.04211   0.99911
 This molecule is an asymmetric top.
 Rotational symmetry number  1.
 Rotational temperatures (Kelvin)      1.86860     0.28652     0.25567
 Rotational constants (GHZ):          38.93533     5.97021     5.32736
    1 imaginary frequencies ignored.
 Zero-point vibrational energy      93318.0 (Joules/Mol)
                                   22.30354 (Kcal/Mol)
 Warning -- explicit consideration of   4 degrees of freedom as
           vibrations may cause significant error
 Vibrational temperatures:    241.95   325.20   423.43   580.14   997.39
          (Kelvin)           1534.81  1944.51  2120.71  3308.36  5448.30
                             5522.33
 
 Zero-point correction=                           0.035543 (Hartree/Particle)
 Thermal correction to Energy=                    0.040401
 Thermal correction to Enthalpy=                  0.041345
 Thermal correction to Gibbs Free Energy=         0.008393
 Sum of electronic and zero-point Energies=           -227.156187
 Sum of electronic and thermal Energies=              -227.151329
 Sum of electronic and thermal Enthalpies=            -227.150384
 Sum of electronic and thermal Free Energies=         -227.183337
 
                     E (Thermal)             CV                S
                      KCal/Mol        Cal/Mol-Kelvin    Cal/Mol-Kelvin
 Total                   25.352             14.155             69.354
 Electronic               0.000              0.000              1.377
 Translational            0.889              2.981             37.711
 Rotational               0.889              2.981             23.078
 Vibrational             23.575              8.193              7.187
 Vibration     1          0.625              1.882              2.456
 Vibration     2          0.650              1.801              1.910
 Vibration     3          0.689              1.684              1.449
 Vibration     4          0.769              1.463              0.951
                       Q            Log10(Q)             Ln(Q)
 Total Bot       0.137880D-03         -3.860499         -8.889128
 Total V=0       0.307672D+13         12.488088         28.754886
 Vib (Bot)       0.195213D-15        -15.709491        -36.172439
 Vib (Bot)    1  0.119908D+01          0.078849          0.181557
 Vib (Bot)    2  0.872908D+00         -0.059031         -0.135925
 Vib (Bot)    3  0.648265D+00         -0.188247         -0.433456
 Vib (Bot)    4  0.440991D+00         -0.355570         -0.818731
 Vib (V=0)       0.435609D+01          0.639097          1.471574
 Vib (V=0)    1  0.179915D+01          0.255068          0.587316
 Vib (V=0)    2  0.150597D+01          0.177815          0.409435
 Vib (V=0)    3  0.131869D+01          0.120142          0.276636
 Vib (V=0)    4  0.116669D+01          0.066955          0.154169
 Electronic      0.200000D+01          0.301030          0.693147
 Translational   0.143191D+08          7.155915         16.477104
 Rotational      0.246630D+05          4.392046         10.113060
 ***** Axes restored to original set *****
 -------------------------------------------------------------------
 Center     Atomic                   Forces (Hartrees/Bohr)
 Number     Number              X              Y              Z
 -------------------------------------------------------------------
      1        8          -0.000010704   -0.000015500   -0.000002364
      2        1          -0.000001302    0.000003666   -0.000008619
      3        8           0.000035206   -0.000016926   -0.000027040
      4        1           0.000008421    0.000006076   -0.000003256
      5        8          -0.000012702   -0.000007812    0.000026607
      6        1          -0.000018919    0.000030497    0.000014673
 -------------------------------------------------------------------
 Cartesian Forces:  Max     0.000035206 RMS     0.000017093

 GradGradGradGradGradGradGradGradGradGradGradGradGradGradGradGradGradGrad
 Berny optimization.
 Internal  Forces:  Max     0.000023492 RMS     0.000008624
 Search for a saddle point.
 Step number   1 out of a maximum of    2
 All quantities printed in internal units (Hartrees-Bohrs-Radians)
 Swaping is turned off.
 Second derivative matrix not updated -- analytic derivatives used.
 The second derivative matrix:
                          R1        R2        R3        R4        R5
           R1           0.52781
           R2           0.00124   0.35124
           R3          -0.00427   0.03602   0.31855
           R4           0.00451  -0.04332   0.11845  -0.00108
           R5           0.00111  -0.00758   0.00523  -0.00886   0.51436
           A1          -0.00285   0.07512   0.00005   0.00105  -0.00015
           A2          -0.00033   0.06314   0.00080   0.01042  -0.00144
           A3           0.00042  -0.00118   0.00843  -0.00360   0.00592
           A4          -0.00039  -0.00563   0.00885   0.00145  -0.00058
           A5          -0.00005  -0.00217  -0.00516  -0.00947   0.00183
           D1           0.00094   0.00230   0.00112   0.00223   0.00084
           D2           0.00037  -0.00151   0.00039   0.00175   0.00175
                          A1        A2        A3        A4        A5
           A1           0.23560
           A2           0.01761   0.21655
           A3           0.00018   0.00883   0.05033
           A4          -0.00239   0.00881  -0.00181   0.02886
           A5          -0.00108  -0.00439   0.00392   0.00019   0.01760
           D1           0.00815   0.00309  -0.00144  -0.00051  -0.00173
           D2          -0.00090  -0.01002  -0.00513   0.00126  -0.00023
                          D1        D2
           D1           0.01253
           D2          -0.00041   0.00696
     Eigenvalues ---   -0.05034   0.00589   0.01174   0.01751   0.02817
     Eigenvalues ---    0.05162   0.19078   0.20887   0.35255   0.41954
     Eigenvalues ---    0.51497   0.52802
 Eigenvectors required to have negative eigenvalues:
                          R4        R3        R2        A5        A2
   1                    0.92591  -0.31270   0.14743   0.10018  -0.07009
                          A3        A4        A1        D2        D1
   1                    0.06108   0.03677  -0.03672  -0.03074  -0.02036
 Angle between quadratic step and forces=  63.50 degrees.
 Linear search not attempted -- option 19 set.
 Iteration  1 RMS(Cart)=  0.00023566 RMS(Int)=  0.00000003
 Iteration  2 RMS(Cart)=  0.00000003 RMS(Int)=  0.00000000
 Variable       Old X    -DE/DX   Delta X   Delta X   Delta X     New X
                                 (Linear)    (Quad)   (Total)
    R1        1.82976   0.00000   0.00000   0.00001   0.00001   1.82977
    R2        2.64558   0.00002   0.00000   0.00010   0.00010   2.64568
    R3        1.93941   0.00001   0.00000  -0.00001  -0.00001   1.93940
    R4        2.67702   0.00000   0.00000   0.00008   0.00008   2.67710
    R5        1.84091   0.00000   0.00000   0.00000   0.00000   1.84091
    A1        1.78457   0.00000   0.00000  -0.00002  -0.00002   1.78455
    A2        1.80434   0.00000   0.00000  -0.00007  -0.00007   1.80427
    A3        1.89076   0.00001   0.00000   0.00022   0.00022   1.89098
    A4        3.02524   0.00000   0.00000   0.00012   0.00012   3.02536
    A5        3.99921  -0.00001   0.00000  -0.00034  -0.00034   3.99887
    D1        2.05390   0.00000   0.00000   0.00006   0.00006   2.05396
    D2       -2.44036   0.00000   0.00000  -0.00012  -0.00012  -2.44048
         Item               Value     Threshold  Converged?
 Maximum Force            0.000023     0.000450     YES
 RMS     Force            0.000009     0.000300     YES
 Maximum Displacement     0.000456     0.001800     YES
 RMS     Displacement     0.000236     0.001200     YES
 Predicted change in Energy=-3.111091D-09
 Optimization completed.
    -- Stationary point found.
                           ----------------------------
                           !   Optimized Parameters   !
                           ! (Angstroms and Degrees)  !
 --------------------------                            --------------------------
 ! Name  Definition              Value          Derivative Info.                !
 --------------------------------------------------------------------------------
 ! R1    R(1,2)                  0.9683         -DE/DX =    0.0                 !
 ! R2    R(1,3)                  1.4            -DE/DX =    0.0                 !
 ! R3    R(3,4)                  1.0263         -DE/DX =    0.0                 !
 ! R4    R(4,5)                  1.4166         -DE/DX =    0.0                 !
 ! R5    R(5,6)                  0.9742         -DE/DX =    0.0                 !
 ! A1    A(2,1,3)              102.2483         -DE/DX =    0.0                 !
 ! A2    A(1,3,4)              103.3811         -DE/DX =    0.0                 !
 ! A3    A(4,5,6)              108.3328         -DE/DX =    0.0                 !
 ! A4    L(3,4,5,1,-1)         173.3336         -DE/DX =    0.0                 !
 ! A5    L(3,4,5,1,-2)         229.1379         -DE/DX =    0.0                 !
 ! D1    D(2,1,3,4)            117.6801         -DE/DX =    0.0                 !
 ! D2    D(1,3,5,6)           -139.8225         -DE/DX =    0.0                 !
 --------------------------------------------------------------------------------
 GradGradGradGradGradGradGradGradGradGradGradGradGradGradGradGradGradGrad

 1|1|UNPC-DESKTOP-319GPER|Freq|UM062X|6-31+G(d,p)|H3O3(2)|SAGAD|06-Feb-
 2021|0||#N Geom=AllCheck Guess=TCheck SCRF=Check GenChk UM062X/6-31+G(
 d,p) Freq||ts2||0,2|O,-0.5517241754,0.2141630864,-0.0586285315|H,-0.72
 52951534,0.1910497642,-1.0109322992|O,0.847417526,0.2030341994,-0.0113
 882045|H,1.0770400515,1.0971117567,0.4371382495|O,1.4632875696,2.43338
 26621,0.1687999233|H,2.2315472016,2.4159221312,-0.4299249676||Version=
 IA32W-G09RevA.02|State=2-A|HF=-227.1917295|S2=0.759232|S2-1=0.|S2A=0.7
 5004|RMSD=3.409e-010|RMSF=1.709e-005|ZeroPoint=0.035543|Thermal=0.0404
 01|Dipole=0.3874421,0.2171187,-0.8542604|DipoleDeriv=-1.0569333,-1.354
 5394,-0.1767031,0.0420753,-0.4069813,-0.0040892,-0.2059431,-0.1879778,
 -0.1531703,0.2669685,0.0187512,0.0392725,0.0377323,0.4462048,-0.000159
 4,0.1420049,0.166362,0.233607,0.7708181,1.5648115,0.1582041,0.2881657,
 0.4546719,0.1107808,0.3492221,0.604016,-0.278998,-0.1332859,-0.6251396
 ,-0.0522939,-1.0258025,-1.6549921,-0.2291579,-0.1680253,-0.4036307,0.2
 914808,-0.2389658,0.1626276,-0.0833363,0.6126362,0.757867,0.1359674,-0
 .1283483,-0.0345151,-0.392571,0.3913984,0.2334886,0.1148566,0.0451929,
 0.4032298,-0.0133418,0.0110896,-0.1442544,0.2996514|Polar=36.0761765,2
 7.2235872,61.1356063,3.2657303,4.4393597,16.2128934|PG=C01 [X(H3O3)]|N
 Imag=1||0.35517753,0.01776912,0.02929612,0.08445356,0.02556152,0.57881
 986,-0.04541850,-0.00000762,-0.02878461,0.08454875,-0.00323208,-0.0041
 0226,-0.01173346,0.00384787,0.00433685,-0.08509449,-0.01362296,-0.5233
 5944,0.07912322,0.01249958,0.51351594,-0.27270520,0.01561536,-0.031450
 26,-0.03401402,0.00045261,0.00402609,0.33560227,0.01270069,-0.03238728
 ,-0.01599162,-0.00674139,-0.00141356,-0.00234913,0.00685767,0.29058085
 ,0.01277987,-0.01721358,-0.05425625,-0.04889942,0.00209436,0.00826796,
 0.03898434,0.13716481,0.11321326,-0.05090177,-0.03043150,-0.02720731,-
 0.00519244,-0.00127773,0.00322015,-0.00768688,0.01618260,0.01374422,0.
 06298435,-0.06780098,0.00674423,0.00011204,0.00430121,0.00265017,0.007
 55531,0.04708422,-0.16121147,-0.08153811,-0.02017355,0.05843920,-0.002
 68230,0.00383345,-0.00060707,-0.00171455,-0.00272854,0.00072519,-0.027
 18015,-0.13383088,-0.08024685,0.01502330,0.09722192,0.09861109,0.00784
 603,-0.00239704,0.00232057,0.00035950,0.00063137,-0.00054594,-0.013405
 14,-0.02716108,-0.01342059,-0.00150527,0.02581200,0.01249983,0.3266570
 5,0.03962449,0.00282030,0.00161266,-0.00140096,-0.00195589,-0.00380068
 ,-0.06614343,-0.09391349,-0.03722359,0.03964095,0.08479491,0.02619025,
 -0.00723585,0.02775846,-0.00419360,0.00318477,0.00006933,0.00034529,-0
 .00036879,0.00010122,0.01222783,0.01026956,0.01084354,-0.00612451,-0.0
 1530874,-0.01635204,-0.24995247,0.01285395,0.20189870,0.00600191,-0.00
 054831,0.00066806,-0.00028330,-0.00042204,-0.00072903,-0.00779104,-0.0
 0183850,-0.00318841,0.00230202,0.01077709,0.00405387,-0.31995218,-0.00
 448520,0.24769748,0.31972258,0.00093876,-0.00237111,0.00043886,0.00000
 089,0.00048469,-0.00028212,-0.00386643,-0.00165505,-0.00328388,-0.0039
 4078,0.00858297,0.00931380,0.01035060,-0.01950430,-0.01063076,-0.00348
 303,0.01446280,-0.00526303,-0.00174320,-0.00066642,-0.00006992,0.00023
 685,0.00074914,0.00339216,0.00473725,0.00217833,0.00134416,-0.00804242
 ,-0.00213032,0.24909860,0.00036741,-0.19656076,-0.24850197,0.00444411,
 0.19643003||0.00001070,0.00001550,0.00000236,0.00000130,-0.00000367,0.
 00000862,-0.00003521,0.00001693,0.00002704,-0.00000842,-0.00000608,0.0
 0000326,0.00001270,0.00000781,-0.00002661,0.00001892,-0.00003050,-0.00
 001467|||@


 THERE IS NO SUBJECT, HOWEVER COMPLEX,
 WHICH, IF STUDIED WITH PATIENCE AND INTELLIGIENCE
 WILL NOT BECOME
 MORE COMPLEX
                        QUOTED BY D. GORDON ROHMAN
 Job cpu time:  0 days  0 hours  0 minutes 26.0 seconds.
 File lengths (MBytes):  RWF=     11 Int=      0 D2E=      0 Chk=      1 Scr=      1
 Normal termination of Gaussian 09 at Sat Feb 06 02:09:10 2021.
