 Entering Link 1 = C:\G09W\l1.exe PID=      5384.
  
 Copyright (c) 1988,1990,1992,1993,1995,1998,2003,2009, Gaussian, Inc.
                  All Rights Reserved.
  
 This is part of the Gaussian(R) 09 program.  It is based on
 the Gaussian(R) 03 system (copyright 2003, Gaussian, Inc.),
 the Gaussian(R) 98 system (copyright 1998, Gaussian, Inc.),
 the Gaussian(R) 94 system (copyright 1995, Gaussian, Inc.),
 the Gaussian 92(TM) system (copyright 1992, Gaussian, Inc.),
 the Gaussian 90(TM) system (copyright 1990, Gaussian, Inc.),
 the Gaussian 88(TM) system (copyright 1988, Gaussian, Inc.),
 the Gaussian 86(TM) system (copyright 1986, Carnegie Mellon
 University), and the Gaussian 82(TM) system (copyright 1983,
 Carnegie Mellon University). Gaussian is a federally registered
 trademark of Gaussian, Inc.
  
 This software contains proprietary and confidential information,
 including trade secrets, belonging to Gaussian, Inc.
  
 This software is provided under written license and may be
 used, copied, transmitted, or stored only in accord with that
 written license.
  
 The following legend is applicable only to US Government
 contracts under FAR:
  
                    RESTRICTED RIGHTS LEGEND
  
 Use, reproduction and disclosure by the US Government is
 subject to restrictions as set forth in subparagraphs (a)
 and (c) of the Commercial Computer Software - Restricted
 Rights clause in FAR 52.227-19.
  
 Gaussian, Inc.
 340 Quinnipiac St., Bldg. 40, Wallingford CT 06492
  
  
 ---------------------------------------------------------------
 Warning -- This program may not be used in any manner that
 competes with the business of Gaussian, Inc. or will provide
 assistance to any competitor of Gaussian, Inc.  The licensee
 of this program is prohibited from giving any competitor of
 Gaussian, Inc. access to this program.  By using this program,
 the user acknowledges that Gaussian, Inc. is engaged in the
 business of creating and licensing software in the field of
 computational chemistry and represents and warrants to the
 licensee that it is not a competitor of Gaussian, Inc. and that
 it will not use this program in any manner prohibited above.
 ---------------------------------------------------------------
  

 Cite this work as:
 Gaussian 09, Revision A.02,
 M. J. Frisch, G. W. Trucks, H. B. Schlegel, G. E. Scuseria, 
 M. A. Robb, J. R. Cheeseman, G. Scalmani, V. Barone, B. Mennucci, 
 G. A. Petersson, H. Nakatsuji, M. Caricato, X. Li, H. P. Hratchian, 
 A. F. Izmaylov, J. Bloino, G. Zheng, J. L. Sonnenberg, M. Hada, 
 M. Ehara, K. Toyota, R. Fukuda, J. Hasegawa, M. Ishida, T. Nakajima, 
 Y. Honda, O. Kitao, H. Nakai, T. Vreven, J. A. Montgomery, Jr., 
 J. E. Peralta, F. Ogliaro, M. Bearpark, J. J. Heyd, E. Brothers, 
 K. N. Kudin, V. N. Staroverov, R. Kobayashi, J. Normand, 
 K. Raghavachari, A. Rendell, J. C. Burant, S. S. Iyengar, J. Tomasi, 
 M. Cossi, N. Rega, J. M. Millam, M. Klene, J. E. Knox, J. B. Cross, 
 V. Bakken, C. Adamo, J. Jaramillo, R. Gomperts, R. E. Stratmann, 
 O. Yazyev, A. J. Austin, R. Cammi, C. Pomelli, J. W. Ochterski, 
 R. L. Martin, K. Morokuma, V. G. Zakrzewski, G. A. Voth, 
 P. Salvador, J. J. Dannenberg, S. Dapprich, A. D. Daniels, 
 O. Farkas, J. B. Foresman, J. V. Ortiz, J. Cioslowski, 
 and D. J. Fox, Gaussian, Inc., Wallingford CT, 2009.
 
 ******************************************
 Gaussian 09:  IA32W-G09RevA.02 11-Jun-2009
                09-Feb-2021 
 ******************************************
 %chk=D:\Documents\rayGit\FQ\quimicaComputacional\proyecto\decompositionHydrogenP
 eroxide\descompositionByRadicals\gasPhase\step4\ts\Q2ST\ts\martes\top\ts.chk
 %mem=1500MB
 %nprocshared=4
 Will use up to    4 processors via shared memory.
 ----------------------------------------------------------------------
 # opt=(calcfc,ts,noeigen,maxcycles=100) freq=noraman 6-31+g(d,p) m062x
 ----------------------------------------------------------------------
 1/5=1,6=100,10=4,11=1,14=-1,18=20,26=3,38=1/1,3;
 2/9=110,12=2,17=6,18=5,40=1/2;
 3/5=1,6=6,7=111,11=2,16=1,25=1,30=1,71=2,74=-55/1,2,3;
 4//1;
 5/5=2,38=5/2;
 8/6=4,10=90,11=11/1;
 11/6=1,8=1,9=11,15=111,16=1/1,2,10;
 10/6=1,7=6,13=1/2;
 6/7=2,8=2,9=2,10=2,28=1/1;
 7/10=1,18=20,25=1/1,2,3,16;
 1/5=1,6=100,10=4,11=1,14=-1,18=20/3(2);
 2/9=110/2;
 99//99;
 2/9=110/2;
 3/5=1,6=6,7=111,11=2,16=1,25=1,30=1,71=1,74=-55/1,2,3;
 4/5=5,16=3/1;
 5/5=2,38=5/2;
 7//1,2,3,16;
 1/5=1,6=100,11=1,14=-1,18=20/3(-5);
 2/9=110/2;
 6/7=2,8=2,9=2,10=2,19=2,28=1/1;
 99/9=1/99;
 ------------
 ts OOH vs OH
 ------------
 Symbolic Z-matrix:
 Charge =  0 Multiplicity = 1
 O                    -2.42784   1.18873   0. 
 O                    -1.16932   0.7906    0. 
 H                     0.01113   0.85092   0. 
 O                     0.60383  -0.13458   0. 
 H                     0.32316  -1.0218    0. 
 

 GradGradGradGradGradGradGradGradGradGradGradGradGradGradGradGradGradGrad
 Berny optimization.
 Initialization pass.
                           ----------------------------
                           !    Initial Parameters    !
                           ! (Angstroms and Degrees)  !
 --------------------------                            --------------------------
 ! Name  Definition              Value          Derivative Info.                !
 --------------------------------------------------------------------------------
 ! R1    R(1,2)                  1.32           calculate D2E/DX2 analytically  !
 ! R2    R(2,3)                  1.182          calculate D2E/DX2 analytically  !
 ! R3    R(3,4)                  1.15           calculate D2E/DX2 analytically  !
 ! R4    R(4,5)                  0.9306         calculate D2E/DX2 analytically  !
 ! A1    A(1,2,3)              159.5204         calculate D2E/DX2 analytically  !
 ! A2    A(2,3,4)              118.0982         calculate D2E/DX2 analytically  !
 ! A3    A(3,4,5)              131.4222         calculate D2E/DX2 analytically  !
 ! D1    D(1,2,3,4)            180.0            calculate D2E/DX2 analytically  !
 ! D2    D(2,3,4,5)              0.0            calculate D2E/DX2 analytically  !
 --------------------------------------------------------------------------------
 Trust Radius=3.00D-01 FncErr=1.00D-07 GrdErr=1.00D-06
 Number of steps in this run= 100 maximum allowed number of steps= 100.
 Search for a saddle point of order  1.
 GradGradGradGradGradGradGradGradGradGradGradGradGradGradGradGradGradGrad

                          Input orientation:                          
 ---------------------------------------------------------------------
 Center     Atomic      Atomic             Coordinates (Angstroms)
 Number     Number       Type             X           Y           Z
 ---------------------------------------------------------------------
      1          8           0       -2.427845    1.188726    0.000000
      2          8           0       -1.169316    0.790598    0.000000
      3          1           0        0.011132    0.850916    0.000000
      4          8           0        0.603827   -0.134585    0.000000
      5          1           0        0.323161   -1.021802    0.000000
 ---------------------------------------------------------------------
                    Distance matrix (angstroms):
                    1          2          3          4          5
     1  O    0.000000
     2  O    1.320000   0.000000
     3  H    2.462260   1.181988   0.000000
     4  O    3.307897   2.000000   1.150000   0.000000
     5  H    3.529089   2.347825   1.898536   0.930553   0.000000
 Stoichiometry    H2O3
 Framework group  CS[SG(H2O3)]
 Deg. of freedom     7
 Full point group                 CS      NOp   2
 Largest Abelian subgroup         CS      NOp   2
 Largest concise Abelian subgroup C1      NOp   1
                         Standard orientation:                         
 ---------------------------------------------------------------------
 Center     Atomic      Atomic             Coordinates (Angstroms)
 Number     Number       Type             X           Y           Z
 ---------------------------------------------------------------------
      1          8           0       -0.531883    1.555798    0.000000
      2          8           0        0.000000    0.347700    0.000000
      3          1           0        0.824659   -0.499078    0.000000
      4          8           0        0.475786   -1.594883    0.000000
      5          1           0       -0.375880   -1.969841    0.000000
 ---------------------------------------------------------------------
 Rotational constants (GHZ):    335.6272294      5.4435128      5.3566340
 Standard basis: 6-31+G(d,p) (6D, 7F)
 There are    50 symmetry adapted basis functions of A'  symmetry.
 There are    17 symmetry adapted basis functions of A"  symmetry.
 Integral buffers will be    262144 words long.
 Raffenetti 2 integral format.
 Two-electron integral symmetry is turned on.
    67 basis functions,   110 primitive gaussians,    67 cartesian basis functions
    13 alpha electrons       13 beta electrons
       nuclear repulsion energy        69.6420276948 Hartrees.
 NAtoms=    5 NActive=    5 NUniq=    5 SFac= 7.50D-01 NAtFMM=   80 NAOKFM=F Big=F
 One-electron integrals computed using PRISM.
 NBasis=    67 RedAO= T  NBF=    50    17
 NBsUse=    67 1.00D-06 NBFU=    50    17
 Harris functional with IExCor= 1009 diagonalized for initial guess.
 ExpMin= 8.45D-02 ExpMax= 5.48D+03 ExpMxC= 8.25D+02 IAcc=2 IRadAn=         0 AccDes= 0.00D+00
 HarFok:  IExCor= 1009 AccDes= 0.00D+00 IRadAn=         0 IDoV= 1
 ScaDFX=  1.000000  1.000000  1.000000  1.000000
 FoFCou: FMM=F IPFlag=           0 FMFlag=      100000 FMFlg1=           0
         NFxFlg=           0 DoJE=T BraDBF=F KetDBF=T FulRan=T
         Omega=  0.000000  0.000000  1.000000  0.000000  0.000000 ICntrl=     500 IOpCl=  0
         NMat0=    1 NMatS0=    1 NMatT0=    0 NMatD0=    1 NMtDS0=    0 NMtDT0=    0
         I1Cent=           4 NGrid=           0.
 Petite list used in FoFCou.
 Initial guess orbital symmetries:
       Occupied  (A') (A') (A') (A') (A') (A') (A') (A') (A') (A")
                 (A") (A') (A')
       Virtual   (A") (A') (A') (A') (A') (A") (A') (A') (A') (A")
                 (A') (A") (A') (A') (A') (A') (A') (A') (A") (A')
                 (A') (A") (A') (A') (A") (A') (A') (A') (A") (A")
                 (A') (A') (A') (A") (A') (A") (A') (A") (A') (A')
                 (A') (A") (A') (A") (A') (A') (A") (A') (A') (A')
                 (A') (A') (A') (A')
 The electronic state of the initial guess is 1-A'.
 Requested convergence on RMS density matrix=1.00D-08 within 128 cycles.
 Requested convergence on MAX density matrix=1.00D-06.
 Requested convergence on             energy=1.00D-06.
 No special actions if energy rises.
 Keep R1 ints in memory in canonical form, NReq=3551235.
 Integral accuracy reduced to 1.0D-05 until final iterations.
 Initial convergence to 1.0D-05 achieved.  Increase integral accuracy.
 SCF Done:  E(RM062X) =  -226.480714347     A.U. after   20 cycles
             Convg  =    0.7620D-08             -V/T =  2.0083
 Range of M.O.s used for correlation:     1    67
 NBasis=    67 NAE=    13 NBE=    13 NFC=     0 NFV=     0
 NROrb=     67 NOA=    13 NOB=    13 NVA=    54 NVB=    54

 **** Warning!!: The largest alpha MO coefficient is  0.33885732D+02

 Symmetrizing basis deriv contribution to polar:
 IMax=3 JMax=2 DiffMx= 0.00D+00
 G2DrvN: will do     6 centers at a time, making    1 passes doing MaxLOS=2.
 Calling FoFCou, ICntrl=  3107 FMM=F I1Cent=   0 AccDes= 0.00D+00.
 FoFDir/FoFCou used for L=0 through L=2.
 End of G2Drv Frequency-dependent properties file   721 does not exist.
 End of G2Drv Frequency-dependent properties file   722 does not exist.
          IDoAtm=11111
          Differentiating once with respect to nuclear coordinates.
          Keep R1 ints in memory in canonical form, NReq=3416970.
          There are    18 degrees of freedom in the 1st order CPHF.  IDoFFX=5.
     12 vectors produced by pass  0 Test12= 3.90D-11 5.56D-07 XBig12= 1.57D-01 2.60D-01.
 AX will form    12 AO Fock derivatives at one time.
     12 vectors produced by pass  1 Test12= 3.90D-11 5.56D-07 XBig12= 1.40D-02 7.82D-02.
     12 vectors produced by pass  2 Test12= 3.90D-11 5.56D-07 XBig12= 9.73D-04 1.02D-02.
     12 vectors produced by pass  3 Test12= 3.90D-11 5.56D-07 XBig12= 2.15D-05 8.97D-04.
     12 vectors produced by pass  4 Test12= 3.90D-11 5.56D-07 XBig12= 3.57D-07 1.41D-04.
      9 vectors produced by pass  5 Test12= 3.90D-11 5.56D-07 XBig12= 1.15D-09 1.07D-05.
      1 vectors produced by pass  6 Test12= 3.90D-11 5.56D-07 XBig12= 5.94D-12 8.41D-07.
 Inverted reduced A of dimension    70 with in-core refinement.
 End of Minotr Frequency-dependent properties file   721 does not exist.
 End of Minotr Frequency-dependent properties file   722 does not exist.

 **********************************************************************

            Population analysis using the SCF density.

 **********************************************************************

 Orbital symmetries:
       Occupied  (A') (A') (A') (A') (A') (A') (A') (A') (A") (A')
                 (A') (A') (A")
       Virtual   (A") (A') (A') (A') (A") (A') (A') (A') (A") (A')
                 (A') (A") (A') (A') (A') (A') (A') (A') (A") (A')
                 (A') (A') (A") (A') (A') (A") (A') (A') (A") (A')
                 (A') (A") (A') (A") (A') (A") (A') (A") (A') (A')
                 (A') (A") (A') (A") (A') (A') (A') (A") (A') (A')
                 (A') (A') (A') (A')
 The electronic state is 1-A'.
 Alpha  occ. eigenvalues --  -19.85044 -19.84032 -19.63152  -1.37190  -1.11810
 Alpha  occ. eigenvalues --   -0.99707  -0.70940  -0.61503  -0.58710  -0.55610
 Alpha  occ. eigenvalues --   -0.41335  -0.37913  -0.37258
 Alpha virt. eigenvalues --   -0.18774   0.06634   0.07947   0.11603   0.13802
 Alpha virt. eigenvalues --    0.16112   0.16647   0.18221   0.20439   0.22178
 Alpha virt. eigenvalues --    0.25060   0.26515   0.28629   0.36495   0.40056
 Alpha virt. eigenvalues --    0.48483   0.89104   1.05027   1.07476   1.10809
 Alpha virt. eigenvalues --    1.11792   1.12673   1.12840   1.22931   1.24547
 Alpha virt. eigenvalues --    1.25881   1.31363   1.38148   1.40543   1.55973
 Alpha virt. eigenvalues --    1.58717   1.58774   1.60887   1.61183   1.69941
 Alpha virt. eigenvalues --    1.83236   1.86043   1.89151   1.98407   2.06405
 Alpha virt. eigenvalues --    2.23596   2.30929   2.51116   2.59818   2.62084
 Alpha virt. eigenvalues --    2.77895   2.86037   2.86161   3.37503   3.51720
 Alpha virt. eigenvalues --    3.66969   3.75403   4.10477   4.27721
          Condensed to atoms (all electrons):
              1          2          3          4          5
     1  O    7.997177   0.155146  -0.004282  -0.015465  -0.001374
     2  O    0.155146   7.858006   0.040244  -0.034968   0.003145
     3  H   -0.004282   0.040244   0.269715   0.220027  -0.016215
     4  O   -0.015465  -0.034968   0.220027   8.245813   0.292497
     5  H   -0.001374   0.003145  -0.016215   0.292497   0.351778
 Mulliken atomic charges:
              1
     1  O   -0.131203
     2  O   -0.021573
     3  H    0.490511
     4  O   -0.707903
     5  H    0.370168
 Sum of Mulliken atomic charges =   0.00000
 Mulliken charges with hydrogens summed into heavy atoms:
              1
     1  O   -0.131203
     2  O   -0.021573
     4  O    0.152776
 Sum of Mulliken charges with hydrogens summed into heavy atoms =   0.00000
 APT atomic charges:
              1
     1  O    0.249788
     2  O   -0.336444
     3  H    0.398682
     4  O   -0.946403
     5  H    0.634376
 Sum of APT charges=   0.00000
 APT Atomic charges with hydrogens summed into heavy atoms:
              1
     1  O    0.249788
     2  O   -0.336444
     3  H    0.000000
     4  O    0.086656
     5  H    0.000000
 Sum of APT charges=   0.00000
 Electronic spatial extent (au):  <R**2>=            217.9751
 Charge=              0.0000 electrons
 Dipole moment (field-independent basis, Debye):
    X=             -1.0255    Y=              1.3692    Z=              0.0000  Tot=              1.7107
 Quadrupole moment (field-independent basis, Debye-Ang):
   XX=            -17.2293   YY=            -19.8569   ZZ=            -17.3530
   XY=              4.1358   XZ=              0.0000   YZ=              0.0000
 Traceless Quadrupole moment (field-independent basis, Debye-Ang):
   XX=              0.9171   YY=             -1.7105   ZZ=              0.7934
   XY=              4.1358   XZ=              0.0000   YZ=              0.0000
 Octapole moment (field-independent basis, Debye-Ang**2):
  XXX=             -0.3066  YYY=              4.3179  ZZZ=              0.0000  XYY=            -10.4827
  XXY=              1.4556  XXZ=              0.0000  XZZ=             -1.0582  YZZ=              3.0154
  YYZ=              0.0000  XYZ=              0.0000
 Hexadecapole moment (field-independent basis, Debye-Ang**3):
 XXXX=            -33.5288 YYYY=           -198.7063 ZZZZ=            -14.6232 XXXY=             29.3355
 XXXZ=              0.0000 YYYX=             43.9548 YYYZ=              0.0000 ZZZX=              0.0000
 ZZZY=              0.0000 XXYY=            -41.4734 XXZZ=             -8.0815 YYZZ=            -36.1409
 XXYZ=              0.0000 YYXZ=              0.0000 ZZXY=              9.2924
 N-N= 6.964202769477D+01 E-N=-6.735276434773D+02  KE= 2.246126926175D+02
 Symmetry A'   KE= 2.159739253441D+02
 Symmetry A"   KE= 8.638767273433D+00
  Exact polarizability:   0.000   0.000   0.000   0.000   0.000   0.000
 Approx polarizability:  20.643 -21.113  81.166   0.000   0.000  13.351
 Calling FoFJK, ICntrl=    100147 FMM=F ISym2X=1 I1Cent= 0 IOpClX= 0 NMat=1 NMatS=1 NMatT=0.
 ***** Axes restored to original set *****
 -------------------------------------------------------------------
 Center     Atomic                   Forces (Hartrees/Bohr)
 Number     Number              X              Y              Z
 -------------------------------------------------------------------
      1        8           0.110293775   -0.015559603    0.000000000
      2        8          -0.216198350    0.029207715    0.000000000
      3        1           0.074058837   -0.073121908    0.000000000
      4        8           0.061336318    0.083465997    0.000000000
      5        1          -0.029490580   -0.023992202    0.000000000
 -------------------------------------------------------------------
 Cartesian Forces:  Max     0.216198350 RMS     0.074389603

 GradGradGradGradGradGradGradGradGradGradGradGradGradGradGradGradGradGrad
 Berny optimization.
 Internal  Forces:  Max     0.109859928 RMS     0.063850479
 Search for a saddle point.
 Step number   1 out of a maximum of  100
 All quantities printed in internal units (Hartrees-Bohrs-Radians)
 Swaping is turned off.
 Second derivative matrix not updated -- analytic derivatives used.
 The second derivative matrix:
                          R1        R2        R3        R4        A1
           R1           0.33747
           R2           0.05696   0.20235
           R3           0.00978   0.17070   0.19532
           R4          -0.00664   0.00332  -0.01399   0.69211
           A1          -0.00552  -0.06738   0.03183   0.00116   0.05283
           A2           0.05515   0.12623   0.10868  -0.00235  -0.04620
           A3           0.00551   0.02772   0.00013   0.01218   0.02124
           D1           0.00000   0.00000   0.00000   0.00000   0.00000
           D2           0.00000   0.00000   0.00000   0.00000   0.00000
                          A2        A3        D1        D2
           A2           0.25400
           A3          -0.00105   0.03037
           D1           0.00000   0.00000  -0.01353
           D2           0.00000   0.00000   0.01286  -0.00118
     Eigenvalues ---   -0.04490  -0.02162   0.00691   0.03823   0.09442
     Eigenvalues ---    0.14782   0.31389   0.52195   0.69304
 Eigenvectors required to have negative eigenvalues:
                          A1        R2        R3        A3        R1
   1                    0.61221   0.51754  -0.47273  -0.35634  -0.05946
                          A2        R4        D1        D2
   1                    0.05761  -0.00673   0.00000   0.00000
 RFO step:  Lambda0=4.816371250D-02 Lambda=-9.98428563D-02.
 Linear search not attempted -- option 19 set.
 Maximum step size (   0.300) exceeded in Quadratic search.
    -- Step size scaled by   0.251
 Iteration  1 RMS(Cart)=  0.14162875 RMS(Int)=  0.01959201
 Iteration  2 RMS(Cart)=  0.01592954 RMS(Int)=  0.00027268
 Iteration  3 RMS(Cart)=  0.00036375 RMS(Int)=  0.00000015
 Iteration  4 RMS(Cart)=  0.00000014 RMS(Int)=  0.00000000
 ClnCor:  largest displacement from symmetrization is 7.10D-02 for atom     2.
 Variable       Old X    -DE/DX   Delta X   Delta X   Delta X     New X
                                 (Linear)    (Quad)   (Total)
    R1        2.49444  -0.10986   0.00000  -0.06338  -0.06629   2.42815
    R2        2.23363   0.10501   0.00000  -0.04101  -0.04159   2.19204
    R3        2.17319  -0.03452   0.00000   0.04653   0.04491   2.21810
    R4        1.75849   0.03182   0.00000   0.01047   0.00841   1.76690
    A1        2.78416  -0.04618   0.00000  -0.20675  -0.20230   2.58185
    A2        2.06120   0.08891   0.00000   0.04206   0.04162   2.10282
    A3        2.29375  -0.03679   0.00000   0.04667   0.05108   2.34483
    D1        3.14159   0.00000   0.00000   0.15911   0.00000   3.14159
    D2        0.00000   0.00000   0.00000  -0.10009   0.00000   0.00000
         Item               Value     Threshold  Converged?
 Maximum Force            0.109860     0.000450     NO 
 RMS     Force            0.063850     0.000300     NO 
 Maximum Displacement     0.221945     0.001800     NO 
 RMS     Displacement     0.138125     0.001200     NO 
 Predicted change in Energy=-1.151518D-02
 GradGradGradGradGradGradGradGradGradGradGradGradGradGradGradGradGradGrad

                          Input orientation:                          
 ---------------------------------------------------------------------
 Center     Atomic      Atomic             Coordinates (Angstroms)
 Number     Number       Type             X           Y           Z
 ---------------------------------------------------------------------
      1          8           0       -2.383220    1.302126    0.000000
      2          8           0       -1.237126    0.721190    0.000000
      3          1           0       -0.081906    0.826140    0.000000
      4          8           0        0.602602   -0.127369    0.000000
      5          1           0        0.440609   -1.048232    0.000000
 ---------------------------------------------------------------------
                    Distance matrix (angstroms):
                    1          2          3          4          5
     1  O    0.000000
     2  O    1.284920   0.000000
     3  H    2.350023   1.159978   0.000000
     4  O    3.310376   2.025994   1.173767   0.000000
     5  H    3.673989   2.438370   1.945840   0.935003   0.000000
 Stoichiometry    H2O3
 Framework group  CS[SG(H2O3)]
 Deg. of freedom     7
 Full point group                 CS      NOp   2
 Largest Abelian subgroup         CS      NOp   2
 Largest concise Abelian subgroup C1      NOp   1
                         Standard orientation:                         
 ---------------------------------------------------------------------
 Center     Atomic      Atomic             Coordinates (Angstroms)
 Number     Number       Type             X           Y           Z
 ---------------------------------------------------------------------
      1          8           0       -0.055187    1.637789    0.000000
      2          8           0        0.000000    0.354055    0.000000
      3          1           0       -0.573121   -0.654449    0.000000
      4          8           0        0.012129   -1.671903    0.000000
      5          1           0        0.917591   -1.905077    0.000000
 ---------------------------------------------------------------------
 Rotational constants (GHZ):    450.4530275      5.3943969      5.3305608
 Standard basis: 6-31+G(d,p) (6D, 7F)
 There are    50 symmetry adapted basis functions of A'  symmetry.
 There are    17 symmetry adapted basis functions of A"  symmetry.
 Integral buffers will be    262144 words long.
 Raffenetti 2 integral format.
 Two-electron integral symmetry is turned on.
    67 basis functions,   110 primitive gaussians,    67 cartesian basis functions
    13 alpha electrons       13 beta electrons
       nuclear repulsion energy        70.0504156624 Hartrees.
 NAtoms=    5 NActive=    5 NUniq=    5 SFac= 7.50D-01 NAtFMM=   80 NAOKFM=F Big=F
 One-electron integrals computed using PRISM.
 NBasis=    67 RedAO= T  NBF=    50    17
 NBsUse=    67 1.00D-06 NBFU=    50    17
 Initial guess read from the read-write file.
 B after Tr=     0.000000    0.000000    0.000000
         Rot=    1.000000    0.000000    0.000000    0.000000 Ang=   0.00 deg.
 Initial guess orbital symmetries:
       Occupied  (A') (A') (A') (A') (A') (A') (A') (A') (A") (A')
                 (A') (A') (A")
       Virtual   (A") (A') (A') (A') (A") (A') (A') (A') (A") (A')
                 (A') (A") (A') (A') (A') (A') (A') (A') (A") (A')
                 (A') (A') (A") (A') (A') (A") (A') (A') (A") (A')
                 (A') (A") (A') (A") (A') (A") (A') (A") (A') (A')
                 (A') (A") (A') (A") (A') (A') (A') (A") (A') (A')
                 (A') (A') (A') (A')
 Harris functional with IExCor= 1009 diagonalized for initial guess.
 ExpMin= 8.45D-02 ExpMax= 5.48D+03 ExpMxC= 8.25D+02 IAcc=2 IRadAn=         0 AccDes= 0.00D+00
 HarFok:  IExCor= 1009 AccDes= 0.00D+00 IRadAn=         0 IDoV= 1
 ScaDFX=  1.000000  1.000000  1.000000  1.000000
 FoFCou: FMM=F IPFlag=           0 FMFlag=      100000 FMFlg1=           0
         NFxFlg=           0 DoJE=T BraDBF=F KetDBF=T FulRan=T
         Omega=  0.000000  0.000000  1.000000  0.000000  0.000000 ICntrl=     500 IOpCl=  0
         NMat0=    1 NMatS0=    1 NMatT0=    0 NMatD0=    1 NMtDS0=    0 NMtDT0=    0
         I1Cent=           4 NGrid=           0.
 Petite list used in FoFCou.
 Requested convergence on RMS density matrix=1.00D-08 within 128 cycles.
 Requested convergence on MAX density matrix=1.00D-06.
 Requested convergence on             energy=1.00D-06.
 No special actions if energy rises.
 Keep R1 ints in memory in canonical form, NReq=3551235.
 Integral accuracy reduced to 1.0D-05 until final iterations.
 Initial convergence to 1.0D-05 achieved.  Increase integral accuracy.
 SCF Done:  E(RM062X) =  -226.492238949     A.U. after   21 cycles
             Convg  =    0.1458D-08             -V/T =  2.0082
 Calling FoFJK, ICntrl=      2127 FMM=F ISym2X=1 I1Cent= 0 IOpClX= 0 NMat=1 NMatS=1 NMatT=0.
 ***** Axes restored to original set *****
 -------------------------------------------------------------------
 Center     Atomic                   Forces (Hartrees/Bohr)
 Number     Number              X              Y              Z
 -------------------------------------------------------------------
      1        8           0.083262147   -0.024521046    0.000000000
      2        8          -0.173922001    0.033916740    0.000000000
      3        1           0.069177987   -0.062624938    0.000000000
      4        8           0.043388332    0.075723946    0.000000000
      5        1          -0.021906465   -0.022494701    0.000000000
 -------------------------------------------------------------------
 Cartesian Forces:  Max     0.173922001 RMS     0.061233498

 GradGradGradGradGradGradGradGradGradGradGradGradGradGradGradGradGradGrad
 Berny optimization.
 Internal  Forces:  Max     0.089477426 RMS     0.052908284
 Search for a saddle point.
 Step number   2 out of a maximum of  100
 All quantities printed in internal units (Hartrees-Bohrs-Radians)
 Swaping is turned off.
 Update second derivatives using D2CorX and points    1    2
 The second derivative matrix:
                          R1        R2        R3        R4        A1
           R1           0.34775
           R2           0.06018   0.20268
           R3           0.01094   0.17277   0.19115
           R4          -0.00738   0.00320  -0.01437   0.69214
           A1           0.00982  -0.06595   0.04206   0.00065   0.05899
           A2           0.05751   0.12883   0.10427  -0.00284  -0.03346
           A3           0.00417   0.02869  -0.00351   0.01203   0.02612
           D1           0.00000   0.00000   0.00000   0.00000   0.00000
           D2           0.00000   0.00000   0.00000   0.00000   0.00000
                          A2        A3        D1        D2
           A2           0.24947
           A3          -0.00514   0.02772
           D1           0.00000   0.00000  -0.01353
           D2           0.00000   0.00000   0.01286  -0.00118
     Eigenvalues ---   -0.05427  -0.02162   0.00691   0.03844   0.10299
     Eigenvalues ---    0.14848   0.32006   0.52103   0.69317
 Eigenvectors required to have negative eigenvalues:
                          A1        R2        R3        A3        R1
   1                    0.58342   0.52587  -0.47841  -0.38457  -0.07805
                          A2        R4        D1        D2
   1                    0.01367  -0.00649   0.00000   0.00000
 RFO step:  Lambda0=3.782064082D-02 Lambda=-7.18948941D-02.
 Linear search not attempted -- option 19 set.
 Maximum step size (   0.300) exceeded in Quadratic search.
    -- Step size scaled by   0.269
 Iteration  1 RMS(Cart)=  0.14736798 RMS(Int)=  0.01855413
 Iteration  2 RMS(Cart)=  0.01744052 RMS(Int)=  0.00031667
 Iteration  3 RMS(Cart)=  0.00032923 RMS(Int)=  0.00000020
 Iteration  4 RMS(Cart)=  0.00000020 RMS(Int)=  0.00000000
 ClnCor:  largest displacement from symmetrization is 9.90D-02 for atom     2.
 Variable       Old X    -DE/DX   Delta X   Delta X   Delta X     New X
                                 (Linear)    (Quad)   (Total)
    R1        2.42815  -0.08535   0.00000  -0.04974  -0.05572   2.37243
    R2        2.19204   0.08948   0.00000  -0.04329  -0.04438   2.14766
    R3        2.21810  -0.03073   0.00000   0.04291   0.04068   2.25878
    R4        1.76690   0.02592   0.00000   0.00926   0.00745   1.77435
    A1        2.58185  -0.03817   0.00000  -0.19143  -0.18485   2.39701
    A2        2.10282   0.07653   0.00000   0.05660   0.05589   2.15871
    A3        2.34483  -0.03118   0.00000   0.05688   0.06208   2.40691
    D1        3.14159   0.00000   0.00000  -0.17064   0.00000   3.14159
    D2        0.00000   0.00000   0.00000   0.10734   0.00000   0.00000
         Item               Value     Threshold  Converged?
 Maximum Force            0.089477     0.000450     NO 
 RMS     Force            0.052908     0.000300     NO 
 Maximum Displacement     0.223887     0.001800     NO 
 RMS     Displacement     0.137891     0.001200     NO 
 Predicted change in Energy=-8.036088D-03
 GradGradGradGradGradGradGradGradGradGradGradGradGradGradGradGradGradGrad

                          Input orientation:                          
 ---------------------------------------------------------------------
 Center     Atomic      Atomic             Coordinates (Angstroms)
 Number     Number       Type             X           Y           Z
 ---------------------------------------------------------------------
      1          8           0       -2.321491    1.404748    0.000000
      2          8           0       -1.308566    0.663060    0.000000
      3          1           0       -0.179266    0.790711    0.000000
      4          8           0        0.591197   -0.123133    0.000000
      5          1           0        0.559085   -1.061531    0.000000
 ---------------------------------------------------------------------
                    Distance matrix (angstroms):
                    1          2          3          4          5
     1  O    0.000000
     2  O    1.255435   0.000000
     3  H    2.228490   1.136492   0.000000
     4  O    3.289099   2.056016   1.195292   0.000000
     5  H    3.792130   2.542112   1.993981   0.938948   0.000000
 Stoichiometry    H2O3
 Framework group  CS[SG(H2O3)]
 Deg. of freedom     7
 Full point group                 CS      NOp   2
 Largest Abelian subgroup         CS      NOp   2
 Largest concise Abelian subgroup C1      NOp   1
                         Standard orientation:                         
 ---------------------------------------------------------------------
 Center     Atomic      Atomic             Coordinates (Angstroms)
 Number     Number       Type             X           Y           Z
 ---------------------------------------------------------------------
      1          8           0       -0.535724    1.530736    0.000000
      2          8           0        0.000000    0.395342    0.000000
      3          1           0       -0.339891   -0.689133    0.000000
      4          8           0        0.410919   -1.619191    0.000000
      5          1           0        1.338326   -1.765958    0.000000
 ---------------------------------------------------------------------
 Rotational constants (GHZ):    404.3142503      5.4132244      5.3417061
 Standard basis: 6-31+G(d,p) (6D, 7F)
 There are    50 symmetry adapted basis functions of A'  symmetry.
 There are    17 symmetry adapted basis functions of A"  symmetry.
 Integral buffers will be    262144 words long.
 Raffenetti 2 integral format.
 Two-electron integral symmetry is turned on.
    67 basis functions,   110 primitive gaussians,    67 cartesian basis functions
    13 alpha electrons       13 beta electrons
       nuclear repulsion energy        70.4678939907 Hartrees.
 NAtoms=    5 NActive=    5 NUniq=    5 SFac= 7.50D-01 NAtFMM=   80 NAOKFM=F Big=F
 One-electron integrals computed using PRISM.
 NBasis=    67 RedAO= T  NBF=    50    17
 NBsUse=    67 1.00D-06 NBFU=    50    17
 Initial guess read from the read-write file.
 B after Tr=     0.000000    0.000000    0.000000
         Rot=    1.000000    0.000000    0.000000    0.000000 Ang=   0.00 deg.
 Initial guess orbital symmetries:
       Occupied  (A') (A') (A') (A') (A') (A') (A') (A') (A") (A')
                 (A') (A') (A")
       Virtual   (A") (A') (A') (A') (A") (A') (A') (A') (A") (A')
                 (A') (A") (A') (A') (A') (A') (A') (A') (A") (A')
                 (A') (A") (A') (A') (A') (A") (A') (A') (A") (A')
                 (A") (A') (A') (A") (A') (A") (A') (A") (A') (A')
                 (A') (A") (A') (A") (A') (A') (A") (A') (A') (A')
                 (A') (A') (A') (A')
 Harris functional with IExCor= 1009 diagonalized for initial guess.
 ExpMin= 8.45D-02 ExpMax= 5.48D+03 ExpMxC= 8.25D+02 IAcc=2 IRadAn=         0 AccDes= 0.00D+00
 HarFok:  IExCor= 1009 AccDes= 0.00D+00 IRadAn=         0 IDoV= 1
 ScaDFX=  1.000000  1.000000  1.000000  1.000000
 FoFCou: FMM=F IPFlag=           0 FMFlag=      100000 FMFlg1=           0
         NFxFlg=           0 DoJE=T BraDBF=F KetDBF=T FulRan=T
         Omega=  0.000000  0.000000  1.000000  0.000000  0.000000 ICntrl=     500 IOpCl=  0
         NMat0=    1 NMatS0=    1 NMatT0=    0 NMatD0=    1 NMtDS0=    0 NMtDT0=    0
         I1Cent=           4 NGrid=           0.
 Petite list used in FoFCou.
 Requested convergence on RMS density matrix=1.00D-08 within 128 cycles.
 Requested convergence on MAX density matrix=1.00D-06.
 Requested convergence on             energy=1.00D-06.
 No special actions if energy rises.
 Keep R1 ints in memory in canonical form, NReq=3551239.
 Integral accuracy reduced to 1.0D-05 until final iterations.
 Initial convergence to 1.0D-05 achieved.  Increase integral accuracy.
 SCF Done:  E(RM062X) =  -226.499820164     A.U. after   20 cycles
             Convg  =    0.2388D-08             -V/T =  2.0080
 Calling FoFJK, ICntrl=      2127 FMM=F ISym2X=1 I1Cent= 0 IOpClX= 0 NMat=1 NMatS=1 NMatT=0.
 ***** Axes restored to original set *****
 -------------------------------------------------------------------
 Center     Atomic                   Forces (Hartrees/Bohr)
 Number     Number              X              Y              Z
 -------------------------------------------------------------------
      1        8           0.052771308   -0.025158021    0.000000000
      2        8          -0.129681406    0.035236251    0.000000000
      3        1           0.061809816   -0.054582196    0.000000000
      4        8           0.029833713    0.065065176    0.000000000
      5        1          -0.014733431   -0.020561210    0.000000000
 -------------------------------------------------------------------
 Cartesian Forces:  Max     0.129681406 RMS     0.047637263

 GradGradGradGradGradGradGradGradGradGradGradGradGradGradGradGradGradGrad
 Berny optimization.
 Internal  Forces:  Max     0.075280226 RMS     0.041679648
 Search for a saddle point.
 Step number   3 out of a maximum of  100
 All quantities printed in internal units (Hartrees-Bohrs-Radians)
 Swaping is turned off.
 Update second derivatives using D2CorX and points    1    2    3
 The second derivative matrix:
                          R1        R2        R3        R4        A1
           R1           0.37313
           R2           0.06915   0.20500
           R3           0.01485   0.17602   0.18767
           R4          -0.00719   0.00357  -0.01499   0.69204
           A1           0.04390  -0.05800   0.05625   0.00234   0.08519
           A2           0.06219   0.13281   0.09990  -0.00362  -0.01603
           A3           0.00053   0.02929  -0.00819   0.01135   0.03025
           D1           0.00000   0.00000   0.00000   0.00000   0.00000
           D2           0.00000   0.00000   0.00000   0.00000   0.00000
                          A2        A3        D1        D2
           A2           0.24397
           A3          -0.01096   0.02408
           D1           0.00000   0.00000  -0.01353
           D2           0.00000   0.00000   0.01286  -0.00118
     Eigenvalues ---   -0.06035  -0.02162   0.00691   0.03848   0.11409
     Eigenvalues ---    0.15661   0.33678   0.53229   0.69317
 Eigenvectors required to have negative eigenvalues:
                          R2        A1        R3        A3        R1
   1                    0.53678   0.52363  -0.49256  -0.42444  -0.11614
                          A2        R4        D1        D2
   1                   -0.03665  -0.00888   0.00000   0.00000
 RFO step:  Lambda0=3.122752572D-02 Lambda=-4.29993967D-02.
 Linear search not attempted -- option 19 set.
 Maximum step size (   0.300) exceeded in Quadratic search.
    -- Step size scaled by   0.289
 Iteration  1 RMS(Cart)=  0.15286997 RMS(Int)=  0.01778642
 Iteration  2 RMS(Cart)=  0.01781304 RMS(Int)=  0.00025352
 Iteration  3 RMS(Cart)=  0.00027183 RMS(Int)=  0.00000012
 Iteration  4 RMS(Cart)=  0.00000014 RMS(Int)=  0.00000000
 ClnCor:  largest displacement from symmetrization is 1.24D-01 for atom     2.
          Exceeds limit of 1.00D-01 so symmetrization was rejected.
 Variable       Old X    -DE/DX   Delta X   Delta X   Delta X     New X
                                 (Linear)    (Quad)   (Total)
    R1        2.37243  -0.05744   0.00000  -0.02410  -0.02410   2.34833
    R2        2.14766   0.07528   0.00000  -0.05339  -0.05339   2.09427
    R3        2.25878  -0.02429   0.00000   0.04732   0.04732   2.30610
    R4        1.77435   0.02106   0.00000   0.00903   0.00903   1.78339
    A1        2.39701  -0.02584   0.00000  -0.15644  -0.15644   2.24057
    A2        2.15871   0.06593   0.00000   0.07611   0.07611   2.23483
    A3        2.40691  -0.02490   0.00000   0.08269   0.08269   2.48960
    D1        3.14159   0.00000   0.00000  -0.18378  -0.18378   2.95781
    D2        0.00000   0.00000   0.00000   0.11561   0.11561   0.11561
         Item               Value     Threshold  Converged?
 Maximum Force            0.075280     0.000450     NO 
 RMS     Force            0.041680     0.000300     NO 
 Maximum Displacement     0.241879     0.001800     NO 
 RMS     Displacement     0.151328     0.001200     NO 
 Predicted change in Energy=-3.285070D-03
 GradGradGradGradGradGradGradGradGradGradGradGradGradGradGradGradGradGrad

                          Input orientation:                          
 ---------------------------------------------------------------------
 Center     Atomic      Atomic             Coordinates (Angstroms)
 Number     Number       Type             X           Y           Z
 ---------------------------------------------------------------------
      1          8           0       -2.256065    1.499334    0.050064
      2          8           0       -1.380549    0.625056   -0.065575
      3          1           0       -0.279497    0.744421   -0.025236
      4          8           0        0.569987   -0.129534    0.036345
      5          1           0        0.687082   -1.065424    0.004401
 ---------------------------------------------------------------------
                    Distance matrix (angstroms):
                    1          2          3          4          5
     1  O    0.000000
     2  O    1.242684   0.000000
     3  H    2.117164   1.108237   0.000000
     4  O    3.261896   2.093892   1.220333   0.000000
     5  H    3.904123   2.671650   2.051997   0.943727   0.000000
 Stoichiometry    H2O3
 Framework group  C1[X(H2O3)]
 Deg. of freedom     9
 Full point group                 C1      NOp   1
 Omega: Change in point group or standard orientation.

 Old FWG=CS   [SG(H2O3)]
 New FWG=C01  [X(H2O3)]
 Largest Abelian subgroup         C1      NOp   1
 Largest concise Abelian subgroup C1      NOp   1
                         Standard orientation:                         
 ---------------------------------------------------------------------
 Center     Atomic      Atomic             Coordinates (Angstroms)
 Number     Number       Type             X           Y           Z
 ---------------------------------------------------------------------
      1          8           0       -1.600102   -0.104568   -0.030361
      2          8           0       -0.401948    0.218027    0.037631
      3          1           0        0.485836   -0.442316    0.100688
      4          8           0        1.661586   -0.134233   -0.008442
      5          1           0        2.237866    0.608502   -0.091312
 ---------------------------------------------------------------------
 Rotational constants (GHZ):    275.3038327      5.4399668      5.3403042
 Standard basis: 6-31+G(d,p) (6D, 7F)
 There are    67 symmetry adapted basis functions of A   symmetry.
 Integral buffers will be    262144 words long.
 Raffenetti 2 integral format.
 Two-electron integral symmetry is turned on.
    67 basis functions,   110 primitive gaussians,    67 cartesian basis functions
    13 alpha electrons       13 beta electrons
       nuclear repulsion energy        70.5116928736 Hartrees.
 NAtoms=    5 NActive=    5 NUniq=    5 SFac= 7.50D-01 NAtFMM=   80 NAOKFM=F Big=F
 One-electron integrals computed using PRISM.
 NBasis=    67 RedAO= T  NBF=    67
 NBsUse=    67 1.00D-06 NBFU=    67
 Initial guess read from the read-write file.
 B after Tr=     0.000000    0.000000    0.000000
         Rot=    1.000000    0.000000    0.000000    0.000000 Ang=   0.00 deg.
 Initial guess orbital symmetries:
       Occupied  (A) (A) (A) (A) (A) (A) (A) (A) (A) (A) (A) (A)
                 (A)
       Virtual   (A) (A) (A) (A) (A) (A) (A) (A) (A) (A) (A) (A)
                 (A) (A) (A) (A) (A) (A) (A) (A) (A) (A) (A) (A)
                 (A) (A) (A) (A) (A) (A) (A) (A) (A) (A) (A) (A)
                 (A) (A) (A) (A) (A) (A) (A) (A) (A) (A) (A) (A)
                 (A) (A) (A) (A) (A) (A)
 Harris functional with IExCor= 1009 diagonalized for initial guess.
 ExpMin= 8.45D-02 ExpMax= 5.48D+03 ExpMxC= 8.25D+02 IAcc=2 IRadAn=         0 AccDes= 0.00D+00
 HarFok:  IExCor= 1009 AccDes= 0.00D+00 IRadAn=         0 IDoV= 1
 ScaDFX=  1.000000  1.000000  1.000000  1.000000
 FoFCou: FMM=F IPFlag=           0 FMFlag=      100000 FMFlg1=           0
         NFxFlg=           0 DoJE=T BraDBF=F KetDBF=T FulRan=T
         Omega=  0.000000  0.000000  1.000000  0.000000  0.000000 ICntrl=     500 IOpCl=  0
         NMat0=    1 NMatS0=    1 NMatT0=    0 NMatD0=    1 NMtDS0=    0 NMtDT0=    0
         I1Cent=           4 NGrid=           0.
 Petite list used in FoFCou.
 Requested convergence on RMS density matrix=1.00D-08 within 128 cycles.
 Requested convergence on MAX density matrix=1.00D-06.
 Requested convergence on             energy=1.00D-06.
 No special actions if energy rises.
 Keep R1 ints in memory in canonical form, NReq=3551234.
 Integral accuracy reduced to 1.0D-05 until final iterations.
 Initial convergence to 1.0D-05 achieved.  Increase integral accuracy.
 SCF Done:  E(RM062X) =  -226.503238757     A.U. after   27 cycles
             Convg  =    0.9121D-08             -V/T =  2.0080
 Calling FoFJK, ICntrl=      2127 FMM=F ISym2X=0 I1Cent= 0 IOpClX= 0 NMat=1 NMatS=1 NMatT=0.
 ***** Axes restored to original set *****
 -------------------------------------------------------------------
 Center     Atomic                   Forces (Hartrees/Bohr)
 Number     Number              X              Y              Z
 -------------------------------------------------------------------
      1        8           0.033726721   -0.024923736    0.001917638
      2        8          -0.096641120    0.036055048   -0.006942533
      3        1           0.055035381   -0.047073385    0.000601775
      4        8           0.016693620    0.052387886    0.005326690
      5        1          -0.008814602   -0.016445813   -0.000903570
 -------------------------------------------------------------------
 Cartesian Forces:  Max     0.096641120 RMS     0.037501743

 GradGradGradGradGradGradGradGradGradGradGradGradGradGradGradGradGradGrad
 Berny optimization.
 Internal  Forces:  Max     0.061518607 RMS     0.032504875
 Search for a saddle point.
 Step number   4 out of a maximum of  100
 All quantities printed in internal units (Hartrees-Bohrs-Radians)
 Swaping is turned off.
 Update second derivatives using D2CorX and points    2    3    4
 The second derivative matrix:
                          R1        R2        R3        R4        A1
           R1           0.37540
           R2           0.07270   0.21053
           R3           0.01424   0.17489   0.18616
           R4          -0.00745   0.00313  -0.01513   0.69204
           A1           0.05034  -0.04759   0.05767   0.00198   0.09748
           A2           0.06130   0.13117   0.09752  -0.00385  -0.01359
           A3          -0.00160   0.02576  -0.00965   0.01134   0.02805
           D1           0.00081   0.00172   0.00498   0.00056  -0.00759
           D2          -0.00439  -0.00685   0.00067   0.00045  -0.01144
                          A2        A3        D1        D2
           A2           0.24022
           A3          -0.01331   0.02360
           D1           0.00783   0.00560  -0.02956
           D2           0.00089   0.00345   0.01309   0.00693
     Eigenvalues ---   -0.05387  -0.03306   0.01310   0.03806   0.11440
     Eigenvalues ---    0.16084   0.33758   0.53252   0.69324
 Eigenvectors required to have negative eigenvalues:
                          R2        R3        A1        A3        D1
   1                    0.50171  -0.47897   0.47849  -0.43330   0.27125
                          R1        D2        A2        R4
   1                   -0.11991   0.11010  -0.04512  -0.00820
 RFO step:  Lambda0=2.204278071D-02 Lambda=-5.05240115D-02.
 Linear search not attempted -- option 19 set.
 Maximum step size (   0.300) exceeded in Quadratic search.
    -- Step size scaled by   0.298
 Iteration  1 RMS(Cart)=  0.11848497 RMS(Int)=  0.03429150
 Iteration  2 RMS(Cart)=  0.04184515 RMS(Int)=  0.00175727
 Iteration  3 RMS(Cart)=  0.00165216 RMS(Int)=  0.00000271
 Iteration  4 RMS(Cart)=  0.00000332 RMS(Int)=  0.00000000
 Iteration  5 RMS(Cart)=  0.00000000 RMS(Int)=  0.00000000
 Variable       Old X    -DE/DX   Delta X   Delta X   Delta X     New X
                                 (Linear)    (Quad)   (Total)
    R1        2.34833  -0.04112   0.00000  -0.02127  -0.02127   2.32706
    R2        2.09427   0.06152   0.00000  -0.01242  -0.01242   2.08185
    R3        2.30610  -0.02004   0.00000   0.01447   0.01447   2.32056
    R4        1.78339   0.01523   0.00000   0.00618   0.00618   1.78956
    A1        2.24057  -0.01602   0.00000  -0.09474  -0.09474   2.14582
    A2        2.23483   0.05186   0.00000   0.06609   0.06609   2.30091
    A3        2.48960  -0.01912   0.00000   0.06604   0.06604   2.55564
    D1        2.95781  -0.00932   0.00000  -0.26719  -0.26719   2.69061
    D2        0.11561  -0.00105   0.00000  -0.00702  -0.00702   0.10860
         Item               Value     Threshold  Converged?
 Maximum Force            0.061519     0.000450     NO 
 RMS     Force            0.032505     0.000300     NO 
 Maximum Displacement     0.236160     0.001800     NO 
 RMS     Displacement     0.131285     0.001200     NO 
 Predicted change in Energy=-6.754578D-03
 GradGradGradGradGradGradGradGradGradGradGradGradGradGradGradGradGradGrad

                          Input orientation:                          
 ---------------------------------------------------------------------
 Center     Atomic      Atomic             Coordinates (Angstroms)
 Number     Number       Type             X           Y           Z
 ---------------------------------------------------------------------
      1          8           0       -2.204467    1.521771    0.150444
      2          8           0       -1.422814    0.633424   -0.190545
      3          1           0       -0.331375    0.715032   -0.064971
      4          8           0        0.544858   -0.136495    0.057799
      5          1           0        0.754756   -1.059878    0.047272
 ---------------------------------------------------------------------
                    Distance matrix (angstroms):
                    1          2          3          4          5
     1  O    0.000000
     2  O    1.231429   0.000000
     3  H    2.050782   1.101666   0.000000
     4  O    3.212043   2.127483   1.227988   0.000000
     5  H    3.928430   2.768689   2.083887   0.946997   0.000000
 Stoichiometry    H2O3
 Framework group  C1[X(H2O3)]
 Deg. of freedom     9
 Full point group                 C1      NOp   1
 Largest Abelian subgroup         C1      NOp   1
 Largest concise Abelian subgroup C1      NOp   1
                         Standard orientation:                         
 ---------------------------------------------------------------------
 Center     Atomic      Atomic             Coordinates (Angstroms)
 Number     Number       Type             X           Y           Z
 ---------------------------------------------------------------------
      1          8           0        1.563147   -0.167838    0.060097
      2          8           0        0.430734    0.300225   -0.062279
      3          1           0       -0.457823   -0.322798   -0.251955
      4          8           0       -1.648161   -0.148310   -0.005777
      5          1           0       -2.307940    0.450183    0.315627
 ---------------------------------------------------------------------
 Rotational constants (GHZ):    178.9196827      5.5414880      5.4046561
 Standard basis: 6-31+G(d,p) (6D, 7F)
 There are    67 symmetry adapted basis functions of A   symmetry.
 Integral buffers will be    262144 words long.
 Raffenetti 2 integral format.
 Two-electron integral symmetry is turned on.
    67 basis functions,   110 primitive gaussians,    67 cartesian basis functions
    13 alpha electrons       13 beta electrons
       nuclear repulsion energy        70.6507548461 Hartrees.
 NAtoms=    5 NActive=    5 NUniq=    5 SFac= 7.50D-01 NAtFMM=   80 NAOKFM=F Big=F
 One-electron integrals computed using PRISM.
 NBasis=    67 RedAO= T  NBF=    67
 NBsUse=    67 1.00D-06 NBFU=    67
 Initial guess read from the read-write file.
 B after Tr=     0.000000    0.000000    0.000000
         Rot=    1.000000    0.000000    0.000000    0.000000 Ang=   0.00 deg.
 Initial guess orbital symmetries:
       Occupied  (A) (A) (A) (A) (A) (A) (A) (A) (A) (A) (A) (A)
                 (A)
       Virtual   (A) (A) (A) (A) (A) (A) (A) (A) (A) (A) (A) (A)
                 (A) (A) (A) (A) (A) (A) (A) (A) (A) (A) (A) (A)
                 (A) (A) (A) (A) (A) (A) (A) (A) (A) (A) (A) (A)
                 (A) (A) (A) (A) (A) (A) (A) (A) (A) (A) (A) (A)
                 (A) (A) (A) (A) (A) (A)
 Harris functional with IExCor= 1009 diagonalized for initial guess.
 ExpMin= 8.45D-02 ExpMax= 5.48D+03 ExpMxC= 8.25D+02 IAcc=2 IRadAn=         0 AccDes= 0.00D+00
 HarFok:  IExCor= 1009 AccDes= 0.00D+00 IRadAn=         0 IDoV= 1
 ScaDFX=  1.000000  1.000000  1.000000  1.000000
 FoFCou: FMM=F IPFlag=           0 FMFlag=      100000 FMFlg1=           0
         NFxFlg=           0 DoJE=T BraDBF=F KetDBF=T FulRan=T
         Omega=  0.000000  0.000000  1.000000  0.000000  0.000000 ICntrl=     500 IOpCl=  0
         NMat0=    1 NMatS0=    1 NMatT0=    0 NMatD0=    1 NMtDS0=    0 NMtDT0=    0
         I1Cent=           4 NGrid=           0.
 Petite list used in FoFCou.
 Requested convergence on RMS density matrix=1.00D-08 within 128 cycles.
 Requested convergence on MAX density matrix=1.00D-06.
 Requested convergence on             energy=1.00D-06.
 No special actions if energy rises.
 Keep R1 ints in memory in canonical form, NReq=3551234.
 Integral accuracy reduced to 1.0D-05 until final iterations.
 EnCoef did     1 forward-backward iterations
 Initial convergence to 1.0D-05 achieved.  Increase integral accuracy.
 SCF Done:  E(RM062X) =  -226.509644204     A.U. after   29 cycles
             Convg  =    0.3955D-08             -V/T =  2.0080
 Calling FoFJK, ICntrl=      2127 FMM=F ISym2X=0 I1Cent= 0 IOpClX= 0 NMat=1 NMatS=1 NMatT=0.
 ***** Axes restored to original set *****
 -------------------------------------------------------------------
 Center     Atomic                   Forces (Hartrees/Bohr)
 Number     Number              X              Y              Z
 -------------------------------------------------------------------
      1        8           0.019202201   -0.018468641    0.002130783
      2        8          -0.070037143    0.028783097   -0.009694922
      3        1           0.051875153   -0.043959969    0.000561868
      4        8           0.007217071    0.047132582    0.007211200
      5        1          -0.008257281   -0.013487069   -0.000208929
 -------------------------------------------------------------------
 Cartesian Forces:  Max     0.070037143 RMS     0.030267184

 GradGradGradGradGradGradGradGradGradGradGradGradGradGradGradGradGradGrad
 Berny optimization.
 Internal  Forces:  Max     0.050451684 RMS     0.025607344
 Search for a saddle point.
 Step number   5 out of a maximum of  100
 All quantities printed in internal units (Hartrees-Bohrs-Radians)
 Swaping is turned off.
 Update second derivatives using D2CorX and points    3    4    5
 The second derivative matrix:
                          R1        R2        R3        R4        A1
           R1           0.38421
           R2           0.07609   0.21167
           R3           0.00804   0.17259   0.19048
           R4          -0.00733   0.00325  -0.01526   0.69201
           A1           0.05452  -0.04701   0.05526   0.00254   0.09249
           A2           0.05341   0.12862   0.10282  -0.00420  -0.01394
           A3          -0.01049   0.02282  -0.00364   0.01098   0.02718
           D1           0.01826   0.00645  -0.00630   0.00181  -0.01327
           D2          -0.00928  -0.00856   0.00401   0.00031  -0.01283
                          A2        A3        D1        D2
           A2           0.24563
           A3          -0.00698   0.03096
           D1          -0.00096  -0.00529  -0.02338
           D2           0.00485   0.00796   0.00499   0.00939
     Eigenvalues ---   -0.04843  -0.02707   0.01310   0.04182   0.11830
     Eigenvalues ---    0.15774   0.35239   0.53240   0.69321
 Eigenvectors required to have negative eigenvalues:
                          A1        R2        R3        A3        D2
   1                    0.51422   0.50928  -0.48642  -0.39029   0.25535
                          R1        A2        R4        D1
   1                   -0.14732  -0.01519  -0.00987  -0.00706
 RFO step:  Lambda0=2.346450120D-02 Lambda=-3.92907910D-02.
 Linear search not attempted -- option 19 set.
 Maximum step size (   0.300) exceeded in Quadratic search.
    -- Step size scaled by   0.290
 Iteration  1 RMS(Cart)=  0.12462642 RMS(Int)=  0.02810671
 Iteration  2 RMS(Cart)=  0.03213319 RMS(Int)=  0.00068826
 Iteration  3 RMS(Cart)=  0.00074283 RMS(Int)=  0.00000029
 Iteration  4 RMS(Cart)=  0.00000036 RMS(Int)=  0.00000000
 Variable       Old X    -DE/DX   Delta X   Delta X   Delta X     New X
                                 (Linear)    (Quad)   (Total)
    R1        2.32706  -0.02493   0.00000   0.01632   0.01632   2.34338
    R2        2.08185   0.05045   0.00000  -0.04368  -0.04368   2.03817
    R3        2.32056  -0.02336   0.00000   0.04130   0.04130   2.36186
    R4        1.78956   0.01134   0.00000   0.00638   0.00638   1.79594
    A1        2.14582  -0.01201   0.00000  -0.14520  -0.14520   2.00063
    A2        2.30091   0.03582   0.00000   0.03435   0.03435   2.33526
    A3        2.55564  -0.01944   0.00000   0.05160   0.05160   2.60724
    D1        2.69061  -0.01583   0.00000  -0.22284  -0.22284   2.46777
    D2        0.10860  -0.00207   0.00000  -0.10723  -0.10723   0.00137
         Item               Value     Threshold  Converged?
 Maximum Force            0.050452     0.000450     NO 
 RMS     Force            0.025607     0.000300     NO 
 Maximum Displacement     0.254179     0.001800     NO 
 RMS     Displacement     0.135482     0.001200     NO 
 Predicted change in Energy=-3.002667D-03
 GradGradGradGradGradGradGradGradGradGradGradGradGradGradGradGradGradGrad

                          Input orientation:                          
 ---------------------------------------------------------------------
 Center     Atomic      Atomic             Coordinates (Angstroms)
 Number     Number       Type             X           Y           Z
 ---------------------------------------------------------------------
      1          8           0       -2.134824    1.494711    0.260715
      2          8           0       -1.437498    0.653059   -0.325050
      3          1           0       -0.382726    0.713793   -0.108153
      4          8           0        0.515275   -0.138071    0.065125
      5          1           0        0.780732   -1.049638    0.107363
 ---------------------------------------------------------------------
                    Distance matrix (angstroms):
                    1          2          3          4          5
     1  O    0.000000
     2  O    1.240066   0.000000
     3  H    1.953393   1.078554   0.000000
     4  O    3.118855   2.142766   1.249841   0.000000
     5  H    3.872686   2.829612   2.123622   0.950372   0.000000
 Stoichiometry    H2O3
 Framework group  C1[X(H2O3)]
 Deg. of freedom     9
 Full point group                 C1      NOp   1
 Largest Abelian subgroup         C1      NOp   1
 Largest concise Abelian subgroup C1      NOp   1
                         Standard orientation:                         
 ---------------------------------------------------------------------
 Center     Atomic      Atomic             Coordinates (Angstroms)
 Number     Number       Type             X           Y           Z
 ---------------------------------------------------------------------
      1          8           0        1.501292   -0.255032    0.051197
      2          8           0        0.454063    0.404119   -0.030017
      3          1           0       -0.406358   -0.157682   -0.357633
      4          8           0       -1.614656   -0.154255   -0.038090
      5          1           0       -2.319233    0.199021    0.492920
 ---------------------------------------------------------------------
 Rotational constants (GHZ):    111.3768685      5.8130870      5.5777349
 Standard basis: 6-31+G(d,p) (6D, 7F)
 There are    67 symmetry adapted basis functions of A   symmetry.
 Integral buffers will be    262144 words long.
 Raffenetti 2 integral format.
 Two-electron integral symmetry is turned on.
    67 basis functions,   110 primitive gaussians,    67 cartesian basis functions
    13 alpha electrons       13 beta electrons
       nuclear repulsion energy        70.7476582638 Hartrees.
 NAtoms=    5 NActive=    5 NUniq=    5 SFac= 7.50D-01 NAtFMM=   80 NAOKFM=F Big=F
 One-electron integrals computed using PRISM.
 NBasis=    67 RedAO= T  NBF=    67
 NBsUse=    67 1.00D-06 NBFU=    67
 Initial guess read from the read-write file.
 B after Tr=     0.000000    0.000000    0.000000
         Rot=    1.000000    0.000000    0.000000    0.000000 Ang=   0.00 deg.
 Initial guess orbital symmetries:
       Occupied  (A) (A) (A) (A) (A) (A) (A) (A) (A) (A) (A) (A)
                 (A)
       Virtual   (A) (A) (A) (A) (A) (A) (A) (A) (A) (A) (A) (A)
                 (A) (A) (A) (A) (A) (A) (A) (A) (A) (A) (A) (A)
                 (A) (A) (A) (A) (A) (A) (A) (A) (A) (A) (A) (A)
                 (A) (A) (A) (A) (A) (A) (A) (A) (A) (A) (A) (A)
                 (A) (A) (A) (A) (A) (A)
 Harris functional with IExCor= 1009 diagonalized for initial guess.
 ExpMin= 8.45D-02 ExpMax= 5.48D+03 ExpMxC= 8.25D+02 IAcc=2 IRadAn=         0 AccDes= 0.00D+00
 HarFok:  IExCor= 1009 AccDes= 0.00D+00 IRadAn=         0 IDoV= 1
 ScaDFX=  1.000000  1.000000  1.000000  1.000000
 FoFCou: FMM=F IPFlag=           0 FMFlag=      100000 FMFlg1=           0
         NFxFlg=           0 DoJE=T BraDBF=F KetDBF=T FulRan=T
         Omega=  0.000000  0.000000  1.000000  0.000000  0.000000 ICntrl=     500 IOpCl=  0
         NMat0=    1 NMatS0=    1 NMatT0=    0 NMatD0=    1 NMtDS0=    0 NMtDT0=    0
         I1Cent=           4 NGrid=           0.
 Petite list used in FoFCou.
 Requested convergence on RMS density matrix=1.00D-08 within 128 cycles.
 Requested convergence on MAX density matrix=1.00D-06.
 Requested convergence on             energy=1.00D-06.
 No special actions if energy rises.
 Keep R1 ints in memory in canonical form, NReq=3551088.
 Integral accuracy reduced to 1.0D-05 until final iterations.
 Initial convergence to 1.0D-05 achieved.  Increase integral accuracy.
 SCF Done:  E(RM062X) =  -226.511278821     A.U. after   25 cycles
             Convg  =    0.7385D-08             -V/T =  2.0081
 Calling FoFJK, ICntrl=      2127 FMM=F ISym2X=0 I1Cent= 0 IOpClX= 0 NMat=1 NMatS=1 NMatT=0.
 ***** Axes restored to original set *****
 -------------------------------------------------------------------
 Center     Atomic                   Forces (Hartrees/Bohr)
 Number     Number              X              Y              Z
 -------------------------------------------------------------------
      1        8           0.014361902   -0.023760809   -0.007015807
      2        8          -0.057728963    0.034866985    0.001601005
      3        1           0.048889525   -0.039281052   -0.000855487
      4        8           0.002831506    0.039463906    0.005429842
      5        1          -0.008353969   -0.011289031    0.000840446
 -------------------------------------------------------------------
 Cartesian Forces:  Max     0.057728963 RMS     0.027200149

 GradGradGradGradGradGradGradGradGradGradGradGradGradGradGradGradGradGrad
 Berny optimization.
 Internal  Forces:  Max     0.042855891 RMS     0.021970541
 Search for a saddle point.
 Step number   6 out of a maximum of  100
 All quantities printed in internal units (Hartrees-Bohrs-Radians)
 Swaping is turned off.
 Update second derivatives using D2CorX and points    4    5    6
 The second derivative matrix:
                          R1        R2        R3        R4        A1
           R1           0.39655
           R2           0.06960   0.21457
           R3           0.01290   0.17054   0.19190
           R4          -0.00743   0.00341  -0.01539   0.69199
           A1           0.03495  -0.03864   0.04945   0.00307   0.11623
           A2           0.06084   0.12532   0.10515  -0.00438  -0.02338
           A3          -0.00277   0.01957  -0.00140   0.01075   0.01803
           D1          -0.00131   0.01322  -0.01054   0.00267   0.00432
           D2          -0.01392  -0.00736   0.00341   0.00060  -0.01013
                          A2        A3        D1        D2
           A2           0.24932
           A3          -0.00335   0.03446
           D1          -0.00837  -0.01179  -0.01726
           D2           0.00349   0.00699   0.00386   0.00805
     Eigenvalues ---   -0.03987  -0.00062   0.01196   0.04215   0.11843
     Eigenvalues ---    0.16882   0.35419   0.53750   0.69326
 Eigenvectors required to have negative eigenvalues:
                          D1        R2        R3        A3        A1
   1                    0.67644  -0.39243   0.37553   0.31478  -0.29871
                          D2        R1        A2        R4
   1                   -0.23202   0.06921   0.02090   0.00490
 RFO step:  Lambda0=2.793303214D-02 Lambda=-2.59955654D-02.
 Linear search not attempted -- option 19 set.
 Maximum step size (   0.300) exceeded in Quadratic search.
    -- Step size scaled by   0.257
 Iteration  1 RMS(Cart)=  0.08423366 RMS(Int)=  0.02491192
 Iteration  2 RMS(Cart)=  0.03215991 RMS(Int)=  0.00084337
 Iteration  3 RMS(Cart)=  0.00073746 RMS(Int)=  0.00000010
 Iteration  4 RMS(Cart)=  0.00000016 RMS(Int)=  0.00000000
 Variable       Old X    -DE/DX   Delta X   Delta X   Delta X     New X
                                 (Linear)    (Quad)   (Total)
    R1        2.34338  -0.02751   0.00000  -0.02988  -0.02988   2.31350
    R2        2.03817   0.04286   0.00000   0.04251   0.04251   2.08068
    R3        2.36186  -0.02230   0.00000  -0.05286  -0.05286   2.30900
    R4        1.79594   0.00853   0.00000   0.00063   0.00063   1.79657
    A1        2.00063   0.00029   0.00000   0.01402   0.01402   2.01465
    A2        2.33526   0.02271   0.00000   0.04029   0.04029   2.37555
    A3        2.60724  -0.01948   0.00000   0.00409   0.00409   2.61133
    D1        2.46777  -0.01672   0.00000   0.27349   0.27349   2.74127
    D2        0.00137  -0.00254   0.00000  -0.08871  -0.08871  -0.08734
         Item               Value     Threshold  Converged?
 Maximum Force            0.042856     0.000450     NO 
 RMS     Force            0.021971     0.000300     NO 
 Maximum Displacement     0.170398     0.001800     NO 
 RMS     Displacement     0.115047     0.001200     NO 
 Predicted change in Energy=-5.565992D-04
 GradGradGradGradGradGradGradGradGradGradGradGradGradGradGradGradGradGrad

                          Input orientation:                          
 ---------------------------------------------------------------------
 Center     Atomic      Atomic             Coordinates (Angstroms)
 Number     Number       Type             X           Y           Z
 ---------------------------------------------------------------------
      1          8           0       -2.136663    1.559394    0.170545
      2          8           0       -1.469442    0.626532   -0.257686
      3          1           0       -0.394385    0.667401   -0.023396
      4          8           0        0.519458   -0.139149    0.062248
      5          1           0        0.821990   -1.040324    0.048289
 ---------------------------------------------------------------------
                    Distance matrix (angstroms):
                    1          2          3          4          5
     1  O    0.000000
     2  O    1.224253   0.000000
     3  H    1.966926   1.101050   0.000000
     4  O    3.154640   2.155076   1.221870   0.000000
     5  H    3.940445   2.850034   2.097863   0.950703   0.000000
 Stoichiometry    H2O3
 Framework group  C1[X(H2O3)]
 Deg. of freedom     9
 Full point group                 C1      NOp   1
 Largest Abelian subgroup         C1      NOp   1
 Largest concise Abelian subgroup C1      NOp   1
                         Standard orientation:                         
 ---------------------------------------------------------------------
 Center     Atomic      Atomic             Coordinates (Angstroms)
 Number     Number       Type             X           Y           Z
 ---------------------------------------------------------------------
      1          8           0        1.522420   -0.225545    0.044112
      2          8           0        0.457869    0.373585   -0.036947
      3          1           0       -0.427708   -0.257263   -0.210430
      4          8           0       -1.630787   -0.157116   -0.021913
      5          1           0       -2.368310    0.329875    0.328422
 ---------------------------------------------------------------------
 Rotational constants (GHZ):    132.2910228      5.6875015      5.4767247
 Standard basis: 6-31+G(d,p) (6D, 7F)
 There are    67 symmetry adapted basis functions of A   symmetry.
 Integral buffers will be    262144 words long.
 Raffenetti 2 integral format.
 Two-electron integral symmetry is turned on.
    67 basis functions,   110 primitive gaussians,    67 cartesian basis functions
    13 alpha electrons       13 beta electrons
       nuclear repulsion energy        70.8413619334 Hartrees.
 NAtoms=    5 NActive=    5 NUniq=    5 SFac= 7.50D-01 NAtFMM=   80 NAOKFM=F Big=F
 One-electron integrals computed using PRISM.
 NBasis=    67 RedAO= T  NBF=    67
 NBsUse=    67 1.00D-06 NBFU=    67
 Initial guess read from the read-write file.
 B after Tr=     0.000000    0.000000    0.000000
         Rot=    1.000000    0.000000    0.000000    0.000000 Ang=   0.00 deg.
 Initial guess orbital symmetries:
       Occupied  (A) (A) (A) (A) (A) (A) (A) (A) (A) (A) (A) (A)
                 (A)
       Virtual   (A) (A) (A) (A) (A) (A) (A) (A) (A) (A) (A) (A)
                 (A) (A) (A) (A) (A) (A) (A) (A) (A) (A) (A) (A)
                 (A) (A) (A) (A) (A) (A) (A) (A) (A) (A) (A) (A)
                 (A) (A) (A) (A) (A) (A) (A) (A) (A) (A) (A) (A)
                 (A) (A) (A) (A) (A) (A)
 Harris functional with IExCor= 1009 diagonalized for initial guess.
 ExpMin= 8.45D-02 ExpMax= 5.48D+03 ExpMxC= 8.25D+02 IAcc=2 IRadAn=         0 AccDes= 0.00D+00
 HarFok:  IExCor= 1009 AccDes= 0.00D+00 IRadAn=         0 IDoV= 1
 ScaDFX=  1.000000  1.000000  1.000000  1.000000
 FoFCou: FMM=F IPFlag=           0 FMFlag=      100000 FMFlg1=           0
         NFxFlg=           0 DoJE=T BraDBF=F KetDBF=T FulRan=T
         Omega=  0.000000  0.000000  1.000000  0.000000  0.000000 ICntrl=     500 IOpCl=  0
         NMat0=    1 NMatS0=    1 NMatT0=    0 NMatD0=    1 NMtDS0=    0 NMtDT0=    0
         I1Cent=           4 NGrid=           0.
 Petite list used in FoFCou.
 Requested convergence on RMS density matrix=1.00D-08 within 128 cycles.
 Requested convergence on MAX density matrix=1.00D-06.
 Requested convergence on             energy=1.00D-06.
 No special actions if energy rises.
 Keep R1 ints in memory in canonical form, NReq=3551088.
 Integral accuracy reduced to 1.0D-05 until final iterations.
 Initial convergence to 1.0D-05 achieved.  Increase integral accuracy.
 SCF Done:  E(RM062X) =  -226.511821651     A.U. after   28 cycles
             Convg  =    0.9844D-09             -V/T =  2.0079
 Calling FoFJK, ICntrl=      2127 FMM=F ISym2X=0 I1Cent= 0 IOpClX= 0 NMat=1 NMatS=1 NMatT=0.
 ***** Axes restored to original set *****
 -------------------------------------------------------------------
 Center     Atomic                   Forces (Hartrees/Bohr)
 Number     Number              X              Y              Z
 -------------------------------------------------------------------
      1        8           0.003502293   -0.013814690    0.001021821
      2        8          -0.052347672    0.031162230   -0.005353997
      3        1           0.052883107   -0.047558686   -0.004494650
      4        8           0.003810858    0.039385917    0.007439460
      5        1          -0.007848587   -0.009174771    0.001387366
 -------------------------------------------------------------------
 Cartesian Forces:  Max     0.052883107 RMS     0.026822451

 GradGradGradGradGradGradGradGradGradGradGradGradGradGradGradGradGradGrad
 Berny optimization.
 Internal  Forces:  Max     0.048017748 RMS     0.022806950
 Search for a saddle point.
 Step number   7 out of a maximum of  100
 All quantities printed in internal units (Hartrees-Bohrs-Radians)
 Swaping is turned off.
 Update second derivatives using D2CorX and points    4    5    6    7
 The second derivative matrix:
                          R1        R2        R3        R4        A1
           R1           0.40410
           R2           0.06845   0.20572
           R3           0.01937   0.17784   0.19041
           R4          -0.00889   0.00210  -0.01540   0.69206
           A1           0.06071  -0.01269   0.04761   0.00215   0.12771
           A2           0.04254   0.09663   0.11688  -0.00567   0.00795
           A3          -0.01722   0.00632  -0.00049   0.01127   0.01329
           D1          -0.02053  -0.01124  -0.00860   0.00323  -0.00818
           D2           0.02342   0.03528  -0.00133  -0.00033   0.00285
                          A2        A3        D1        D2
           A2           0.18761
           A3          -0.02024   0.03656
           D1          -0.03543  -0.00658  -0.00385
           D2           0.05664   0.00132  -0.00618   0.01370
     Eigenvalues ---   -0.03245  -0.01162   0.01364   0.04202   0.12311
     Eigenvalues ---    0.13903   0.35882   0.52780   0.69366
 Eigenvectors required to have negative eigenvalues:
                          D2        R3        R2        A2        D1
   1                    0.63264   0.49072  -0.36925  -0.31265  -0.28454
                          A1        A3        R1        R4
   1                   -0.19894  -0.04596   0.04538   0.01247
 RFO step:  Lambda0=2.442008712D-02 Lambda=-4.49655409D-02.
 Linear search not attempted -- option 19 set.
 Maximum step size (   0.300) exceeded in Quadratic search.
    -- Step size scaled by   0.257
 Iteration  1 RMS(Cart)=  0.11354175 RMS(Int)=  0.01526126
 Iteration  2 RMS(Cart)=  0.01486998 RMS(Int)=  0.00015475
 Iteration  3 RMS(Cart)=  0.00012172 RMS(Int)=  0.00000001
 Iteration  4 RMS(Cart)=  0.00000001 RMS(Int)=  0.00000000
 Variable       Old X    -DE/DX   Delta X   Delta X   Delta X     New X
                                 (Linear)    (Quad)   (Total)
    R1        2.31350  -0.01211   0.00000  -0.02752  -0.02752   2.28598
    R2        2.08068   0.04802   0.00000   0.03726   0.03726   2.11794
    R3        2.30900  -0.02234   0.00000   0.00060   0.00060   2.30960
    R4        1.79657   0.00617   0.00000   0.00407   0.00407   1.80064
    A1        2.01465   0.00549   0.00000   0.00522   0.00522   2.01986
    A2        2.37555   0.03318   0.00000  -0.06914  -0.06914   2.30642
    A3        2.61133  -0.01790   0.00000  -0.10878  -0.10878   2.50255
    D1        2.74127  -0.01524   0.00000  -0.22081  -0.22081   2.52046
    D2       -0.08734  -0.00283   0.00000   0.14981   0.14981   0.06247
         Item               Value     Threshold  Converged?
 Maximum Force            0.048018     0.000450     NO 
 RMS     Force            0.022807     0.000300     NO 
 Maximum Displacement     0.203283     0.001800     NO 
 RMS     Displacement     0.120990     0.001200     NO 
 Predicted change in Energy=-5.245907D-03
 GradGradGradGradGradGradGradGradGradGradGradGradGradGradGradGradGradGrad

                          Input orientation:                          
 ---------------------------------------------------------------------
 Center     Atomic      Atomic             Coordinates (Angstroms)
 Number     Number       Type             X           Y           Z
 ---------------------------------------------------------------------
      1          8           0       -2.137182    1.474344    0.223780
      2          8           0       -1.437785    0.629798   -0.287036
      3          1           0       -0.338430    0.724518   -0.090660
      4          8           0        0.539938   -0.109034    0.074877
      5          1           0        0.714418   -1.045772    0.079038
 ---------------------------------------------------------------------
                    Distance matrix (angstroms):
                    1          2          3          4          5
     1  O    0.000000
     2  O    1.209689   0.000000
     3  H    1.973987   1.120767   0.000000
     4  O    3.113877   2.142019   1.222187   0.000000
     5  H    3.808353   2.752004   2.066690   0.952858   0.000000
 Stoichiometry    H2O3
 Framework group  C1[X(H2O3)]
 Deg. of freedom     9
 Full point group                 C1      NOp   1
 Largest Abelian subgroup         C1      NOp   1
 Largest concise Abelian subgroup C1      NOp   1
                         Standard orientation:                         
 ---------------------------------------------------------------------
 Center     Atomic      Atomic             Coordinates (Angstroms)
 Number     Number       Type             X           Y           Z
 ---------------------------------------------------------------------
      1          8           0        1.495325   -0.231207    0.063697
      2          8           0        0.456509    0.377396   -0.053821
      3          1           0       -0.437262   -0.236028   -0.338433
      4          8           0       -1.616475   -0.161314   -0.026000
      5          1           0       -2.245604    0.357020    0.467422
 ---------------------------------------------------------------------
 Rotational constants (GHZ):    121.0298820      5.8445720      5.6285596
 Standard basis: 6-31+G(d,p) (6D, 7F)
 There are    67 symmetry adapted basis functions of A   symmetry.
 Integral buffers will be    262144 words long.
 Raffenetti 2 integral format.
 Two-electron integral symmetry is turned on.
    67 basis functions,   110 primitive gaussians,    67 cartesian basis functions
    13 alpha electrons       13 beta electrons
       nuclear repulsion energy        71.4184405817 Hartrees.
 NAtoms=    5 NActive=    5 NUniq=    5 SFac= 7.50D-01 NAtFMM=   80 NAOKFM=F Big=F
 One-electron integrals computed using PRISM.
 NBasis=    67 RedAO= T  NBF=    67
 NBsUse=    67 1.00D-06 NBFU=    67
 Initial guess read from the read-write file.
 B after Tr=     0.000000    0.000000    0.000000
         Rot=    1.000000    0.000000    0.000000    0.000000 Ang=   0.00 deg.
 Initial guess orbital symmetries:
       Occupied  (A) (A) (A) (A) (A) (A) (A) (A) (A) (A) (A) (A)
                 (A)
       Virtual   (A) (A) (A) (A) (A) (A) (A) (A) (A) (A) (A) (A)
                 (A) (A) (A) (A) (A) (A) (A) (A) (A) (A) (A) (A)
                 (A) (A) (A) (A) (A) (A) (A) (A) (A) (A) (A) (A)
                 (A) (A) (A) (A) (A) (A) (A) (A) (A) (A) (A) (A)
                 (A) (A) (A) (A) (A) (A)
 Harris functional with IExCor= 1009 diagonalized for initial guess.
 ExpMin= 8.45D-02 ExpMax= 5.48D+03 ExpMxC= 8.25D+02 IAcc=2 IRadAn=         0 AccDes= 0.00D+00
 HarFok:  IExCor= 1009 AccDes= 0.00D+00 IRadAn=         0 IDoV= 1
 ScaDFX=  1.000000  1.000000  1.000000  1.000000
 FoFCou: FMM=F IPFlag=           0 FMFlag=      100000 FMFlg1=           0
         NFxFlg=           0 DoJE=T BraDBF=F KetDBF=T FulRan=T
         Omega=  0.000000  0.000000  1.000000  0.000000  0.000000 ICntrl=     500 IOpCl=  0
         NMat0=    1 NMatS0=    1 NMatT0=    0 NMatD0=    1 NMtDS0=    0 NMtDT0=    0
         I1Cent=           4 NGrid=           0.
 Petite list used in FoFCou.
 Requested convergence on RMS density matrix=1.00D-08 within 128 cycles.
 Requested convergence on MAX density matrix=1.00D-06.
[...]
                     A                      A                      A
 Frequencies -- -1557.6363             -1541.0039                91.3381
 Red. masses --     1.1263                 1.1297                 6.5910
 Frc consts  --     1.6101                 1.5806                 0.0324
 IR Inten    --   543.9377               515.9424                 0.1062
  Atom  AN      X      Y      Z        X      Y      Z        X      Y      Z
     1   8     0.00   0.00   0.00     0.00   0.00   0.00     0.44   0.10   0.00
     2   8     0.00   0.00   0.00     0.00   0.00   0.00    -0.04  -0.18   0.00
     3   1     0.01  -0.04   0.70    -0.21   0.65   0.04    -0.23  -0.33   0.01
     4   8     0.00   0.01  -0.09     0.03  -0.09  -0.01    -0.36   0.07   0.00
     5   1     0.01  -0.04   0.71    -0.22   0.69   0.04    -0.49   0.48  -0.01
                     4                      5                      6
                     A                      A                      A
 Frequencies --   188.4910               268.8120               398.4064
 Red. masses --     6.8120                 1.0390                 1.1322
 Frc consts  --     0.1426                 0.0442                 0.1059
 IR Inten    --     2.3757                 0.2585                 0.5922
  Atom  AN      X      Y      Z        X      Y      Z        X      Y      Z
     1   8    -0.08  -0.10   0.00     0.00   0.00  -0.01    -0.05   0.00   0.00
     2   8     0.45   0.21   0.00     0.00   0.00   0.04     0.04   0.05   0.00
     3   1    -0.47   0.31  -0.03     0.00   0.01  -0.74     0.23  -0.73  -0.02
     4   8    -0.33  -0.10   0.00     0.00   0.00  -0.03     0.00  -0.04   0.00
     5   1    -0.20  -0.51   0.03     0.00  -0.01   0.67    -0.20   0.61   0.01
                     7                      8                      9
                     A                      A                      A
 Frequencies --  1776.8583              3981.4117              4418.3296
 Red. masses --    15.9852                 1.0118                 1.1217
 Frc consts  --    29.7353                 9.4502                12.9020
 IR Inten    --     0.2845               220.7338              1058.3134
  Atom  AN      X      Y      Z        X      Y      Z        X      Y      Z
     1   8    -0.35   0.61   0.00     0.00   0.00   0.00     0.00   0.00   0.00
     2   8     0.35  -0.61   0.00     0.00   0.00   0.00     0.00   0.00   0.00
     3   1     0.02  -0.02   0.00     0.78   0.25   0.00    -0.52  -0.17   0.00
     4   8     0.00   0.00   0.00    -0.02  -0.01   0.00     0.08   0.03   0.00
     5   1    -0.01   0.00   0.00    -0.54  -0.17   0.00    -0.79  -0.25  -0.01

 -------------------
 - Thermochemistry -
 -------------------
 Temperature   298.150 Kelvin.  Pressure   1.00000 Atm.
 Atom     1 has atomic number  8 and mass  15.99491
 Atom     2 has atomic number  8 and mass  15.99491
 Atom     3 has atomic number  1 and mass   1.00783
 Atom     4 has atomic number  8 and mass  15.99491
 Atom     5 has atomic number  1 and mass   1.00783
 Molecular mass:    50.00039 amu.
 Principal axes and moments of inertia in atomic units:
                           1         2         3
     Eigenvalues --    31.98712 411.14368 443.13033
           X            0.99997   0.00710   0.00008
           Y           -0.00710   0.99997   0.00035
           Z           -0.00008  -0.00035   1.00000
 This molecule is an asymmetric top.
 Rotational symmetry number  1.
 Rotational temperatures (Kelvin)      2.70777     0.21067     0.19546
 Rotational constants (GHZ):          56.42088     4.38956     4.07271
    2 imaginary frequencies ignored.
 Zero-point vibrational energy      66534.2 (Joules/Mol)
                                   15.90205 (Kcal/Mol)
 Warning -- explicit consideration of   4 degrees of freedom as
           vibrations may cause significant error
 Vibrational temperatures:    131.41   271.20   386.76   573.22  2556.50
          (Kelvin)           5728.36  6356.98
 
 Zero-point correction=                           0.025342 (Hartree/Particle)
 Thermal correction to Energy=                    0.030277
 Thermal correction to Enthalpy=                  0.031222
 Thermal correction to Gibbs Free Energy=        -0.001745
 Sum of electronic and zero-point Energies=           -226.533705
 Sum of electronic and thermal Energies=              -226.528769
 Sum of electronic and thermal Enthalpies=            -226.527825
 Sum of electronic and thermal Free Energies=         -226.560791
 
                     E (Thermal)             CV                S
                      KCal/Mol        Cal/Mol-Kelvin    Cal/Mol-Kelvin
 Total                   18.999             13.004             69.383
 Electronic               0.000              0.000              0.000
 Translational            0.889              2.981             37.652
 Rotational               0.889              2.981             23.281
 Vibrational             17.222              7.043              8.450
 Vibration     1          0.602              1.955              3.631
 Vibration     2          0.633              1.856              2.243
 Vibration     3          0.673              1.731              1.604
 Vibration     4          0.765              1.474              0.969
                       Q            Log10(Q)             Ln(Q)
 Total Bot       0.634474D+01          0.802414          1.847625
 Total V=0       0.287531D+13         12.458685         28.687181
 Vib (Bot)       0.167071D-10        -10.777098        -24.815186
 Vib (Bot)    1  0.225051D+01          0.352280          0.811155
 Vib (Bot)    2  0.106238D+01          0.026281          0.060515
 Vib (Bot)    3  0.719382D+00         -0.143041         -0.329363
 Vib (Bot)    4  0.447894D+00         -0.348824         -0.803198
 Vib (V=0)       0.757134D+01          0.879173          2.024370
 Vib (V=0)    1  0.280538D+01          0.447992          1.031539
 Vib (V=0)    2  0.167416D+01          0.223798          0.515313
 Vib (V=0)    3  0.137608D+01          0.138643          0.319236
 Vib (V=0)    4  0.117127D+01          0.068659          0.158092
 Electronic      0.100000D+01          0.000000          0.000000
 Translational   0.138968D+08          7.142915         16.447170
 Rotational      0.273273D+05          4.436597         10.215641
 ***** Axes restored to original set *****
 -------------------------------------------------------------------
 Center     Atomic                   Forces (Hartrees/Bohr)
 Number     Number              X              Y              Z
 -------------------------------------------------------------------
      1        8          -0.000047328    0.000143905    0.000113276
      2        8           0.000045525   -0.000226497   -0.000193438
      3        1          -0.000010103   -0.000009337   -0.000089284
      4        8          -0.000009018    0.000138695    0.000249987
      5        1           0.000020923   -0.000046766   -0.000080542
 -------------------------------------------------------------------
 Cartesian Forces:  Max     0.000249987 RMS     0.000122653

 GradGradGradGradGradGradGradGradGradGradGradGradGradGradGradGradGradGrad
 Berny optimization.
 Internal  Forces:  Max     0.000227051 RMS     0.000082637
 Search for a saddle point.
 Step number   1 out of a maximum of    2
 All quantities printed in internal units (Hartrees-Bohrs-Radians)
 Swaping is turned off.
 Second derivative matrix not updated -- analytic derivatives used.
 The second derivative matrix:
                          R1        R2        R3        R4        A1
           R1           0.95784
           R2          -0.00147   0.00948
           R3           0.00300   0.01288   0.62417
           R4           0.00018  -0.00011  -0.02335   0.65795
           A1           0.01351  -0.00110  -0.00153  -0.00012   0.02953
           A2          -0.00111   0.00077   0.00069   0.00102  -0.00209
           A3           0.00002   0.00026   0.00006   0.00040  -0.00022
           D1           0.00002   0.00000   0.00000  -0.00001   0.00001
           D2           0.00000   0.00000   0.00000   0.00000   0.00000
                          A2        A3        D1        D2
           A2           0.01106
           A3           0.00279  -0.12634
           D1           0.00004   0.00060   0.00021
           D2           0.00000  -0.00025   0.00000   0.00000
     Eigenvalues ---   -0.12640   0.00000   0.00021   0.00894   0.01109
     Eigenvalues ---    0.02963   0.61244   0.66993   0.95807
 Eigenvectors required to have negative eigenvalues:
                          A3        A2        D1        D2        R2
   1                    0.99978  -0.02029  -0.00474   0.00199  -0.00176
                          A1        R4        R1        R3
   1                    0.00114  -0.00049  -0.00006  -0.00005
 Angle between quadratic step and forces=  89.59 degrees.
 Linear search not attempted -- option 19 set.
 Maximum step size (   0.300) exceeded in Quadratic search.
    -- Step size scaled by   0.646
 Iteration  1 RMS(Cart)=  0.00031921 RMS(Int)=  0.08898133
 Iteration  2 RMS(Cart)=  0.00018602 RMS(Int)=  0.08228125
 Iteration  3 RMS(Cart)=  0.00018576 RMS(Int)=  0.07487732
 Iteration  4 RMS(Cart)=  0.00018617 RMS(Int)=  0.06657078
 Iteration  5 RMS(Cart)=  0.00017607 RMS(Int)=  0.05771247
 Iteration  6 RMS(Cart)=  0.00008603 RMS(Int)=  0.05377682
 Iteration  7 RMS(Cart)=  0.00007510 RMS(Int)=  0.05038771
 Iteration  8 RMS(Cart)=  0.00006554 RMS(Int)=  0.04746118
 Iteration  9 RMS(Cart)=  0.00005787 RMS(Int)=  0.04490044
 Iteration 10 RMS(Cart)=  0.00005166 RMS(Int)=  0.04263418
 Iteration 11 RMS(Cart)=  0.00004635 RMS(Int)=  0.04061350
 Iteration 12 RMS(Cart)=  0.00004194 RMS(Int)=  0.03879652
 Iteration 13 RMS(Cart)=  0.00003817 RMS(Int)=  0.03715187
 Iteration 14 RMS(Cart)=  0.00003493 RMS(Int)=  0.03565456
 Iteration 15 RMS(Cart)=  0.00003211 RMS(Int)=  0.03428442
 Iteration 16 RMS(Cart)=  0.00002964 RMS(Int)=  0.03302494
 Iteration 17 RMS(Cart)=  0.00002746 RMS(Int)=  0.03186249
 Iteration 18 RMS(Cart)=  0.00002553 RMS(Int)=  0.03078567
 Iteration 19 RMS(Cart)=  0.00002381 RMS(Int)=  0.02978483
 Iteration 20 RMS(Cart)=  0.00002226 RMS(Int)=  0.02885181
 Iteration 21 RMS(Cart)=  0.00002087 RMS(Int)=  0.02797956
 Iteration 22 RMS(Cart)=  0.00001962 RMS(Int)=  0.02716207
 Iteration 23 RMS(Cart)=  0.00001848 RMS(Int)=  0.02639412
 Iteration 24 RMS(Cart)=  0.00001744 RMS(Int)=  0.02567112
 Iteration 25 RMS(Cart)=  0.00001649 RMS(Int)=  0.02498909
 Iteration 26 RMS(Cart)=  0.00001562 RMS(Int)=  0.02434449
 Iteration 27 RMS(Cart)=  0.00001482 RMS(Int)=  0.02373420
 Iteration 28 RMS(Cart)=  0.00001408 RMS(Int)=  0.02315543
 Iteration 29 RMS(Cart)=  0.00001340 RMS(Int)=  0.02260572
 Iteration 30 RMS(Cart)=  0.00001277 RMS(Int)=  0.02208283
 Iteration 31 RMS(Cart)=  0.00001219 RMS(Int)=  0.02158479
 Iteration 32 RMS(Cart)=  0.00001165 RMS(Int)=  0.02110980
 Iteration 33 RMS(Cart)=  0.00001114 RMS(Int)=  0.02065624
 Iteration 34 RMS(Cart)=  0.00001067 RMS(Int)=  0.02022264
 Iteration 35 RMS(Cart)=  0.00001023 RMS(Int)=  0.01980768
 Iteration 36 RMS(Cart)=  0.00000981 RMS(Int)=  0.01941012
 Iteration 37 RMS(Cart)=  0.00000943 RMS(Int)=  0.01902888
 Iteration 38 RMS(Cart)=  0.00000906 RMS(Int)=  0.01866293
 Iteration 39 RMS(Cart)=  0.00000872 RMS(Int)=  0.01831135
 Iteration 40 RMS(Cart)=  0.00000840 RMS(Int)=  0.01797327
 Iteration 41 RMS(Cart)=  0.00000809 RMS(Int)=  0.01764792
 Iteration 42 RMS(Cart)=  0.00000780 RMS(Int)=  0.01733458
 Iteration 43 RMS(Cart)=  0.00000753 RMS(Int)=  0.01703255
 Iteration 44 RMS(Cart)=  0.00000728 RMS(Int)=  0.01674124
 Iteration 45 RMS(Cart)=  0.00000703 RMS(Int)=  0.01646007
 Iteration 46 RMS(Cart)=  0.00000680 RMS(Int)=  0.01618850
 Iteration 47 RMS(Cart)=  0.00000658 RMS(Int)=  0.01592604
 Iteration 48 RMS(Cart)=  0.00000637 RMS(Int)=  0.01567222
 Iteration 49 RMS(Cart)=  0.00000617 RMS(Int)=  0.01542661
 Iteration 50 RMS(Cart)=  0.00000599 RMS(Int)=  0.01518882
 Iteration 51 RMS(Cart)=  0.00000581 RMS(Int)=  0.01495846
 Iteration 52 RMS(Cart)=  0.00000563 RMS(Int)=  0.01473519
 Iteration 53 RMS(Cart)=  0.00000547 RMS(Int)=  0.01451867
 Iteration 54 RMS(Cart)=  0.00000531 RMS(Int)=  0.01430860
 Iteration 55 RMS(Cart)=  0.00000516 RMS(Int)=  0.01410468
 Iteration 56 RMS(Cart)=  0.00000502 RMS(Int)=  0.01390664
 Iteration 57 RMS(Cart)=  0.00000488 RMS(Int)=  0.01371423
 Iteration 58 RMS(Cart)=  0.00000475 RMS(Int)=  0.01352720
 Iteration 59 RMS(Cart)=  0.00000463 RMS(Int)=  0.01334533
 Iteration 60 RMS(Cart)=  0.00000451 RMS(Int)=  0.01316840
 Iteration 61 RMS(Cart)=  0.00000439 RMS(Int)=  0.01299620
 Iteration 62 RMS(Cart)=  0.00000428 RMS(Int)=  0.01282855
 Iteration 63 RMS(Cart)=  0.00000417 RMS(Int)=  0.01266525
 Iteration 64 RMS(Cart)=  0.00000407 RMS(Int)=  0.01250615
 Iteration 65 RMS(Cart)=  0.00000397 RMS(Int)=  0.01235107
 Iteration 66 RMS(Cart)=  0.00000388 RMS(Int)=  0.01219986
 Iteration 67 RMS(Cart)=  0.00000379 RMS(Int)=  0.01205237
 Iteration 68 RMS(Cart)=  0.00000370 RMS(Int)=  0.01190846
 Iteration 69 RMS(Cart)=  0.00000361 RMS(Int)=  0.01176801
 Iteration 70 RMS(Cart)=  0.00000353 RMS(Int)=  0.01163087
 Iteration 71 RMS(Cart)=  0.00000345 RMS(Int)=  0.01149693
 Iteration 72 RMS(Cart)=  0.00000338 RMS(Int)=  0.01136607
 Iteration 73 RMS(Cart)=  0.00000330 RMS(Int)=  0.01123819
 Iteration 74 RMS(Cart)=  0.00000323 RMS(Int)=  0.01111318
 Iteration 75 RMS(Cart)=  0.00000316 RMS(Int)=  0.01099093
 Iteration 76 RMS(Cart)=  0.00000310 RMS(Int)=  0.01087135
 Iteration 77 RMS(Cart)=  0.00000303 RMS(Int)=  0.01075435
 Iteration 78 RMS(Cart)=  0.00000297 RMS(Int)=  0.01063983
 Iteration 79 RMS(Cart)=  0.00000291 RMS(Int)=  0.01052772
 Iteration 80 RMS(Cart)=  0.00000285 RMS(Int)=  0.01041792
 Iteration 81 RMS(Cart)=  0.00000280 RMS(Int)=  0.01031036
 Iteration 82 RMS(Cart)=  0.00000274 RMS(Int)=  0.01020495
 Iteration 83 RMS(Cart)=  0.00000269 RMS(Int)=  0.01010163
 Iteration 84 RMS(Cart)=  0.00000264 RMS(Int)=  0.01000031
 Iteration 85 RMS(Cart)=  0.00000259 RMS(Int)=  0.00990092
 Iteration 86 RMS(Cart)=  0.00000255 RMS(Int)=  0.00980339
 Iteration 87 RMS(Cart)=  0.00000250 RMS(Int)=  0.00970765
 Iteration 88 RMS(Cart)=  0.00000246 RMS(Int)=  0.00961361
 Iteration 89 RMS(Cart)=  0.00000242 RMS(Int)=  0.00952119
 Iteration 90 RMS(Cart)=  0.00000238 RMS(Int)=  0.00943033
 Iteration 91 RMS(Cart)=  0.00000235 RMS(Int)=  0.00934092
 Iteration 92 RMS(Cart)=  0.00000231 RMS(Int)=  0.00925286
 Iteration 93 RMS(Cart)=  0.00000228 RMS(Int)=  0.00916604
 Iteration 94 RMS(Cart)=  0.00000226 RMS(Int)=  0.00908030
 Iteration 95 RMS(Cart)=  0.00000223 RMS(Int)=  0.00899550
 Iteration 96 RMS(Cart)=  0.00000222 RMS(Int)=  0.00891140
 Iteration 97 RMS(Cart)=  0.00000221 RMS(Int)=  0.00882774
 Iteration 98 RMS(Cart)=  0.00000221 RMS(Int)=  0.00874417
 Iteration 99 RMS(Cart)=  0.00000221 RMS(Int)=  0.00866049
 Iteration100 RMS(Cart)=  0.00000223 RMS(Int)=  0.00857608
 New curvilinear step not converged.
 Iteration  1 RMS(Cart)=  0.00023085 RMS(Int)=  0.08190703
 Iteration  2 RMS(Cart)=  0.00020123 RMS(Int)=  0.07401056
 Iteration  3 RMS(Cart)=  0.00015365 RMS(Int)=  0.06768197
 Iteration  4 RMS(Cart)=  0.00013569 RMS(Int)=  0.06155611
 Iteration  5 RMS(Cart)=  0.00011291 RMS(Int)=  0.05647688
 Iteration  6 RMS(Cart)=  0.00009457 RMS(Int)=  0.05229402
 Iteration  7 RMS(Cart)=  0.00008075 RMS(Int)=  0.04877009
 Iteration  8 RMS(Cart)=  0.00085654 RMS(Int)=  0.00550547
 Iteration  9 RMS(Cart)=  0.00032737 RMS(Int)=  0.00010688
 Iteration 10 RMS(Cart)=  0.00005143 RMS(Int)=  0.00000074
 Iteration 11 RMS(Cart)=  0.00000082 RMS(Int)=  0.00000000
 Variable       Old X    -DE/DX   Delta X   Delta X   Delta X     New X
                                 (Linear)    (Quad)   (Total)
    R1        2.25919   0.00023   0.00000   0.00015   0.00014   2.25933
    R2        3.65805  -0.00004   0.00000  -0.00328  -0.00295   3.65510
    R3        1.78709   0.00000   0.00000   0.00006   0.00005   1.78714
    R4        1.77323   0.00001   0.00000   0.00000   0.00000   1.77324
    A1        1.91108   0.00000   0.00000   0.00014   0.00012   1.91120
    A2        3.00300   0.00007   0.00000   0.00401   0.00361   3.00661
    A3        3.14102   0.00006   0.00000   0.00041   0.00037   3.14140
    D1       -0.06418   0.00000   0.00000   0.00666   0.00600  -0.05818
    D2       -1.13132   0.00000   0.00000  -0.29988  -0.26989  -1.40121
         Item               Value     Threshold  Converged?
 Maximum Force            0.000227     0.000450     YES
 RMS     Force            0.000083     0.000300     YES
 Maximum Displacement     0.003757     0.001800     NO 
 RMS     Displacement     0.002239     0.001200     NO 
 Predicted change in Energy=-3.379044D-07
 GradGradGradGradGradGradGradGradGradGradGradGradGradGradGradGradGradGrad

 1|1|UNPC-DESKTOP-319GPER|Freq|RM062X|6-31+G(d,p)|H2O3|SAGAD|09-Feb-202
 1|0||#N Geom=AllCheck Guess=TCheck SCRF=Check GenChk RM062X/6-31+G(d,p
 ) Freq||ts OOH vs OH||0,1|O,-2.0909234465,1.8457502236,0.3615014382|O,
 -1.9756656277,1.015361931,-0.4908018945|H,-0.3466988412,0.0112849467,-
 0.1984869418|O,0.4712092708,-0.3969567629,0.043769427|H,1.2830371745,-
 0.8015864683,0.284017971||Version=IA32W-G09RevA.02|State=1-A|HF=-226.5
 590466|RMSD=3.267e-010|RMSF=1.227e-004|ZeroPoint=0.0253415|Thermal=0.0
 302775|Dipole=-0.1186606,0.1154183,0.0267938|DipoleDeriv=0.0186956,-0.
 0015719,-0.0099266,0.0293008,0.0304553,0.0289172,0.0255198,0.0014296,0
 .0520032,-0.0841861,0.0860297,0.0175992,0.038492,-0.0457354,-0.027728,
 -0.0379169,0.0152811,-0.0078694,0.7998307,-0.2475701,-0.004807,-0.1800
 362,0.6073897,-0.0144113,0.072756,-0.0740654,0.4607561,-1.2871737,0.18
 75838,-0.0092421,0.1314305,-1.1149187,0.0190549,-0.0724886,0.0675318,-
 1.0171242,0.5528335,-0.0244714,0.0063765,-0.0191871,0.5228091,-0.00583
 28,0.0121297,-0.010177,0.5122344|Polar=15.0019645,-2.9287192,16.415577
 2,-0.1240885,3.2561848,14.9635603|PG=C01 [X(H2O3)]|NImag=2||0.01471994
 ,-0.06919726,0.46525274,-0.06723521,0.47234970,0.48417986,-0.01584439,
 0.07046711,0.06824970,0.02431279,0.06759421,-0.46436529,-0.47204483,-0
 .07202480,0.46729989,0.06496647,-0.46947961,-0.48353199,-0.06424261,0.
 46929166,0.48580709,0.00113650,-0.00304456,-0.00332539,0.00082120,0.00
 049175,0.00373783,0.44516997,0.00241446,-0.00070072,0.00025386,-0.0043
 4747,-0.00092242,-0.00172128,-0.24087808,0.08292168,0.00291536,-0.0045
 7527,-0.00169575,-0.00191355,0.00262964,-0.00145229,0.14414200,-0.0696
 1157,0.00637601,0.00004524,0.00157890,0.00200868,-0.00969286,0.0039524
 0,-0.00395391,-0.45387229,0.26711497,-0.15982529,0.95274585,-0.0004043
 8,-0.00036230,-0.00056755,0.00495732,-0.00248708,0.00165628,0.26815209
 ,-0.05110524,0.07914330,-0.55778074,0.11440154,-0.00025543,0.00115617,
 0.00091096,-0.00262808,0.00068973,-0.00163077,-0.15880599,0.07832863,0
 .03503606,0.33040923,-0.16414738,-0.06652332,-0.00005729,0.00019581,0.
 00030222,0.00040325,-0.00001356,-0.00050777,0.00674462,-0.02430389,0.0
 1468149,-0.48922594,0.28507572,-0.16871973,0.48213536,-0.00040702,0.00
 017558,0.00000882,0.00094784,0.00047490,0.00025294,-0.02472120,-0.0301
 9330,-0.00758610,0.28513446,-0.06044692,0.08397285,-0.26095408,0.08998
 974,-0.00039118,0.00054901,0.00013691,0.00053455,-0.00056621,0.0008079
 7,0.01425156,-0.00724964,-0.03826403,-0.16863871,0.08391534,0.03220707
 ,0.15424379,-0.07664850,0.00511208||0.00004733,-0.00014391,-0.00011328
 ,-0.00004553,0.00022650,0.00019344,0.00001010,0.00000934,0.00008928,0.
 00000902,-0.00013869,-0.00024999,-0.00002092,0.00004677,0.00008054|||@


 "ANNA, YOU MUSN'T SPEAK OF OXIDIZED MURIATIC ACID
 ANYMORE, FROM NOW ON YOU MUST SAY CHLORINE."
   -- JENS JACOB BERZELIUS, IN 1820, TO HIS COOK, WHO HAD
 COMPLAINED OF THE SMELL OF THE FLASK SHE WAS CLEANING.
 Job cpu time:  0 days  0 hours  0 minutes 17.0 seconds.
 File lengths (MBytes):  RWF=      6 Int=      0 D2E=      0 Chk=      1 Scr=      1
 Normal termination of Gaussian 09 at Tue Feb 09 12:58:54 2021.
