 Entering Link 1 = C:\G09W\l1.exe PID=     14132.
  
 Copyright (c) 1988,1990,1992,1993,1995,1998,2003,2009, Gaussian, Inc.
                  All Rights Reserved.
  
 This is part of the Gaussian(R) 09 program.  It is based on
 the Gaussian(R) 03 system (copyright 2003, Gaussian, Inc.),
 the Gaussian(R) 98 system (copyright 1998, Gaussian, Inc.),
 the Gaussian(R) 94 system (copyright 1995, Gaussian, Inc.),
 the Gaussian 92(TM) system (copyright 1992, Gaussian, Inc.),
 the Gaussian 90(TM) system (copyright 1990, Gaussian, Inc.),
 the Gaussian 88(TM) system (copyright 1988, Gaussian, Inc.),
 the Gaussian 86(TM) system (copyright 1986, Carnegie Mellon
 University), and the Gaussian 82(TM) system (copyright 1983,
 Carnegie Mellon University). Gaussian is a federally registered
 trademark of Gaussian, Inc.
  
 This software contains proprietary and confidential information,
 including trade secrets, belonging to Gaussian, Inc.
  
 This software is provided under written license and may be
 used, copied, transmitted, or stored only in accord with that
 written license.
  
 The following legend is applicable only to US Government
 contracts under FAR:
  
                    RESTRICTED RIGHTS LEGEND
  
 Use, reproduction and disclosure by the US Government is
 subject to restrictions as set forth in subparagraphs (a)
 and (c) of the Commercial Computer Software - Restricted
 Rights clause in FAR 52.227-19.
  
 Gaussian, Inc.
 340 Quinnipiac St., Bldg. 40, Wallingford CT 06492
  
  
 ---------------------------------------------------------------
 Warning -- This program may not be used in any manner that
 competes with the business of Gaussian, Inc. or will provide
 assistance to any competitor of Gaussian, Inc.  The licensee
 of this program is prohibited from giving any competitor of
 Gaussian, Inc. access to this program.  By using this program,
 the user acknowledges that Gaussian, Inc. is engaged in the
 business of creating and licensing software in the field of
 computational chemistry and represents and warrants to the
 licensee that it is not a competitor of Gaussian, Inc. and that
 it will not use this program in any manner prohibited above.
 ---------------------------------------------------------------
  

 Cite this work as:
 Gaussian 09, Revision A.02,
 M. J. Frisch, G. W. Trucks, H. B. Schlegel, G. E. Scuseria, 
 M. A. Robb, J. R. Cheeseman, G. Scalmani, V. Barone, B. Mennucci, 
 G. A. Petersson, H. Nakatsuji, M. Caricato, X. Li, H. P. Hratchian, 
 A. F. Izmaylov, J. Bloino, G. Zheng, J. L. Sonnenberg, M. Hada, 
 M. Ehara, K. Toyota, R. Fukuda, J. Hasegawa, M. Ishida, T. Nakajima, 
 Y. Honda, O. Kitao, H. Nakai, T. Vreven, J. A. Montgomery, Jr., 
 J. E. Peralta, F. Ogliaro, M. Bearpark, J. J. Heyd, E. Brothers, 
 K. N. Kudin, V. N. Staroverov, R. Kobayashi, J. Normand, 
 K. Raghavachari, A. Rendell, J. C. Burant, S. S. Iyengar, J. Tomasi, 
 M. Cossi, N. Rega, J. M. Millam, M. Klene, J. E. Knox, J. B. Cross, 
 V. Bakken, C. Adamo, J. Jaramillo, R. Gomperts, R. E. Stratmann, 
 O. Yazyev, A. J. Austin, R. Cammi, C. Pomelli, J. W. Ochterski, 
 R. L. Martin, K. Morokuma, V. G. Zakrzewski, G. A. Voth, 
 P. Salvador, J. J. Dannenberg, S. Dapprich, A. D. Daniels, 
 O. Farkas, J. B. Foresman, J. V. Ortiz, J. Cioslowski, 
 and D. J. Fox, Gaussian, Inc., Wallingford CT, 2009.
 
 ******************************************
 Gaussian 09:  IA32W-G09RevA.02 11-Jun-2009
                05-Feb-2021 
 ******************************************
 %chk=D:\Documents\rayGit\FQ\quimicaComputacional\proyecto\decompositionHydrogenP
 eroxide\globalReactionSolvated\step1\reactants\hydrogenPeroxideM062X.chk
 %mem=1500MB
 %nprocshared=4
 Will use up to    4 processors via shared memory.
 -------------------------------------
 # opt freq scrf=smd 6-31+g(d,p) m062x
 -------------------------------------
 1/14=-1,18=20,19=15,26=3,38=1/1,3;
 2/9=110,12=2,17=6,18=5,40=1/2;
 3/5=1,6=6,7=111,11=2,16=1,25=1,30=1,70=32201,71=1,72=1,74=-55/1,2,3;
 4//1;
 5/5=2,38=5/2;
 6/7=2,8=2,9=2,10=2,28=1/1;
 7//1,2,3,16;
 1/14=-1,18=20,19=15/3(2);
 2/9=110/2;
 99//99;
 2/9=110/2;
 3/5=1,6=6,7=111,11=2,16=1,25=1,30=1,70=32205,71=1,74=-55/1,2,3;
 4/5=5,16=3/1;
 5/5=2,38=5/2;
 7//1,2,3,16;
 1/14=-1,18=20,19=15/3(-5);
 2/9=110/2;
 6/7=2,8=2,9=2,10=2,19=2,28=1/1;
 99/9=1/99;
 -------------------------------------
 Hydrogen peroxide solvated with m062x
 -------------------------------------
 Symbolic Z-matrix:
 Charge =  0 Multiplicity = 1
 O                    -0.65177  -0.0075    0. 
 H                    -0.97222  -0.0075   -0.90494 
 O                     0.66823  -0.0075    0. 
 H                     0.98823   0.8976    0. 
 

 GradGradGradGradGradGradGradGradGradGradGradGradGradGradGradGradGradGrad
 Berny optimization.
 Initialization pass.
                           ----------------------------
                           !    Initial Parameters    !
                           ! (Angstroms and Degrees)  !
 --------------------------                            --------------------------
 ! Name  Definition              Value          Derivative Info.                !
 --------------------------------------------------------------------------------
 ! R1    R(1,2)                  0.96           estimate D2E/DX2                !
 ! R2    R(1,3)                  1.32           estimate D2E/DX2                !
 ! R3    R(3,4)                  0.96           estimate D2E/DX2                !
 ! A1    A(2,1,3)              109.5            estimate D2E/DX2                !
 ! A2    A(1,3,4)              109.4712         estimate D2E/DX2                !
 ! D1    D(2,1,3,4)             90.0            estimate D2E/DX2                !
 --------------------------------------------------------------------------------
 Trust Radius=3.00D-01 FncErr=1.00D-07 GrdErr=1.00D-06
 Number of steps in this run=  20 maximum allowed number of steps= 100.
 GradGradGradGradGradGradGradGradGradGradGradGradGradGradGradGradGradGrad

                          Input orientation:                          
 ---------------------------------------------------------------------
 Center     Atomic      Atomic             Coordinates (Angstroms)
 Number     Number       Type             X           Y           Z
 ---------------------------------------------------------------------
      1          8           0       -0.651768   -0.007500    0.000000
      2          1           0       -0.972222   -0.007500   -0.904936
      3          8           0        0.668232   -0.007500    0.000000
      4          1           0        0.988232    0.897597    0.000000
 ---------------------------------------------------------------------
                    Distance matrix (angstroms):
                    1          2          3          4
     1  O    0.000000
     2  H    0.960000   0.000000
     3  O    1.320000   1.873499   0.000000
     4  H    1.873179   2.341258   0.960000   0.000000
 Stoichiometry    H2O2
 Framework group  C1[X(H2O2)]
 Deg. of freedom     6
 Full point group                 C1      NOp   1
 Largest Abelian subgroup         C1      NOp   1
 Largest concise Abelian subgroup C1      NOp   1
                         Standard orientation:                         
 ---------------------------------------------------------------------
 Center     Atomic      Atomic             Coordinates (Angstroms)
 Number     Number       Type             X           Y           Z
 ---------------------------------------------------------------------
      1          8           0        0.652496   -0.070957   -0.099179
      2          1           0        1.065386    0.567994    0.486367
      3          8           0       -0.652546   -0.071252    0.098973
      4          1           0       -1.064985    0.569682   -0.484720
 ---------------------------------------------------------------------
 Rotational constants (GHZ):    337.7108214     30.2677234     30.1654926
 Standard basis: 6-31+G(d,p) (6D, 7F)
 There are    48 symmetry adapted basis functions of A   symmetry.
 Integral buffers will be    262144 words long.
 Raffenetti 2 integral format.
 Two-electron integral symmetry is turned on.
    48 basis functions,    78 primitive gaussians,    48 cartesian basis functions
     9 alpha electrons        9 beta electrons
       nuclear repulsion energy        39.2223681676 Hartrees.
 NAtoms=    4 NActive=    4 NUniq=    4 SFac= 7.50D-01 NAtFMM=   80 NAOKFM=F Big=F
 ------------------------------------------------------------------------------
 Polarizable Continuum Model (PCM)
 =================================
 Model                : PCM.
 Atomic radii         : SMD-Coulomb.
 Polarization charges : Total charges.
 Charge compensation  : None.
 Solution method      : Matrix inversion.
 Cavity type          : VdW (van der Waals Surface) (Alpha=1.000).
 Cavity algorithm     : GePol (No added spheres)
                        Default sphere list used, NSphG=    4.
                        Lebedev-Laikov grids with approx.  5.0 points / Ang**2.
                        Smoothing algorithm: Karplus/York (Gamma=1.0000).
                        Polarization charges: spherical gaussians, with
                                              point-specific exponents (IZeta= 3).
                        Self-potential: point-specific (ISelfS= 7).
                        Self-field    : sphere-specific E.n sum rule (ISelfD= 2).
 1st derivatives      : Analytical E(r).r(x)/FMM algorithm (CHGder, D1EAlg=3).
                        Cavity 1st derivative terms included.
 Solvent              : Water, Eps=  78.355300 Eps(inf)=   1.777849
 ------------------------------------------------------------------------------
 Spheres list:
 ISph  on   Nord    Re0     Alpha      Xe            Ye            Ze
    1   O      1    1.520   1.000      0.652496     -0.070957     -0.099179
    2   H      2    1.200   1.000      1.065386      0.567994      0.486367
    3   O      3    1.520   1.000     -0.652546     -0.071252      0.098973
    4   H      4    1.200   1.000     -1.064985      0.569682     -0.484720
 ------------------------------------------------------------------------------
 ------------------------------------------------------------------------------
 Atomic radii for non-electrostatic terms: SMD-CDS.
 ------------------------------------------------------------------------------
 Nuclear repulsion after PCM non-electrostatic terms =       39.2245874105 Hartrees.
 One-electron integrals computed using PRISM.
 NBasis=    48 RedAO= T  NBF=    48
 NBsUse=    48 1.00D-06 NBFU=    48
 Harris functional with IExCor= 1009 diagonalized for initial guess.
 ExpMin= 8.45D-02 ExpMax= 5.48D+03 ExpMxC= 8.25D+02 IAcc=2 IRadAn=         0 AccDes= 0.00D+00
 HarFok:  IExCor= 1009 AccDes= 0.00D+00 IRadAn=         0 IDoV= 1
 ScaDFX=  1.000000  1.000000  1.000000  1.000000
 FoFCou: FMM=F IPFlag=           0 FMFlag=      100000 FMFlg1=           0
         NFxFlg=           0 DoJE=T BraDBF=F KetDBF=T FulRan=T
         Omega=  0.000000  0.000000  1.000000  0.000000  0.000000 ICntrl=     500 IOpCl=  0
         NMat0=    1 NMatS0=    1 NMatT0=    0 NMatD0=    1 NMtDS0=    0 NMtDT0=    0
         I1Cent=           4 NGrid=           0.
 Petite list used in FoFCou.
 Initial guess orbital symmetries:
       Occupied  (A) (A) (A) (A) (A) (A) (A) (A) (A)
       Virtual   (A) (A) (A) (A) (A) (A) (A) (A) (A) (A) (A) (A)
                 (A) (A) (A) (A) (A) (A) (A) (A) (A) (A) (A) (A)
                 (A) (A) (A) (A) (A) (A) (A) (A) (A) (A) (A) (A)
                 (A) (A) (A)
 The electronic state of the initial guess is 1-A.
 Requested convergence on RMS density matrix=1.00D-08 within 128 cycles.
 Requested convergence on MAX density matrix=1.00D-06.
 Requested convergence on             energy=1.00D-06.
 No special actions if energy rises.
 Keep R1 ints in memory in canonical form, NReq=3726578.
 Error on total polarization charges =  0.02856
 SCF Done:  E(RM062X) =  -151.496566953     A.U. after   11 cycles
             Convg  =    0.2220D-08             -V/T =  2.0068
 SMD-CDS (non-electrostatic) energy             (kcal/mol) =       1.39
 (included in total energy above)

 **********************************************************************

            Population analysis using the SCF density.

 **********************************************************************

 Orbital symmetries:
       Occupied  (A) (A) (A) (A) (A) (A) (A) (A) (A)
       Virtual   (A) (A) (A) (A) (A) (A) (A) (A) (A) (A) (A) (A)
                 (A) (A) (A) (A) (A) (A) (A) (A) (A) (A) (A) (A)
                 (A) (A) (A) (A) (A) (A) (A) (A) (A) (A) (A) (A)
                 (A) (A) (A)
 The electronic state is 1-A.
 Alpha  occ. eigenvalues --  -19.70207 -19.70182  -1.31067  -0.99909  -0.66912
 Alpha  occ. eigenvalues --   -0.58296  -0.53704  -0.37412  -0.36893
 Alpha virt. eigenvalues --    0.08412   0.09148   0.15109   0.15584   0.20392
 Alpha virt. eigenvalues --    0.21602   0.21894   0.25598   0.27282   0.33858
 Alpha virt. eigenvalues --    0.35249   1.00611   1.06787   1.07249   1.14746
 Alpha virt. eigenvalues --    1.14811   1.18259   1.23873   1.25746   1.27460
 Alpha virt. eigenvalues --    1.49722   1.52317   1.60712   1.65106   1.72872
 Alpha virt. eigenvalues --    2.16925   2.21810   2.27105   2.44485   2.57594
 Alpha virt. eigenvalues --    2.61185   2.77403   2.95949   2.97412   3.03563
 Alpha virt. eigenvalues --    3.40495   3.49886   3.89259   4.25176
          Condensed to atoms (all electrons):
              1          2          3          4
     1  O    8.171371   0.265711   0.018663  -0.027163
     2  H    0.265711   0.335329  -0.027121  -0.002468
     3  O    0.018663  -0.027121   8.171221   0.265741
     4  H   -0.027163  -0.002468   0.265741   0.335353
 Mulliken atomic charges:
              1
     1  O   -0.428582
     2  H    0.428550
     3  O   -0.428504
     4  H    0.428536
 Sum of Mulliken atomic charges =   0.00000
 Mulliken charges with hydrogens summed into heavy atoms:
              1
     1  O   -0.000032
     3  O    0.000032
 Sum of Mulliken charges with hydrogens summed into heavy atoms =   0.00000
 Electronic spatial extent (au):  <R**2>=             61.5686
 Charge=              0.0000 electrons
 Dipole moment (field-independent basis, Debye):
    X=              0.0007    Y=              3.0650    Z=              0.0047  Tot=              3.0650
 Quadrupole moment (field-independent basis, Debye-Ang):
   XX=             -9.8773   YY=            -11.1345   ZZ=            -11.6623
   XY=             -0.0045   XZ=              3.1352   YZ=              0.0003
 Traceless Quadrupole moment (field-independent basis, Debye-Ang):
   XX=              1.0141   YY=             -0.2431   ZZ=             -0.7710
   XY=             -0.0045   XZ=              3.1352   YZ=              0.0003
 Octapole moment (field-independent basis, Debye-Ang**2):
  XXX=              0.0036  YYY=              2.6724  ZZZ=              0.0051  XYY=             -0.0054
  XXY=              4.2463  XXZ=              0.0073  XZZ=              0.0050  YZZ=              1.1418
  YYZ=              0.0003  XYZ=              1.6374
 Hexadecapole moment (field-independent basis, Debye-Ang**3):
 XXXX=            -37.5741 YYYY=            -11.3605 ZZZZ=            -11.8688 XXXY=             -0.0055
 XXXZ=              4.6732 YYYX=             -0.0068 YYYZ=             -0.0014 ZZZX=              2.6943
 ZZZY=              0.0017 XXYY=             -8.3633 XXZZ=             -8.8567 YYZZ=             -3.5468
 XXYZ=              0.0009 YYXZ=              1.4587 ZZXY=              0.0003
 N-N= 3.922458741053D+01 E-N=-4.363375691266D+02  KE= 1.504704691686D+02
 D1PCM: PCM CHGder 1st derivatives, ID1Alg=3 FixD1E=F DoIter=F DoCFld=F I1PDM=0.
 Calling FoFJK, ICntrl=      2127 FMM=F ISym2X=0 I1Cent= 0 IOpClX= 0 NMat=1 NMatS=1 NMatT=0.
 ***** Axes restored to original set *****
 -------------------------------------------------------------------
 Center     Atomic                   Forces (Hartrees/Bohr)
 Number     Number              X              Y              Z
 -------------------------------------------------------------------
      1        8          -0.082571103    0.005730446    0.019210096
      2        1           0.004062239    0.000116398   -0.013318573
      3        8           0.082518843   -0.019135036   -0.005773560
      4        1          -0.004009978    0.013288192   -0.000117963
 -------------------------------------------------------------------
 Cartesian Forces:  Max     0.082571103 RMS     0.035136953

 GradGradGradGradGradGradGradGradGradGradGradGradGradGradGradGradGradGrad
 Berny optimization.
 Internal  Forces:  Max     0.078540938 RMS     0.033815904
 Search for a local minimum.
 Step number   1 out of a maximum of   20
 All quantities printed in internal units (Hartrees-Bohrs-Radians)
 Mixed Optimization -- RFO/linear search
 Second derivative matrix not updated -- first step.
 The second derivative matrix:
                          R1        R2        R3        A1        A2
           R1           0.55473
           R2           0.00000   0.61931
           R3           0.00000   0.00000   0.55473
           A1           0.00000   0.00000   0.00000   0.16000
           A2           0.00000   0.00000   0.00000   0.00000   0.16000
           D1           0.00000   0.00000   0.00000   0.00000   0.00000
                          D1
           D1           0.02353
     Eigenvalues ---    0.02353   0.16000   0.16000   0.55473   0.55473
     Eigenvalues ---    0.61931
 RFO step:  Lambda=-1.27634907D-02 EMin= 2.35305152D-02
 Linear search not attempted -- first point.
 Iteration  1 RMS(Cart)=  0.05348001 RMS(Int)=  0.00286733
 Iteration  2 RMS(Cart)=  0.00299288 RMS(Int)=  0.00000317
 Iteration  3 RMS(Cart)=  0.00000271 RMS(Int)=  0.00000000
 Iteration  4 RMS(Cart)=  0.00000000 RMS(Int)=  0.00000000
 Variable       Old X    -DE/DX   Delta X   Delta X   Delta X     New X
                                 (Linear)    (Quad)   (Total)
    R1        1.81414   0.01118   0.00000   0.01969   0.01969   1.83383
    R2        2.49444   0.07854   0.00000   0.12426   0.12426   2.61870
    R3        1.81414   0.01117   0.00000   0.01968   0.01968   1.83382
    A1        1.91114  -0.01493   0.00000  -0.08645  -0.08645   1.82469
    A2        1.91063  -0.01482   0.00000  -0.08578  -0.08578   1.82485
    D1        1.57080  -0.00026   0.00000  -0.00716  -0.00716   1.56364
         Item               Value     Threshold  Converged?
 Maximum Force            0.078541     0.000450     NO 
 RMS     Force            0.033816     0.000300     NO 
 Maximum Displacement     0.061831     0.001800     NO 
 RMS     Displacement     0.054089     0.001200     NO 
 Predicted change in Energy=-6.580204D-03
 GradGradGradGradGradGradGradGradGradGradGradGradGradGradGradGradGradGrad

                          Input orientation:                          
 ---------------------------------------------------------------------
 Center     Atomic      Atomic             Coordinates (Angstroms)
 Number     Number       Type             X           Y           Z
 ---------------------------------------------------------------------
      1          8           0       -0.684487   -0.003568    0.022894
      2          1           0       -0.946357    0.004764   -0.911489
      3          8           0        0.700748   -0.030245   -0.004079
      4          1           0        0.962572    0.904147   -0.012262
 ---------------------------------------------------------------------
                    Distance matrix (angstroms):
                    1          2          3          4
     1  O    0.000000
     2  H    0.970422   0.000000
     3  O    1.385755   1.880844   0.000000
     4  H    1.880953   2.293798   0.970416   0.000000
 Stoichiometry    H2O2
 Framework group  C1[X(H2O2)]
 Deg. of freedom     6
 Full point group                 C1      NOp   1
 Largest Abelian subgroup         C1      NOp   1
 Largest concise Abelian subgroup C1      NOp   1
                         Standard orientation:                         
 ---------------------------------------------------------------------
 Center     Atomic      Atomic             Coordinates (Angstroms)
 Number     Number       Type             X           Y           Z
 ---------------------------------------------------------------------
      1          8           0       -0.686012   -0.074110    0.097319
      2          1           0       -1.020325    0.592796   -0.523318
      3          8           0        0.685995   -0.074013   -0.097393
      4          1           0        1.020463    0.592183    0.523912
 ---------------------------------------------------------------------
 Rotational constants (GHZ):    310.1059759     28.0626003     27.9768419
 Standard basis: 6-31+G(d,p) (6D, 7F)
 There are    48 symmetry adapted basis functions of A   symmetry.
 Integral buffers will be    262144 words long.
 Raffenetti 2 integral format.
 Two-electron integral symmetry is turned on.
    48 basis functions,    78 primitive gaussians,    48 cartesian basis functions
     9 alpha electrons        9 beta electrons
       nuclear repulsion energy        37.8967501875 Hartrees.
 NAtoms=    4 NActive=    4 NUniq=    4 SFac= 7.50D-01 NAtFMM=   80 NAOKFM=F Big=F
 ------------------------------------------------------------------------------
 Polarizable Continuum Model (PCM)
 =================================
 Model                : PCM.
 Atomic radii         : SMD-Coulomb.
 Polarization charges : Total charges.
 Charge compensation  : None.
 Solution method      : Matrix inversion.
 Cavity type          : VdW (van der Waals Surface) (Alpha=1.000).
 Cavity algorithm     : GePol (No added spheres)
                        Default sphere list used, NSphG=    4.
                        Lebedev-Laikov grids with approx.  5.0 points / Ang**2.
                        Smoothing algorithm: Karplus/York (Gamma=1.0000).
                        Polarization charges: spherical gaussians, with
                                              point-specific exponents (IZeta= 3).
                        Self-potential: point-specific (ISelfS= 7).
                        Self-field    : sphere-specific E.n sum rule (ISelfD= 2).
 1st derivatives      : Analytical E(r).r(x)/FMM algorithm (CHGder, D1EAlg=3).
                        Cavity 1st derivative terms included.
 Solvent              : Water, Eps=  78.355300 Eps(inf)=   1.777849
 ------------------------------------------------------------------------------
 Spheres list:
 ISph  on   Nord    Re0     Alpha      Xe            Ye            Ze
    1   O      1    1.520   1.000     -0.686012     -0.074110      0.097319
    2   H      2    1.200   1.000     -1.020325      0.592796     -0.523318
    3   O      3    1.520   1.000      0.685995     -0.074013     -0.097393
    4   H      4    1.200   1.000      1.020463      0.592183      0.523912
 ------------------------------------------------------------------------------
 ------------------------------------------------------------------------------
 Atomic radii for non-electrostatic terms: SMD-CDS.
 ------------------------------------------------------------------------------
 Nuclear repulsion after PCM non-electrostatic terms =       37.8989412824 Hartrees.
 One-electron integrals computed using PRISM.
 NBasis=    48 RedAO= T  NBF=    48
 NBsUse=    48 1.00D-06 NBFU=    48
 Initial guess read from the read-write file.
 B after Tr=     0.000000    0.000000    0.000000
         Rot=    1.000000    0.000000    0.000000    0.000000 Ang=   0.00 deg.
 Initial guess orbital symmetries:
       Occupied  (A) (A) (A) (A) (A) (A) (A) (A) (A)
       Virtual   (A) (A) (A) (A) (A) (A) (A) (A) (A) (A) (A) (A)
                 (A) (A) (A) (A) (A) (A) (A) (A) (A) (A) (A) (A)
                 (A) (A) (A) (A) (A) (A) (A) (A) (A) (A) (A) (A)
                 (A) (A) (A)
 Harris functional with IExCor= 1009 diagonalized for initial guess.
 ExpMin= 8.45D-02 ExpMax= 5.48D+03 ExpMxC= 8.25D+02 IAcc=2 IRadAn=         0 AccDes= 0.00D+00
 HarFok:  IExCor= 1009 AccDes= 0.00D+00 IRadAn=         0 IDoV= 1
 ScaDFX=  1.000000  1.000000  1.000000  1.000000
 FoFCou: FMM=F IPFlag=           0 FMFlag=      100000 FMFlg1=           0
         NFxFlg=           0 DoJE=T BraDBF=F KetDBF=T FulRan=T
         Omega=  0.000000  0.000000  1.000000  0.000000  0.000000 ICntrl=     500 IOpCl=  0
         NMat0=    1 NMatS0=    1 NMatT0=    0 NMatD0=    1 NMtDS0=    0 NMtDT0=    0
         I1Cent=           4 NGrid=           0.
 Petite list used in FoFCou.
 Requested convergence on RMS density matrix=1.00D-08 within 128 cycles.
 Requested convergence on MAX density matrix=1.00D-06.
 Requested convergence on             energy=1.00D-06.
 No special actions if energy rises.
 Keep R1 ints in memory in canonical form, NReq=3730165.
 Error on total polarization charges =  0.02840
 SCF Done:  E(RM062X) =  -151.504428419     A.U. after   12 cycles
             Convg  =    0.2463D-08             -V/T =  2.0080
 SMD-CDS (non-electrostatic) energy             (kcal/mol) =       1.37
 (included in total energy above)
 D1PCM: PCM CHGder 1st derivatives, ID1Alg=3 FixD1E=F DoIter=F DoCFld=F I1PDM=0.
 Calling FoFJK, ICntrl=      2127 FMM=F ISym2X=0 I1Cent= 0 IOpClX= 0 NMat=1 NMatS=1 NMatT=0.
 ***** Axes restored to original set *****
 -------------------------------------------------------------------
 Center     Atomic                   Forces (Hartrees/Bohr)
 Number     Number              X              Y              Z
 -------------------------------------------------------------------
      1        8          -0.025692299    0.001601023    0.002179552
      2        1           0.000838607   -0.000365898   -0.000952490
      3        8           0.025710453   -0.002198547   -0.001594729
      4        1          -0.000856761    0.000963421    0.000367667
 -------------------------------------------------------------------
 Cartesian Forces:  Max     0.025710453 RMS     0.010564697

 GradGradGradGradGradGradGradGradGradGradGradGradGradGradGradGradGradGrad
 Berny optimization.
 Using GEDIIS/GDIIS optimizer.
 Internal  Forces:  Max     0.024916355 RMS     0.010242967
 Search for a local minimum.
 Step number   2 out of a maximum of   20
 All quantities printed in internal units (Hartrees-Bohrs-Radians)
 Mixed Optimization -- RFO/linear search
 Update second derivatives using D2CorX and points    1    2
 DE= -7.86D-03 DEPred=-6.58D-03 R= 1.19D+00
 SS=  1.41D+00  RLast= 1.76D-01 DXNew= 5.0454D-01 5.2904D-01
 Trust test= 1.19D+00 RLast= 1.76D-01 DXMaxT set to 5.05D-01
 The second derivative matrix:
                          R1        R2        R3        A1        A2
           R1           0.55693
           R2          -0.00749   0.44921
           R3           0.00219  -0.00752   0.55692
           A1          -0.00247   0.01107  -0.00246   0.16275
           A2          -0.00240   0.01128  -0.00239   0.00265   0.16256
           D1          -0.00080  -0.00381  -0.00080   0.00099   0.00098
                          D1
           D1           0.02360
 Use linear search instead of GDIIS.
     Eigenvalues ---    0.02355   0.16000   0.16440   0.44905   0.55473
     Eigenvalues ---    0.56024
 RFO step:  Lambda=-1.20340796D-04 EMin= 2.35512593D-02
 Quartic linear search produced a step of  0.47587.
 Iteration  1 RMS(Cart)=  0.02249546 RMS(Int)=  0.00052661
 Iteration  2 RMS(Cart)=  0.00045238 RMS(Int)=  0.00000014
 Iteration  3 RMS(Cart)=  0.00000010 RMS(Int)=  0.00000000
 Variable       Old X    -DE/DX   Delta X   Delta X   Delta X     New X
                                 (Linear)    (Quad)   (Total)
    R1        1.83383   0.00067   0.00937  -0.00642   0.00295   1.83679
    R2        2.61870   0.02492   0.05913   0.00703   0.06616   2.68486
    R3        1.83382   0.00068   0.00937  -0.00640   0.00297   1.83679
    A1        1.82469  -0.00191  -0.04114   0.00858  -0.03256   1.79213
    A2        1.82485  -0.00195  -0.04082   0.00804  -0.03278   1.79207
    D1        1.56364   0.00058  -0.00341   0.03203   0.02862   1.59226
         Item               Value     Threshold  Converged?
 Maximum Force            0.024916     0.000450     NO 
 RMS     Force            0.010243     0.000300     NO 
 Maximum Displacement     0.032545     0.001800     NO 
 RMS     Displacement     0.022557     0.001200     NO 
 Predicted change in Energy=-6.805681D-04
 GradGradGradGradGradGradGradGradGradGradGradGradGradGradGradGradGradGrad

                          Input orientation:                          
 ---------------------------------------------------------------------
 Center     Atomic      Atomic             Coordinates (Angstroms)
 Number     Number       Type             X           Y           Z
 ---------------------------------------------------------------------
      1          8           0       -0.701638    0.004463    0.028585
      2          1           0       -0.942267    0.000821   -0.913136
      3          8           0        0.717970   -0.035979   -0.012069
      4          1           0        0.958410    0.905792   -0.008316
 ---------------------------------------------------------------------
                    Distance matrix (angstroms):
                    1          2          3          4
     1  O    0.000000
     2  H    0.971985   0.000000
     3  O    1.420766   1.889356   0.000000
     4  H    1.889316   2.291342   0.971987   0.000000
 Stoichiometry    H2O2
 Framework group  C1[X(H2O2)]
 Deg. of freedom     6
 Full point group                 C1      NOp   1
 Largest Abelian subgroup         C1      NOp   1
 Largest concise Abelian subgroup C1      NOp   1
                         Standard orientation:                         
 ---------------------------------------------------------------------
 Center     Atomic      Atomic             Coordinates (Angstroms)
 Number     Number       Type             X           Y           Z
 ---------------------------------------------------------------------
      1          8           0        0.703657   -0.073662   -0.097530
      2          1           0        1.008035    0.589369    0.544731
      3          8           0       -0.703663   -0.073739    0.097471
      4          1           0       -1.007986    0.589832   -0.544261
 ---------------------------------------------------------------------
 Rotational constants (GHZ):    303.2591391     26.8973987     26.8945091
 Standard basis: 6-31+G(d,p) (6D, 7F)
 There are    48 symmetry adapted basis functions of A   symmetry.
 Integral buffers will be    262144 words long.
 Raffenetti 2 integral format.
 Two-electron integral symmetry is turned on.
    48 basis functions,    78 primitive gaussians,    48 cartesian basis functions
     9 alpha electrons        9 beta electrons
       nuclear repulsion energy        37.2605721296 Hartrees.
 NAtoms=    4 NActive=    4 NUniq=    4 SFac= 7.50D-01 NAtFMM=   80 NAOKFM=F Big=F
 ------------------------------------------------------------------------------
 Polarizable Continuum Model (PCM)
 =================================
 Model                : PCM.
 Atomic radii         : SMD-Coulomb.
 Polarization charges : Total charges.
 Charge compensation  : None.
 Solution method      : Matrix inversion.
 Cavity type          : VdW (van der Waals Surface) (Alpha=1.000).
 Cavity algorithm     : GePol (No added spheres)
                        Default sphere list used, NSphG=    4.
                        Lebedev-Laikov grids with approx.  5.0 points / Ang**2.
                        Smoothing algorithm: Karplus/York (Gamma=1.0000).
                        Polarization charges: spherical gaussians, with
                                              point-specific exponents (IZeta= 3).
                        Self-potential: point-specific (ISelfS= 7).
                        Self-field    : sphere-specific E.n sum rule (ISelfD= 2).
 1st derivatives      : Analytical E(r).r(x)/FMM algorithm (CHGder, D1EAlg=3).
                        Cavity 1st derivative terms included.
 Solvent              : Water, Eps=  78.355300 Eps(inf)=   1.777849
 ------------------------------------------------------------------------------
 Spheres list:
 ISph  on   Nord    Re0     Alpha      Xe            Ye            Ze
    1   O      1    1.520   1.000      0.703657     -0.073662     -0.097530
    2   H      2    1.200   1.000      1.008035      0.589369      0.544731
    3   O      3    1.520   1.000     -0.703663     -0.073739      0.097471
    4   H      4    1.200   1.000     -1.007986      0.589832     -0.544261
 ------------------------------------------------------------------------------
 ------------------------------------------------------------------------------
 Atomic radii for non-electrostatic terms: SMD-CDS.
 ------------------------------------------------------------------------------
 Nuclear repulsion after PCM non-electrostatic terms =       37.2627483684 Hartrees.
 One-electron integrals computed using PRISM.
 NBasis=    48 RedAO= T  NBF=    48
 NBsUse=    48 1.00D-06 NBFU=    48
 Initial guess read from the read-write file.
 B after Tr=     0.000000    0.000000    0.000000
         Rot=    1.000000    0.000000    0.000000    0.000000 Ang=   0.00 deg.
 Initial guess orbital symmetries:
       Occupied  (A) (A) (A) (A) (A) (A) (A) (A) (A)
       Virtual   (A) (A) (A) (A) (A) (A) (A) (A) (A) (A) (A) (A)
                 (A) (A) (A) (A) (A) (A) (A) (A) (A) (A) (A) (A)
                 (A) (A) (A) (A) (A) (A) (A) (A) (A) (A) (A) (A)
                 (A) (A) (A)
 Harris functional with IExCor= 1009 diagonalized for initial guess.
 ExpMin= 8.45D-02 ExpMax= 5.48D+03 ExpMxC= 8.25D+02 IAcc=2 IRadAn=         0 AccDes= 0.00D+00
 HarFok:  IExCor= 1009 AccDes= 0.00D+00 IRadAn=         0 IDoV= 1
 ScaDFX=  1.000000  1.000000  1.000000  1.000000
 FoFCou: FMM=F IPFlag=           0 FMFlag=      100000 FMFlg1=           0
         NFxFlg=           0 DoJE=T BraDBF=F KetDBF=T FulRan=T
         Omega=  0.000000  0.000000  1.000000  0.000000  0.000000 ICntrl=     500 IOpCl=  0
         NMat0=    1 NMatS0=    1 NMatT0=    0 NMatD0=    1 NMtDS0=    0 NMtDT0=    0
         I1Cent=           4 NGrid=           0.
 Petite list used in FoFCou.
 Requested convergence on RMS density matrix=1.00D-08 within 128 cycles.
 Requested convergence on MAX density matrix=1.00D-06.
 Requested convergence on             energy=1.00D-06.
 No special actions if energy rises.
 Keep R1 ints in memory in canonical form, NReq=3736425.
 Error on total polarization charges =  0.02833
 SCF Done:  E(RM062X) =  -151.505352257     A.U. after   12 cycles
             Convg  =    0.2659D-08             -V/T =  2.0084
 SMD-CDS (non-electrostatic) energy             (kcal/mol) =       1.37
 (included in total energy above)
 D1PCM: PCM CHGder 1st derivatives, ID1Alg=3 FixD1E=F DoIter=F DoCFld=F I1PDM=0.
 Calling FoFJK, ICntrl=      2127 FMM=F ISym2X=0 I1Cent= 0 IOpClX= 0 NMat=1 NMatS=1 NMatT=0.
 ***** Axes restored to original set *****
 -------------------------------------------------------------------
 Center     Atomic                   Forces (Hartrees/Bohr)
 Number     Number              X              Y              Z
 -------------------------------------------------------------------
      1        8          -0.001920895    0.000037291   -0.001112142
      2        1          -0.000336600   -0.000356862    0.000797170
      3        8           0.001913238    0.001120091   -0.000040699
      4        1           0.000344257   -0.000800521    0.000355671
 -------------------------------------------------------------------
 Cartesian Forces:  Max     0.001920895 RMS     0.000983481

 GradGradGradGradGradGradGradGradGradGradGradGradGradGradGradGradGradGrad
 Berny optimization.
 Using GEDIIS/GDIIS optimizer.
 Internal  Forces:  Max     0.002267510 RMS     0.001196675
 Search for a local minimum.
 Step number   3 out of a maximum of   20
 All quantities printed in internal units (Hartrees-Bohrs-Radians)
 Mixed Optimization -- RFO/linear search
 Update second derivatives using D2CorX and points    1    2    3
 DE= -9.24D-04 DEPred=-6.81D-04 R= 1.36D+00
 SS=  1.41D+00  RLast= 8.57D-02 DXNew= 8.4853D-01 2.5717D-01
 Trust test= 1.36D+00 RLast= 8.57D-02 DXMaxT set to 5.05D-01
 The second derivative matrix:
                          R1        R2        R3        A1        A2
           R1           0.55790
           R2          -0.00571   0.37811
           R3           0.00316  -0.00572   0.55789
           A1          -0.00210   0.03196  -0.00209   0.15792
           A2          -0.00206   0.03171  -0.00205  -0.00211   0.15786
           D1          -0.00125  -0.00885  -0.00125   0.00183   0.00182
                          D1
           D1           0.02361
 Use linear search instead of GDIIS.
     Eigenvalues ---    0.02327   0.14713   0.16000   0.38663   0.55473
     Eigenvalues ---    0.56151
 RFO step:  Lambda=-3.72865576D-05 EMin= 2.32745332D-02
 Quartic linear search produced a step of  0.06249.
 Iteration  1 RMS(Cart)=  0.01386308 RMS(Int)=  0.00012565
 Iteration  2 RMS(Cart)=  0.00008872 RMS(Int)=  0.00000000
 Iteration  3 RMS(Cart)=  0.00000000 RMS(Int)=  0.00000000
 Variable       Old X    -DE/DX   Delta X   Delta X   Delta X     New X
                                 (Linear)    (Quad)   (Total)
    R1        1.83679  -0.00071   0.00018  -0.00128  -0.00110   1.83569
    R2        2.68486   0.00227   0.00413   0.00194   0.00607   2.69093
    R3        1.83679  -0.00071   0.00019  -0.00128  -0.00110   1.83569
    A1        1.79213   0.00101  -0.00203   0.00663   0.00460   1.79673
    A2        1.79207   0.00102  -0.00205   0.00674   0.00470   1.79677
    D1        1.59226   0.00062   0.00179   0.02733   0.02912   1.62138
         Item               Value     Threshold  Converged?
 Maximum Force            0.002268     0.000450     NO 
 RMS     Force            0.001197     0.000300     NO 
 Maximum Displacement     0.015654     0.001800     NO 
 RMS     Displacement     0.013853     0.001200     NO 
 Predicted change in Energy=-2.086675D-05
 GradGradGradGradGradGradGradGradGradGradGradGradGradGradGradGradGradGrad

                          Input orientation:                          
 ---------------------------------------------------------------------
 Center     Atomic      Atomic             Coordinates (Angstroms)
 Number     Number       Type             X           Y           Z
 ---------------------------------------------------------------------
      1          8           0       -0.703199    0.009444    0.025797
      2          1           0       -0.949817   -0.007463   -0.913629
      3          8           0        0.719497   -0.033170   -0.017069
      4          1           0        0.965994    0.906286   -0.000034
 ---------------------------------------------------------------------
                    Distance matrix (angstroms):
                    1          2          3          4
     1  O    0.000000
     2  H    0.971404   0.000000
     3  O    1.423979   1.895017   0.000000
     4  H    1.895046   2.310828   0.971405   0.000000
 Stoichiometry    H2O2
 Framework group  C1[X(H2O2)]
 Deg. of freedom     6
 Full point group                 C1      NOp   1
 Largest Abelian subgroup         C1      NOp   1
 Largest concise Abelian subgroup C1      NOp   1
                         Standard orientation:                         
 ---------------------------------------------------------------------
 Center     Atomic      Atomic             Coordinates (Angstroms)
 Number     Number       Type             X           Y           Z
 ---------------------------------------------------------------------
      1          8           0       -0.705063   -0.099209   -0.072314
      2          1           0       -1.016048    0.551029    0.578919
      3          8           0        0.705058    0.098973   -0.072638
      4          1           0        1.016083   -0.549136    0.580696
 ---------------------------------------------------------------------
 Rotational constants (GHZ):    304.6121037     26.7936554     26.7291208
 Standard basis: 6-31+G(d,p) (6D, 7F)
 There are    48 symmetry adapted basis functions of A   symmetry.
 Integral buffers will be    262144 words long.
 Raffenetti 2 integral format.
 Two-electron integral symmetry is turned on.
    48 basis functions,    78 primitive gaussians,    48 cartesian basis functions
     9 alpha electrons        9 beta electrons
       nuclear repulsion energy        37.1965810367 Hartrees.
 NAtoms=    4 NActive=    4 NUniq=    4 SFac= 7.50D-01 NAtFMM=   80 NAOKFM=F Big=F
 ------------------------------------------------------------------------------
 Polarizable Continuum Model (PCM)
 =================================
 Model                : PCM.
 Atomic radii         : SMD-Coulomb.
 Polarization charges : Total charges.
 Charge compensation  : None.
 Solution method      : Matrix inversion.
 Cavity type          : VdW (van der Waals Surface) (Alpha=1.000).
 Cavity algorithm     : GePol (No added spheres)
                        Default sphere list used, NSphG=    4.
                        Lebedev-Laikov grids with approx.  5.0 points / Ang**2.
                        Smoothing algorithm: Karplus/York (Gamma=1.0000).
                        Polarization charges: spherical gaussians, with
                                              point-specific exponents (IZeta= 3).
                        Self-potential: point-specific (ISelfS= 7).
                        Self-field    : sphere-specific E.n sum rule (ISelfD= 2).
 1st derivatives      : Analytical E(r).r(x)/FMM algorithm (CHGder, D1EAlg=3).
                        Cavity 1st derivative terms included.
 Solvent              : Water, Eps=  78.355300 Eps(inf)=   1.777849
 ------------------------------------------------------------------------------
 Spheres list:
 ISph  on   Nord    Re0     Alpha      Xe            Ye            Ze
    1   O      1    1.520   1.000     -0.705063     -0.099209     -0.072314
    2   H      2    1.200   1.000     -1.016048      0.551029      0.578919
    3   O      3    1.520   1.000      0.705058      0.098973     -0.072638
    4   H      4    1.200   1.000      1.016083     -0.549136      0.580696
 ------------------------------------------------------------------------------
 ------------------------------------------------------------------------------
 Atomic radii for non-electrostatic terms: SMD-CDS.
 ------------------------------------------------------------------------------
 Nuclear repulsion after PCM non-electrostatic terms =       37.1987604168 Hartrees.
 One-electron integrals computed using PRISM.
 NBasis=    48 RedAO= T  NBF=    48
 NBsUse=    48 1.00D-06 NBFU=    48
 Initial guess read from the read-write file.
 B after Tr=     0.000000    0.000000    0.000000
         Rot=    1.000000    0.000000    0.000000    0.000000 Ang=   0.00 deg.
 Initial guess orbital symmetries:
       Occupied  (A) (A) (A) (A) (A) (A) (A) (A) (A)
       Virtual   (A) (A) (A) (A) (A) (A) (A) (A) (A) (A) (A) (A)
                 (A) (A) (A) (A) (A) (A) (A) (A) (A) (A) (A) (A)
                 (A) (A) (A) (A) (A) (A) (A) (A) (A) (A) (A) (A)
                 (A) (A) (A)
 Requested convergence on RMS density matrix=1.00D-08 within 128 cycles.
 Requested convergence on MAX density matrix=1.00D-06.
 Requested convergence on             energy=1.00D-06.
 No special actions if energy rises.
 Keep R1 ints in memory in canonical form, NReq=3736425.
 Error on total polarization charges =  0.02835
 SCF Done:  E(RM062X) =  -151.505372821     A.U. after   12 cycles
             Convg  =    0.6574D-08             -V/T =  2.0084
 SMD-CDS (non-electrostatic) energy             (kcal/mol) =       1.37
 (included in total energy above)
 D1PCM: PCM CHGder 1st derivatives, ID1Alg=3 FixD1E=F DoIter=F DoCFld=F I1PDM=0.
 Calling FoFJK, ICntrl=      2127 FMM=F ISym2X=0 I1Cent= 0 IOpClX= 0 NMat=1 NMatS=1 NMatT=0.
 ***** Axes restored to original set *****
 -------------------------------------------------------------------
 Center     Atomic                   Forces (Hartrees/Bohr)
 Number     Number              X              Y              Z
 -------------------------------------------------------------------
      1        8           0.000337118    0.000452250    0.000225055
      2        1           0.000428572   -0.000224049   -0.000000583
      3        8          -0.000335005   -0.000230692   -0.000442055
      4        1          -0.000430686    0.000002490    0.000217583
 -------------------------------------------------------------------
 Cartesian Forces:  Max     0.000452250 RMS     0.000315753

 GradGradGradGradGradGradGradGradGradGradGradGradGradGradGradGradGradGrad
 Berny optimization.
 Using GEDIIS/GDIIS optimizer.
 Internal  Forces:  Max     0.000722178 RMS     0.000528328
 Search for a local minimum.
 Step number   4 out of a maximum of   20
 All quantities printed in internal units (Hartrees-Bohrs-Radians)
 Mixed Optimization -- En-DIIS/RFO-DIIS
 Update second derivatives using D2CorX and points    1    2    3    4
 DE= -2.06D-05 DEPred=-2.09D-05 R= 9.85D-01
 SS=  1.41D+00  RLast= 3.05D-02 DXNew= 8.4853D-01 9.1496D-02
 Trust test= 9.85D-01 RLast= 3.05D-02 DXMaxT set to 5.05D-01
 The second derivative matrix:
                          R1        R2        R3        A1        A2
           R1           0.55372
           R2          -0.00594   0.46691
           R3          -0.00100  -0.00607   0.55374
           A1          -0.00860   0.10081  -0.00866   0.19981
           A2          -0.00862   0.10143  -0.00868   0.04028   0.20077
           D1           0.00477  -0.02742   0.00476  -0.00078  -0.00083
                          D1
           D1           0.01653
 Use linear search instead of GDIIS.
     Eigenvalues ---    0.01447   0.16000   0.17179   0.52788   0.55473
     Eigenvalues ---    0.56261
 RFO step:  Lambda=-1.10256685D-05 EMin= 1.44660653D-02
 Quartic linear search produced a step of -0.03071.
 Iteration  1 RMS(Cart)=  0.00729233 RMS(Int)=  0.00005793
 Iteration  2 RMS(Cart)=  0.00004216 RMS(Int)=  0.00000000
 Iteration  3 RMS(Cart)=  0.00000000 RMS(Int)=  0.00000000
 Variable       Old X    -DE/DX   Delta X   Delta X   Delta X     New X
                                 (Linear)    (Quad)   (Total)
    R1        1.83569  -0.00013   0.00003  -0.00054  -0.00051   1.83518
    R2        2.69093  -0.00072  -0.00019   0.00137   0.00118   2.69211
    R3        1.83569  -0.00012   0.00003  -0.00054  -0.00050   1.83519
    A1        1.79673  -0.00071  -0.00014  -0.00327  -0.00341   1.79332
    A2        1.79677  -0.00072  -0.00014  -0.00330  -0.00344   1.79333
    D1        1.62138   0.00032  -0.00089   0.02230   0.02141   1.64278
         Item               Value     Threshold  Converged?
 Maximum Force            0.000722     0.000450     NO 
 RMS     Force            0.000528     0.000300     NO 
 Maximum Displacement     0.009290     0.001800     NO 
 RMS     Displacement     0.007304     0.001200     NO 
 Predicted change in Energy=-5.554182D-06
 GradGradGradGradGradGradGradGradGradGradGradGradGradGradGradGradGradGrad

                          Input orientation:                          
 ---------------------------------------------------------------------
 Center     Atomic      Atomic             Coordinates (Angstroms)
 Number     Number       Type             X           Y           Z
 ---------------------------------------------------------------------
      1          8           0       -0.703353    0.014360    0.025718
      2          1           0       -0.950262   -0.011959   -0.913137
      3          8           0        0.719661   -0.033097   -0.021979
      4          1           0        0.966428    0.905794    0.004462
 ---------------------------------------------------------------------
                    Distance matrix (angstroms):
                    1          2          3          4
     1  O    0.000000
     2  H    0.971136   0.000000
     3  O    1.424604   1.892948   0.000000
     4  H    1.892954   2.314726   0.971138   0.000000
 Stoichiometry    H2O2
 Framework group  C1[X(H2O2)]
 Deg. of freedom     6
 Full point group                 C1      NOp   1
 Largest Abelian subgroup         C1      NOp   1
 Largest concise Abelian subgroup C1      NOp   1
                         Standard orientation:                         
 ---------------------------------------------------------------------
 Center     Atomic      Atomic             Coordinates (Angstroms)
 Number     Number       Type             X           Y           Z
 ---------------------------------------------------------------------
      1          8           0       -0.705237   -0.100080   -0.071690
      2          1           0       -1.014861    0.556372    0.573530
      3          8           0        0.705236    0.100078   -0.071694
      4          1           0        1.014868   -0.556354    0.573546
 ---------------------------------------------------------------------
 Rotational constants (GHZ):    304.3548704     26.8118367     26.6961898
 Standard basis: 6-31+G(d,p) (6D, 7F)
 There are    48 symmetry adapted basis functions of A   symmetry.
 Integral buffers will be    262144 words long.
 Raffenetti 2 integral format.
 Two-electron integral symmetry is turned on.
    48 basis functions,    78 primitive gaussians,    48 cartesian basis functions
     9 alpha electrons        9 beta electrons
       nuclear repulsion energy        37.1930719458 Hartrees.
 NAtoms=    4 NActive=    4 NUniq=    4 SFac= 7.50D-01 NAtFMM=   80 NAOKFM=F Big=F
 ------------------------------------------------------------------------------
 Polarizable Continuum Model (PCM)
 =================================
 Model                : PCM.
 Atomic radii         : SMD-Coulomb.
 Polarization charges : Total charges.
 Charge compensation  : None.
 Solution method      : Matrix inversion.
 Cavity type          : VdW (van der Waals Surface) (Alpha=1.000).
 Cavity algorithm     : GePol (No added spheres)
                        Default sphere list used, NSphG=    4.
                        Lebedev-Laikov grids with approx.  5.0 points / Ang**2.
                        Smoothing algorithm: Karplus/York (Gamma=1.0000).
                        Polarization charges: spherical gaussians, with
                                              point-specific exponents (IZeta= 3).
                        Self-potential: point-specific (ISelfS= 7).
                        Self-field    : sphere-specific E.n sum rule (ISelfD= 2).
 1st derivatives      : Analytical E(r).r(x)/FMM algorithm (CHGder, D1EAlg=3).
                        Cavity 1st derivative terms included.
 Solvent              : Water, Eps=  78.355300 Eps(inf)=   1.777849
 ------------------------------------------------------------------------------
 Spheres list:
 ISph  on   Nord    Re0     Alpha      Xe            Ye            Ze
    1   O      1    1.520   1.000     -0.705237     -0.100080     -0.071690
    2   H      2    1.200   1.000     -1.014861      0.556372      0.573530
    3   O      3    1.520   1.000      0.705236      0.100078     -0.071694
    4   H      4    1.200   1.000      1.014868     -0.556354      0.573546
 ------------------------------------------------------------------------------
 ------------------------------------------------------------------------------
 Atomic radii for non-electrostatic terms: SMD-CDS.
 ------------------------------------------------------------------------------
 Nuclear repulsion after PCM non-electrostatic terms =       37.1952489291 Hartrees.
 One-electron integrals computed using PRISM.
 NBasis=    48 RedAO= T  NBF=    48
 NBsUse=    48 1.00D-06 NBFU=    48
 Initial guess read from the read-write file.
 B after Tr=     0.000000    0.000000    0.000000
         Rot=    1.000000    0.000000    0.000000    0.000000 Ang=   0.00 deg.
 Initial guess orbital symmetries:
       Occupied  (A) (A) (A) (A) (A) (A) (A) (A) (A)
       Virtual   (A) (A) (A) (A) (A) (A) (A) (A) (A) (A) (A) (A)
                 (A) (A) (A) (A) (A) (A) (A) (A) (A) (A) (A) (A)
                 (A) (A) (A) (A) (A) (A) (A) (A) (A) (A) (A) (A)
                 (A) (A) (A)
 Requested convergence on RMS density matrix=1.00D-08 within 128 cycles.
 Requested convergence on MAX density matrix=1.00D-06.
 Requested convergence on             energy=1.00D-06.
 No special actions if energy rises.
 Keep R1 ints in memory in canonical form, NReq=3736425.
 Error on total polarization charges =  0.02834
 SCF Done:  E(RM062X) =  -151.505381920     A.U. after    9 cycles
             Convg  =    0.6860D-08             -V/T =  2.0084
 SMD-CDS (non-electrostatic) energy             (kcal/mol) =       1.37
 (included in total energy above)
 D1PCM: PCM CHGder 1st derivatives, ID1Alg=3 FixD1E=F DoIter=F DoCFld=F I1PDM=0.
 Calling FoFJK, ICntrl=      2127 FMM=F ISym2X=0 I1Cent= 0 IOpClX= 0 NMat=1 NMatS=1 NMatT=0.
 ***** Axes restored to original set *****
 -------------------------------------------------------------------
 Center     Atomic                   Forces (Hartrees/Bohr)
 Number     Number              X              Y              Z
 -------------------------------------------------------------------
      1        8           0.000707984    0.000156883    0.000128350
      2        1           0.000078033   -0.000168294   -0.000140477
      3        8          -0.000706740   -0.000127690   -0.000156128
      4        1          -0.000079277    0.000139101    0.000168255
 -------------------------------------------------------------------
 Cartesian Forces:  Max     0.000707984 RMS     0.000314984

 GradGradGradGradGradGradGradGradGradGradGradGradGradGradGradGradGradGrad
 Berny optimization.
 Using GEDIIS/GDIIS optimizer.
 Internal  Forces:  Max     0.000751063 RMS     0.000335282
 Search for a local minimum.
 Step number   5 out of a maximum of   20
 All quantities printed in internal units (Hartrees-Bohrs-Radians)
 Mixed Optimization -- En-DIIS/RFO-DIIS
 Swaping is turned off.
 Update second derivatives using D2CorX and points    1    2    3    4    5
 DE= -9.10D-06 DEPred=-5.55D-06 R= 1.64D+00
 SS=  1.41D+00  RLast= 2.20D-02 DXNew= 8.4853D-01 6.5970D-02
 Trust test= 1.64D+00 RLast= 2.20D-02 DXMaxT set to 5.05D-01
 The second derivative matrix:
                          R1        R2        R3        A1        A2
           R1           0.56363
           R2          -0.04120   0.46237
           R3           0.00879  -0.04107   0.56342
           A1          -0.00054   0.06307  -0.00072   0.20018
           A2          -0.00046   0.06314  -0.00064   0.04067   0.20116
           D1           0.00533  -0.00590   0.00535   0.00834   0.00840
                          D1
           D1           0.00760
     Eigenvalues ---    0.00668   0.16000   0.20967   0.46565   0.55473
     Eigenvalues ---    0.60163
 En-DIIS/RFO-DIIS IScMMF=        0 using points:     5    4
 RFO step:  Lambda=-1.48745879D-06.
 DIIS coeffs:      1.79639     -0.79639
 Iteration  1 RMS(Cart)=  0.01185341 RMS(Int)=  0.00014172
 Iteration  2 RMS(Cart)=  0.00009851 RMS(Int)=  0.00000000
 Iteration  3 RMS(Cart)=  0.00000001 RMS(Int)=  0.00000000
 Variable       Old X    -DE/DX   Delta X   Delta X   Delta X     New X
                                  (DIIS)     (GDIIS)  (Total)
    R1        1.83518   0.00009  -0.00040   0.00020  -0.00021   1.83498
    R2        2.69211  -0.00075   0.00094  -0.00176  -0.00082   2.69129
    R3        1.83519   0.00009  -0.00040   0.00019  -0.00021   1.83497
    A1        1.79332  -0.00014  -0.00272   0.00120  -0.00152   1.79180
    A2        1.79333  -0.00014  -0.00274   0.00121  -0.00153   1.79180
    D1        1.64278   0.00023   0.01705   0.01627   0.03332   1.67610
         Item               Value     Threshold  Converged?
 Maximum Force            0.000751     0.000450     NO 
 RMS     Force            0.000335     0.000300     NO 
 Maximum Displacement     0.014481     0.001800     NO 
 RMS     Displacement     0.011868     0.001200     NO 
 Predicted change in Energy=-4.340903D-06
 GradGradGradGradGradGradGradGradGradGradGradGradGradGradGradGradGradGrad

                          Input orientation:                          
 ---------------------------------------------------------------------
 Center     Atomic      Atomic             Coordinates (Angstroms)
 Number     Number       Type             X           Y           Z
 ---------------------------------------------------------------------
      1          8           0       -0.702918    0.021456    0.024684
      2          1           0       -0.953058   -0.019622   -0.912672
      3          8           0        0.719230   -0.032064   -0.029072
      4          1           0        0.969221    0.905327    0.012125
 ---------------------------------------------------------------------
                    Distance matrix (angstroms):
                    1          2          3          4
     1  O    0.000000
     2  H    0.971027   0.000000
     3  O    1.424170   1.891416   0.000000
     4  H    1.891410   2.325066   0.971027   0.000000
 Stoichiometry    H2O2
 Framework group  C1[X(H2O2)]
 Deg. of freedom     6
 Full point group                 C1      NOp   1
 Largest Abelian subgroup         C1      NOp   1
 Largest concise Abelian subgroup C1      NOp   1
                         Standard orientation:                         
 ---------------------------------------------------------------------
 Center     Atomic      Atomic             Coordinates (Angstroms)
 Number     Number       Type             X           Y           Z
 ---------------------------------------------------------------------
      1          8           0        0.704772    0.101787   -0.070416
      2          1           0        1.016115   -0.564794    0.563326
      3          8           0       -0.704773   -0.101789   -0.070414
      4          1           0       -1.016109    0.564808    0.563314
 ---------------------------------------------------------------------
 Rotational constants (GHZ):    304.4256743     26.8704010     26.6760537
 Standard basis: 6-31+G(d,p) (6D, 7F)
 There are    48 symmetry adapted basis functions of A   symmetry.
 Integral buffers will be    262144 words long.
 Raffenetti 2 integral format.
 Two-electron integral symmetry is turned on.
    48 basis functions,    78 primitive gaussians,    48 cartesian basis functions
     9 alpha electrons        9 beta electrons
       nuclear repulsion energy        37.2039269927 Hartrees.
 NAtoms=    4 NActive=    4 NUniq=    4 SFac= 7.50D-01 NAtFMM=   80 NAOKFM=F Big=F
 ------------------------------------------------------------------------------
 Polarizable Continuum Model (PCM)
 =================================
 Model                : PCM.
 Atomic radii         : SMD-Coulomb.
 Polarization charges : Total charges.
 Charge compensation  : None.
 Solution method      : Matrix inversion.
 Cavity type          : VdW (van der Waals Surface) (Alpha=1.000).
 Cavity algorithm     : GePol (No added spheres)
                        Default sphere list used, NSphG=    4.
                        Lebedev-Laikov grids with approx.  5.0 points / Ang**2.
                        Smoothing algorithm: Karplus/York (Gamma=1.0000).
                        Polarization charges: spherical gaussians, with
                                              point-specific exponents (IZeta= 3).
                        Self-potential: point-specific (ISelfS= 7).
                        Self-field    : sphere-specific E.n sum rule (ISelfD= 2).
 1st derivatives      : Analytical E(r).r(x)/FMM algorithm (CHGder, D1EAlg=3).
                        Cavity 1st derivative terms included.
 Solvent              : Water, Eps=  78.355300 Eps(inf)=   1.777849
 ------------------------------------------------------------------------------
 Spheres list:
 ISph  on   Nord    Re0     Alpha      Xe            Ye            Ze
    1   O      1    1.520   1.000      0.704772      0.101787     -0.070416
    2   H      2    1.200   1.000      1.016115     -0.564794      0.563326
    3   O      3    1.520   1.000     -0.704773     -0.101789     -0.070414
    4   H      4    1.200   1.000     -1.016109      0.564808      0.563314
 ------------------------------------------------------------------------------
 ------------------------------------------------------------------------------
 Atomic radii for non-electrostatic terms: SMD-CDS.
 ------------------------------------------------------------------------------
 Nuclear repulsion after PCM non-electrostatic terms =       37.2061028242 Hartrees.
 One-electron integrals computed using PRISM.
 NBasis=    48 RedAO= T  NBF=    48
 NBsUse=    48 1.00D-06 NBFU=    48
 Initial guess read from the read-write file.
 B after Tr=     0.000000    0.000000    0.000000
         Rot=    1.000000    0.000000    0.000000    0.000000 Ang=   0.00 deg.
 Initial guess orbital symmetries:
       Occupied  (A) (A) (A) (A) (A) (A) (A) (A) (A)
       Virtual   (A) (A) (A) (A) (A) (A) (A) (A) (A) (A) (A) (A)
                 (A) (A) (A) (A) (A) (A) (A) (A) (A) (A) (A) (A)
                 (A) (A) (A) (A) (A) (A) (A) (A) (A) (A) (A) (A)
                 (A) (A) (A)
 Requested convergence on RMS density matrix=1.00D-08 within 128 cycles.
 Requested convergence on MAX density matrix=1.00D-06.
 Requested convergence on             energy=1.00D-06.
 No special actions if energy rises.
 Keep R1 ints in memory in canonical form, NReq=3736425.
 Error on total polarization charges =  0.02833
 SCF Done:  E(RM062X) =  -151.505388437     A.U. after   12 cycles
             Convg  =    0.8521D-08             -V/T =  2.0084
 SMD-CDS (non-electrostatic) energy             (kcal/mol) =       1.37
 (included in total energy above)
 D1PCM: PCM CHGder 1st derivatives, ID1Alg=3 FixD1E=F DoIter=F DoCFld=F I1PDM=0.
 Calling FoFJK, ICntrl=      2127 FMM=F ISym2X=0 I1Cent= 0 IOpClX= 0 NMat=1 NMatS=1 NMatT=0.
 ***** Axes restored to original set *****
 -------------------------------------------------------------------
 Center     Atomic                   Forces (Hartrees/Bohr)
 Number     Number              X              Y              Z
 -------------------------------------------------------------------
      1        8           0.000374628   -0.000026922    0.000063766
      2        1          -0.000033109   -0.000070935   -0.000161190
      3        8          -0.000375552   -0.000063826    0.000026430
      4        1           0.000034034    0.000161683    0.000070994
 -------------------------------------------------------------------
 Cartesian Forces:  Max     0.000375552 RMS     0.000172095

 GradGradGradGradGradGradGradGradGradGradGradGradGradGradGradGradGradGrad
 Berny optimization.
 Using GEDIIS/GDIIS optimizer.
 Internal  Forces:  Max     0.000309321 RMS     0.000155371
 Search for a local minimum.
 Step number   6 out of a maximum of   20
 All quantities printed in internal units (Hartrees-Bohrs-Radians)
 Mixed Optimization -- En-DIIS/RFO-DIIS
 Swaping is turned off.
 Update second derivatives using D2CorX and points    1    2    3    4    5
                                                      6
 DE= -6.52D-06 DEPred=-4.34D-06 R= 1.50D+00
 SS=  1.41D+00  RLast= 3.34D-02 DXNew= 8.4853D-01 1.0020D-01
 Trust test= 1.50D+00 RLast= 3.34D-02 DXMaxT set to 5.05D-01
 The second derivative matrix:
                          R1        R2        R3        A1        A2
           R1           0.57595
           R2          -0.01732   0.39145
           R3           0.02111  -0.01746   0.57574
           A1          -0.00189   0.06733  -0.00199   0.20173
           A2          -0.00169   0.06747  -0.00180   0.04223   0.20275
           D1           0.00180   0.00233   0.00180   0.00671   0.00673
                          D1
           D1           0.00605
     Eigenvalues ---    0.00565   0.16000   0.19776   0.43496   0.55473
     Eigenvalues ---    0.60056
 En-DIIS/RFO-DIIS IScMMF=        0 using points:     6    5    4
 RFO step:  Lambda=-2.66458816D-07.
 DIIS coeffs:      1.50157     -0.85630      0.35472
 Iteration  1 RMS(Cart)=  0.00324533 RMS(Int)=  0.00001009
 Iteration  2 RMS(Cart)=  0.00000698 RMS(Int)=  0.00000000
 Iteration  3 RMS(Cart)=  0.00000000 RMS(Int)=  0.00000000
 Variable       Old X    -DE/DX   Delta X   Delta X   Delta X     New X
                                  (DIIS)     (GDIIS)  (Total)
    R1        1.83498   0.00014   0.00008   0.00013   0.00021   1.83519
    R2        2.69129  -0.00031  -0.00083  -0.00015  -0.00098   2.69031
    R3        1.83497   0.00014   0.00007   0.00014   0.00021   1.83519
    A1        1.79180   0.00006   0.00045  -0.00010   0.00035   1.79215
    A2        1.79180   0.00006   0.00045  -0.00010   0.00036   1.79215
    D1        1.67610   0.00005   0.00912  -0.00053   0.00859   1.68470
         Item               Value     Threshold  Converged?
 Maximum Force            0.000309     0.000450     YES
 RMS     Force            0.000155     0.000300     YES
 Maximum Displacement     0.003958     0.001800     NO 
 RMS     Displacement     0.003246     0.001200     NO 
 Predicted change in Energy=-3.977250D-07
 GradGradGradGradGradGradGradGradGradGradGradGradGradGradGradGradGradGrad

                          Input orientation:                          
 ---------------------------------------------------------------------
 Center     Atomic      Atomic             Coordinates (Angstroms)
 Number     Number       Type             X           Y           Z
 ---------------------------------------------------------------------
      1          8           0       -0.702610    0.023176    0.024277
      2          1           0       -0.954171   -0.021717   -0.912639
      3          8           0        0.718919   -0.031656   -0.030793
      4          1           0        0.970337    0.905293    0.014219
 ---------------------------------------------------------------------
                    Distance matrix (angstroms):
                    1          2          3          4
     1  O    0.000000
     2  H    0.971138   0.000000
     3  O    1.423652   1.891291   0.000000
     4  H    1.891292   2.328549   0.971139   0.000000
 Stoichiometry    H2O2
 Framework group  C1[X(H2O2)]
 Deg. of freedom     6
 Full point group                 C1      NOp   1
 Largest Abelian subgroup         C1      NOp   1
 Largest concise Abelian subgroup C1      NOp   1
                         Standard orientation:                         
 ---------------------------------------------------------------------
 Center     Atomic      Atomic             Coordinates (Angstroms)
 Number     Number       Type             X           Y           Z
 ---------------------------------------------------------------------
      1          8           0       -0.704440   -0.102278   -0.070081
      2          1           0       -1.017025    0.566741    0.560645
      3          8           0        0.704440    0.102278   -0.070081
      4          1           0        1.017026   -0.566741    0.560645
 ---------------------------------------------------------------------
 Rotational constants (GHZ):    304.4872232     26.8957490     26.6811673
 Standard basis: 6-31+G(d,p) (6D, 7F)
 There are    48 symmetry adapted basis functions of A   symmetry.
 Integral buffers will be    262144 words long.
 Raffenetti 2 integral format.
 Two-electron integral symmetry is turned on.
    48 basis functions,    78 primitive gaussians,    48 cartesian basis functions
     9 alpha electrons        9 beta electrons
       nuclear repulsion energy        37.2115252196 Hartrees.
 NAtoms=    4 NActive=    4 NUniq=    4 SFac= 7.50D-01 NAtFMM=   80 NAOKFM=F Big=F
 ------------------------------------------------------------------------------
 Polarizable Continuum Model (PCM)
 =================================
 Model                : PCM.
 Atomic radii         : SMD-Coulomb.
 Polarization charges : Total charges.
 Charge compensation  : None.
 Solution method      : Matrix inversion.
 Cavity type          : VdW (van der Waals Surface) (Alpha=1.000).
 Cavity algorithm     : GePol (No added spheres)
                        Default sphere list used, NSphG=    4.
                        Lebedev-Laikov grids with approx.  5.0 points / Ang**2.
                        Smoothing algorithm: Karplus/York (Gamma=1.0000).
                        Polarization charges: spherical gaussians, with
                                              point-specific exponents (IZeta= 3).
                        Self-potential: point-specific (ISelfS= 7).
                        Self-field    : sphere-specific E.n sum rule (ISelfD= 2).
 1st derivatives      : Analytical E(r).r(x)/FMM algorithm (CHGder, D1EAlg=3).
                        Cavity 1st derivative terms included.
 Solvent              : Water, Eps=  78.355300 Eps(inf)=   1.777849
 ------------------------------------------------------------------------------
 Spheres list:
 ISph  on   Nord    Re0     Alpha      Xe            Ye            Ze
    1   O      1    1.520   1.000     -0.704440     -0.102278     -0.070081
    2   H      2    1.200   1.000     -1.017025      0.566741      0.560645
    3   O      3    1.520   1.000      0.704440      0.102278     -0.070081
    4   H      4    1.200   1.000      1.017026     -0.566741      0.560645
 ------------------------------------------------------------------------------
 ------------------------------------------------------------------------------
 Atomic radii for non-electrostatic terms: SMD-CDS.
 ------------------------------------------------------------------------------
 Nuclear repulsion after PCM non-electrostatic terms =       37.2137014112 Hartrees.
 One-electron integrals computed using PRISM.
 NBasis=    48 RedAO= T  NBF=    48
 NBsUse=    48 1.00D-06 NBFU=    48
 Initial guess read from the read-write file.
 B after Tr=     0.000000    0.000000    0.000000
         Rot=    1.000000    0.000000    0.000000    0.000000 Ang=   0.00 deg.
 Initial guess orbital symmetries:
       Occupied  (A) (A) (A) (A) (A) (A) (A) (A) (A)
       Virtual   (A) (A) (A) (A) (A) (A) (A) (A) (A) (A) (A) (A)
                 (A) (A) (A) (A) (A) (A) (A) (A) (A) (A) (A) (A)
                 (A) (A) (A) (A) (A) (A) (A) (A) (A) (A) (A) (A)
                 (A) (A) (A)
 Requested convergence on RMS density matrix=1.00D-08 within 128 cycles.
 Requested convergence on MAX density matrix=1.00D-06.
 Requested convergence on             energy=1.00D-06.
 No special actions if energy rises.
 Keep R1 ints in memory in canonical form, NReq=3734848.
 Error on total polarization charges =  0.02834
 SCF Done:  E(RM062X) =  -151.505389088     A.U. after   12 cycles
             Convg  =    0.8636D-08             -V/T =  2.0084
 SMD-CDS (non-electrostatic) energy             (kcal/mol) =       1.37
 (included in total energy above)
 D1PCM: PCM CHGder 1st derivatives, ID1Alg=3 FixD1E=F DoIter=F DoCFld=F I1PDM=0.
 Calling FoFJK, ICntrl=      2127 FMM=F ISym2X=0 I1Cent= 0 IOpClX= 0 NMat=1 NMatS=1 NMatT=0.
 ***** Axes restored to original set *****
 -------------------------------------------------------------------
 Center     Atomic                   Forces (Hartrees/Bohr)
 Number     Number              X              Y              Z
 -------------------------------------------------------------------
      1        8           0.000005451   -0.000027102   -0.000014144
      2        1           0.000035303   -0.000037792   -0.000050863
      3        8          -0.000005211    0.000014364    0.000027211
      4        1          -0.000035544    0.000050530    0.000037797
 -------------------------------------------------------------------
 Cartesian Forces:  Max     0.000050863 RMS     0.000032204

 GradGradGradGradGradGradGradGradGradGradGradGradGradGradGradGradGradGrad
 Berny optimization.
 Using GEDIIS/GDIIS optimizer.
 Internal  Forces:  Max     0.000012723 RMS     0.000008013
 Search for a local minimum.
 Step number   7 out of a maximum of   20
 All quantities printed in internal units (Hartrees-Bohrs-Radians)
 Mixed Optimization -- En-DIIS/RFO-DIIS
 Swaping is turned off.
 Update second derivatives using D2CorX and points    1    2    3    4    5
                                                      6    7
 DE= -6.51D-07 DEPred=-3.98D-07 R= 1.64D+00
 Trust test= 1.64D+00 RLast= 8.67D-03 DXMaxT set to 5.05D-01
 The second derivative matrix:
                          R1        R2        R3        A1        A2
           R1           0.56999
           R2           0.00620   0.38531
           R3           0.01512   0.00617   0.56972
           A1          -0.00181   0.07094  -0.00192   0.19995
           A2          -0.00159   0.07122  -0.00170   0.04045   0.20096
           D1           0.00118   0.00250   0.00118   0.00607   0.00610
                          D1
           D1           0.00598
     Eigenvalues ---    0.00565   0.16000   0.18945   0.43671   0.55473
     Eigenvalues ---    0.58537
 En-DIIS/RFO-DIIS IScMMF=        0 using points:     7    6    5    4
 RFO step:  Lambda= 0.00000000D+00.
 DIIS coeffs:      1.15541     -0.24086      0.14126     -0.05581
 Iteration  1 RMS(Cart)=  0.00011614 RMS(Int)=  0.00000001
 Iteration  2 RMS(Cart)=  0.00000001 RMS(Int)=  0.00000000
 Variable       Old X    -DE/DX   Delta X   Delta X   Delta X     New X
                                  (DIIS)     (GDIIS)  (Total)
    R1        1.83519   0.00001   0.00002   0.00000   0.00003   1.83521
    R2        2.69031  -0.00001  -0.00002   0.00000  -0.00001   2.69030
    R3        1.83519   0.00001   0.00002   0.00000   0.00002   1.83521
    A1        1.79215   0.00000  -0.00001   0.00000  -0.00001   1.79214
    A2        1.79215   0.00000  -0.00001   0.00000  -0.00001   1.79214
    D1        1.68470   0.00000  -0.00032   0.00001  -0.00031   1.68439
         Item               Value     Threshold  Converged?
 Maximum Force            0.000013     0.000450     YES
 RMS     Force            0.000008     0.000300     YES
 Maximum Displacement     0.000141     0.001800     YES
 RMS     Displacement     0.000116     0.001200     YES
 Predicted change in Energy=-5.411710D-10
 Optimization completed.
    -- Stationary point found.
                           ----------------------------
                           !   Optimized Parameters   !
                           ! (Angstroms and Degrees)  !
 --------------------------                            --------------------------
 ! Name  Definition              Value          Derivative Info.                !
 --------------------------------------------------------------------------------
 ! R1    R(1,2)                  0.9711         -DE/DX =    0.0                 !
 ! R2    R(1,3)                  1.4237         -DE/DX =    0.0                 !
 ! R3    R(3,4)                  0.9711         -DE/DX =    0.0                 !
 ! A1    A(2,1,3)              102.6826         -DE/DX =    0.0                 !
 ! A2    A(1,3,4)              102.6827         -DE/DX =    0.0                 !
 ! D1    D(2,1,3,4)             96.5259         -DE/DX =    0.0                 !
 --------------------------------------------------------------------------------
 GradGradGradGradGradGradGradGradGradGradGradGradGradGradGradGradGradGrad

                          Input orientation:                          
 ---------------------------------------------------------------------
 Center     Atomic      Atomic             Coordinates (Angstroms)
 Number     Number       Type             X           Y           Z
 ---------------------------------------------------------------------
      1          8           0       -0.702610    0.023176    0.024277
      2          1           0       -0.954171   -0.021717   -0.912639
      3          8           0        0.718919   -0.031656   -0.030793
      4          1           0        0.970337    0.905293    0.014219
 ---------------------------------------------------------------------
                    Distance matrix (angstroms):
                    1          2          3          4
     1  O    0.000000
     2  H    0.971138   0.000000
     3  O    1.423652   1.891291   0.000000
     4  H    1.891292   2.328549   0.971139   0.000000
 Stoichiometry    H2O2
 Framework group  C1[X(H2O2)]
 Deg. of freedom     6
 Full point group                 C1      NOp   1
 Largest Abelian subgroup         C1      NOp   1
 Largest concise Abelian subgroup C1      NOp   1
                         Standard orientation:                         
 ---------------------------------------------------------------------
 Center     Atomic      Atomic             Coordinates (Angstroms)
 Number     Number       Type             X           Y           Z
 ---------------------------------------------------------------------
      1          8           0       -0.704440   -0.102278   -0.070081
      2          1           0       -1.017025    0.566741    0.560645
      3          8           0        0.704440    0.102278   -0.070081
      4          1           0        1.017026   -0.566741    0.560645
 ---------------------------------------------------------------------
 Rotational constants (GHZ):    304.4872232     26.8957490     26.6811673

 **********************************************************************

            Population analysis using the SCF density.

 **********************************************************************

 Orbital symmetries:
       Occupied  (A) (A) (A) (A) (A) (A) (A) (A) (A)
       Virtual   (A) (A) (A) (A) (A) (A) (A) (A) (A) (A) (A) (A)
                 (A) (A) (A) (A) (A) (A) (A) (A) (A) (A) (A) (A)
                 (A) (A) (A) (A) (A) (A) (A) (A) (A) (A) (A) (A)
                 (A) (A) (A)
 The electronic state is 1-A.
 Alpha  occ. eigenvalues --  -19.71031 -19.71012  -1.26310  -1.01260  -0.62758
 Alpha  occ. eigenvalues --   -0.57780  -0.51960  -0.39271  -0.38488
 Alpha virt. eigenvalues --    0.05931   0.08948   0.14924   0.15680   0.19529
 Alpha virt. eigenvalues --    0.20269   0.21573   0.21606   0.25375   0.33454
 Alpha virt. eigenvalues --    0.35391   0.99893   1.05703   1.09705   1.13319
 Alpha virt. eigenvalues --    1.13449   1.19693   1.23733   1.25403   1.31763
 Alpha virt. eigenvalues --    1.47599   1.51491   1.58826   1.64123   1.69713
 Alpha virt. eigenvalues --    2.08452   2.16681   2.18014   2.41498   2.51089
 Alpha virt. eigenvalues --    2.62134   2.73164   2.83531   2.91394   3.08837
 Alpha virt. eigenvalues --    3.43432   3.43440   3.86025   4.22553
          Condensed to atoms (all electrons):
              1          2          3          4
     1  O    8.122011   0.266263   0.073842  -0.026705
     2  H    0.266263   0.326288  -0.026706  -0.001257
     3  O    0.073842  -0.026706   8.122012   0.266263
     4  H   -0.026705  -0.001257   0.266263   0.326288
 Mulliken atomic charges:
              1
     1  O   -0.435411
     2  H    0.435411
     3  O   -0.435411
     4  H    0.435411
 Sum of Mulliken atomic charges =   0.00000
 Mulliken charges with hydrogens summed into heavy atoms:
              1
     1  O    0.000000
     3  O    0.000000
 Sum of Mulliken charges with hydrogens summed into heavy atoms =   0.00000
 Electronic spatial extent (au):  <R**2>=             65.7022
 Charge=              0.0000 electrons
 Dipole moment (field-independent basis, Debye):
    X=              0.0000    Y=              0.0000    Z=              2.9560  Tot=              2.9560
 Quadrupole moment (field-independent basis, Debye-Ang):
   XX=            -10.4346   YY=            -11.2534   ZZ=            -11.3247
   XY=             -3.3319   XZ=              0.0000   YZ=              0.0000
[...]
    3   O      3    1.520   1.000      0.704440      0.102278     -0.070081
    4   H      4    1.200   1.000      1.017026     -0.566741      0.560645
 ------------------------------------------------------------------------------
 ------------------------------------------------------------------------------
 Atomic radii for non-electrostatic terms: SMD-CDS.
 ------------------------------------------------------------------------------
 Nuclear repulsion after PCM non-electrostatic terms =       37.2137014112 Hartrees.
 One-electron integrals computed using PRISM.
 NBasis=    48 RedAO= T  NBF=    48
 NBsUse=    48 1.00D-06 NBFU=    48
 Initial guess read from the checkpoint file:  D:\Documents\rayGit\FQ\quimicaComp
 utacional\proyecto\decompositionHydrogenPeroxide\globalReactionSolvated\step1\re
 actants\hydrogenPeroxideM062X.chk
 B after Tr=     0.000000    0.000000    0.000000
         Rot=    1.000000    0.000000    0.000000    0.000000 Ang=   0.00 deg.
 Initial guess orbital symmetries:
       Occupied  (A) (A) (A) (A) (A) (A) (A) (A) (A)
       Virtual   (A) (A) (A) (A) (A) (A) (A) (A) (A) (A) (A) (A)
                 (A) (A) (A) (A) (A) (A) (A) (A) (A) (A) (A) (A)
                 (A) (A) (A) (A) (A) (A) (A) (A) (A) (A) (A) (A)
                 (A) (A) (A)
 Requested convergence on RMS density matrix=1.00D-08 within 128 cycles.
 Requested convergence on MAX density matrix=1.00D-06.
 Requested convergence on             energy=1.00D-06.
 No special actions if energy rises.
 Keep R1 ints in memory in canonical form, NReq=3734848.
 Error on total polarization charges =  0.02834
 SCF Done:  E(RM062X) =  -151.505389088     A.U. after    1 cycles
             Convg  =    0.1074D-08             -V/T =  2.0084
 SMD-CDS (non-electrostatic) energy             (kcal/mol) =       1.37
 (included in total energy above)
 Range of M.O.s used for correlation:     1    48
 NBasis=    48 NAE=     9 NBE=     9 NFC=     0 NFV=     0
 NROrb=     48 NOA=     9 NOB=     9 NVA=    39 NVB=    39

 **** Warning!!: The largest alpha MO coefficient is  0.14356690D+02

 Symmetrizing basis deriv contribution to polar:
 IMax=3 JMax=2 DiffMx= 0.00D+00
 G2DrvN: will do     5 centers at a time, making    1 passes doing MaxLOS=2.
 Calling FoFCou, ICntrl=  3107 FMM=F I1Cent=   0 AccDes= 0.00D+00.
 FoFDir/FoFCou used for L=0 through L=2.
 G2PCM: DoFxE=T DoFxN=T DoGrad=T DoPD/DQ/DG=FFF NFrqRd=   0 IEInf=0 DoCFld=F IF1Alg=4.
 End of G2Drv Frequency-dependent properties file   721 does not exist.
 End of G2Drv Frequency-dependent properties file   722 does not exist.
          IDoAtm=1111
 NEqPCM:  Using equilibrium solvation (IEInf=0, Eps=  78.3553, EpsInf=   1.7778)
          Differentiating once with respect to electric field.
                with respect to dipole field.
          Differentiating once with respect to nuclear coordinates.
          Keep R1 ints in memory in canonical form, NReq=1513001.
          There are    15 degrees of freedom in the 1st order CPHF.  IDoFFX=5.
     12 vectors produced by pass  0 Test12= 2.34D-15 6.67D-09 XBig12= 5.85D+00 1.58D+00.
 AX will form    12 AO Fock derivatives at one time.
     12 vectors produced by pass  1 Test12= 2.34D-15 6.67D-09 XBig12= 8.90D-01 2.97D-01.
     12 vectors produced by pass  2 Test12= 2.34D-15 6.67D-09 XBig12= 3.94D-02 6.11D-02.
     12 vectors produced by pass  3 Test12= 2.34D-15 6.67D-09 XBig12= 5.34D-04 5.54D-03.
     12 vectors produced by pass  4 Test12= 2.34D-15 6.67D-09 XBig12= 2.87D-06 5.82D-04.
     12 vectors produced by pass  5 Test12= 2.34D-15 6.67D-09 XBig12= 7.41D-09 2.24D-05.
      5 vectors produced by pass  6 Test12= 2.34D-15 6.67D-09 XBig12= 1.38D-11 9.71D-07.
      2 vectors produced by pass  7 Test12= 2.34D-15 6.67D-09 XBig12= 2.28D-14 3.32D-08.
 Inverted reduced A of dimension    79 with in-core refinement.
 Isotropic polarizability for W=    0.000000       14.66 Bohr**3.
 End of Minotr Frequency-dependent properties file   721 does not exist.
 End of Minotr Frequency-dependent properties file   722 does not exist.

 **********************************************************************

            Population analysis using the SCF density.

 **********************************************************************

 Orbital symmetries:
       Occupied  (A) (A) (A) (A) (A) (A) (A) (A) (A)
       Virtual   (A) (A) (A) (A) (A) (A) (A) (A) (A) (A) (A) (A)
                 (A) (A) (A) (A) (A) (A) (A) (A) (A) (A) (A) (A)
                 (A) (A) (A) (A) (A) (A) (A) (A) (A) (A) (A) (A)
                 (A) (A) (A)
 The electronic state is 1-A.
 Alpha  occ. eigenvalues --  -19.71031 -19.71012  -1.26310  -1.01260  -0.62758
 Alpha  occ. eigenvalues --   -0.57780  -0.51960  -0.39271  -0.38488
 Alpha virt. eigenvalues --    0.05931   0.08948   0.14924   0.15680   0.19529
 Alpha virt. eigenvalues --    0.20269   0.21573   0.21606   0.25375   0.33454
 Alpha virt. eigenvalues --    0.35391   0.99893   1.05703   1.09705   1.13319
 Alpha virt. eigenvalues --    1.13449   1.19693   1.23733   1.25403   1.31763
 Alpha virt. eigenvalues --    1.47599   1.51491   1.58826   1.64123   1.69713
 Alpha virt. eigenvalues --    2.08452   2.16681   2.18014   2.41498   2.51089
 Alpha virt. eigenvalues --    2.62134   2.73164   2.83531   2.91394   3.08837
 Alpha virt. eigenvalues --    3.43432   3.43440   3.86025   4.22553
          Condensed to atoms (all electrons):
              1          2          3          4
     1  O    8.122011   0.266263   0.073842  -0.026705
     2  H    0.266263   0.326288  -0.026706  -0.001257
     3  O    0.073842  -0.026706   8.122012   0.266263
     4  H   -0.026705  -0.001257   0.266263   0.326288
 Mulliken atomic charges:
              1
     1  O   -0.435411
     2  H    0.435411
     3  O   -0.435411
     4  H    0.435411
 Sum of Mulliken atomic charges =   0.00000
 Mulliken charges with hydrogens summed into heavy atoms:
              1
     1  O    0.000000
     3  O    0.000000
 Sum of Mulliken charges with hydrogens summed into heavy atoms =   0.00000
 APT atomic charges:
              1
     1  O   -0.384353
     2  H    0.384353
     3  O   -0.384353
     4  H    0.384353
 Sum of APT charges=   0.00000
 APT Atomic charges with hydrogens summed into heavy atoms:
              1
     1  O    0.000000
     2  H    0.000000
     3  O    0.000000
     4  H    0.000000
 Sum of APT charges=   0.00000
 Electronic spatial extent (au):  <R**2>=             65.7022
 Charge=              0.0000 electrons
 Dipole moment (field-independent basis, Debye):
    X=              0.0000    Y=              0.0000    Z=              2.9560  Tot=              2.9560
 Quadrupole moment (field-independent basis, Debye-Ang):
   XX=            -10.4346   YY=            -11.2534   ZZ=            -11.3247
   XY=             -3.3319   XZ=              0.0000   YZ=              0.0000
 Traceless Quadrupole moment (field-independent basis, Debye-Ang):
   XX=              0.5696   YY=             -0.2491   ZZ=             -0.3205
   XY=             -3.3319   XZ=              0.0000   YZ=              0.0000
 Octapole moment (field-independent basis, Debye-Ang**2):
  XXX=              0.0000  YYY=              0.0000  ZZZ=              2.5750  XYY=              0.0000
  XXY=              0.0000  XXZ=              3.8856  XZZ=              0.0000  YZZ=              0.0000
  YYZ=              1.3248  XYZ=             -1.8807
 Hexadecapole moment (field-independent basis, Debye-Ang**3):
 XXXX=            -42.9224 YYYY=            -11.8692 ZZZZ=            -11.5787 XXXY=             -4.7536
 XXXZ=              0.0000 YYYX=             -3.0253 YYYZ=              0.0000 ZZZX=              0.0000
 ZZZY=              0.0000 XXYY=             -9.2542 XXZZ=             -9.3483 YYZZ=             -3.4770
 XXYZ=              0.0000 YYXZ=              0.0000 ZZXY=             -1.5486
 N-N= 3.721370141121D+01 E-N=-4.322174269362D+02  KE= 1.502396222564D+02
  Exact polarizability:  20.072  -0.442  11.961   0.000   0.000  11.945
 Approx polarizability:  16.770  -0.303  10.247   0.000   0.000  10.157
 D2PCM: PCM CHGder 2nd derivatives, FixD1E=F FixD2E=F DoIter=F DoCFld=F I1PDM=0
 Calling FoFJK, ICntrl=    100127 FMM=F ISym2X=0 I1Cent= 0 IOpClX= 0 NMat=1 NMatS=1 NMatT=0.
 Full mass-weighted force constant matrix:
 Low frequencies --- -147.7202   -0.0014    0.0011    0.0014   57.9085   68.4951
 Low frequencies ---  329.7955 1042.6492 1376.6014
 Diagonal vibrational polarizability:
        2.3317476       0.2878504      67.6108587
 Harmonic frequencies (cm**-1), IR intensities (KM/Mole), Raman scattering
 activities (A**4/AMU), depolarization ratios for plane and unpolarized
 incident light, reduced masses (AMU), force constants (mDyne/A),
 and normal coordinates:
                     1                      2                      3
                     A                      A                      A
 Frequencies --   329.7936              1042.6486              1376.5632
 Red. masses --     1.0853                14.9565                 1.1280
 Frc consts  --     0.0695                 9.5798                 1.2594
 IR Inten    --   272.4206                 0.4824               159.0683
  Atom  AN      X      Y      Z        X      Y      Z        X      Y      Z
     1   8     0.00  -0.04   0.03     0.67   0.11   0.01     0.04   0.01   0.05
     2   1    -0.06   0.46  -0.53    -0.03  -0.11  -0.15    -0.67  -0.19  -0.08
     3   8     0.00   0.04   0.03    -0.67  -0.11   0.01     0.04   0.01  -0.05
     4   1     0.06  -0.46  -0.53     0.03   0.11  -0.15    -0.67  -0.19   0.08
                     4                      5                      6
                     A                      A                      A
 Frequencies --  1407.9899              3792.9134              3801.4967
 Red. masses --     1.0787                 1.0677                 1.0699
 Frc consts  --     1.2599                 9.0500                 9.1098
 IR Inten    --     0.2291               192.7461               102.7697
  Atom  AN      X      Y      Z        X      Y      Z        X      Y      Z
     1   8    -0.01   0.05   0.01    -0.01   0.03   0.03     0.02  -0.03  -0.03
     2   1    -0.68  -0.15  -0.10     0.22  -0.49  -0.46    -0.22   0.49   0.46
     3   8     0.01  -0.05   0.01    -0.01   0.03  -0.03    -0.02   0.03  -0.03
     4   1     0.68   0.15  -0.10     0.22  -0.49   0.46     0.22  -0.49   0.46

 -------------------
 - Thermochemistry -
 -------------------
 Temperature   298.150 Kelvin.  Pressure   1.00000 Atm.
 Atom     1 has atomic number  8 and mass  15.99491
 Atom     2 has atomic number  1 and mass   1.00783
 Atom     3 has atomic number  8 and mass  15.99491
 Atom     4 has atomic number  1 and mass   1.00783
 Molecular mass:    34.00548 amu.
 Principal axes and moments of inertia in atomic units:
                           1         2         3
     Eigenvalues --     5.92715  67.10136  67.64101
           X            0.99776  -0.06687   0.00000
           Y            0.06687   0.99776   0.00000
           Z            0.00000   0.00000   1.00000
 This molecule is an asymmetric top.
 Rotational symmetry number  1.
 Rotational temperatures (Kelvin)     14.61306     1.29079     1.28049
 Rotational constants (GHZ):         304.48722    26.89575    26.68117
 Zero-point vibrational energy      70289.0 (Joules/Mol)
                                   16.79948 (Kcal/Mol)
 Warning -- explicit consideration of   1 degrees of freedom as
           vibrations may cause significant error
 Vibrational temperatures:    474.50  1500.14  1980.56  2025.78  5457.15
          (Kelvin)           5469.50
 
 Zero-point correction=                           0.026772 (Hartree/Particle)
 Thermal correction to Energy=                    0.030035
 Thermal correction to Enthalpy=                  0.030979
 Thermal correction to Gibbs Free Energy=         0.004459
 Sum of electronic and zero-point Energies=           -151.478617
 Sum of electronic and thermal Energies=              -151.475354
 Sum of electronic and thermal Enthalpies=            -151.474410
 Sum of electronic and thermal Free Energies=         -151.500931
 
                     E (Thermal)             CV                S
                      KCal/Mol        Cal/Mol-Kelvin    Cal/Mol-Kelvin
 Total                   18.847              8.128             55.817
 Electronic               0.000              0.000              0.000
 Translational            0.889              2.981             36.503
 Rotational               0.889              2.981             17.938
 Vibrational             17.070              2.166              1.377
 Vibration     1          0.713              1.616              1.261
                       Q            Log10(Q)             Ln(Q)
 Total Bot       0.889633D-02         -2.050789         -4.722116
 Total V=0       0.183357D+11         10.263299         23.632119
 Vib (Bot)       0.614741D-12        -12.211308        -28.117575
 Vib (Bot)    1  0.566627D+00         -0.246703         -0.568054
 Vib (V=0)       0.126701D+01          0.102780          0.236660
 Vib (V=0)    1  0.125569D+01          0.098882          0.227685
 Electronic      0.100000D+01          0.000000          0.000000
 Translational   0.779433D+07          6.891779         15.868907
 Rotational      0.185669D+04          3.268740          7.526552
 ***** Axes restored to original set *****
 -------------------------------------------------------------------
 Center     Atomic                   Forces (Hartrees/Bohr)
 Number     Number              X              Y              Z
 -------------------------------------------------------------------
      1        8           0.000005452   -0.000027099   -0.000014141
      2        1           0.000035303   -0.000037792   -0.000050864
      3        8          -0.000005212    0.000014360    0.000027209
      4        1          -0.000035544    0.000050531    0.000037796
 -------------------------------------------------------------------
 Cartesian Forces:  Max     0.000050864 RMS     0.000032203

 GradGradGradGradGradGradGradGradGradGradGradGradGradGradGradGradGradGrad
 Berny optimization.
 Internal  Forces:  Max     0.000012725 RMS     0.000008014
 Search for a local minimum.
 Step number   1 out of a maximum of    2
 All quantities printed in internal units (Hartrees-Bohrs-Radians)
 Second derivative matrix not updated -- analytic derivatives used.
 The second derivative matrix:
                          R1        R2        R3        A1        A2
           R1           0.51642
           R2          -0.00641   0.36969
           R3           0.00070  -0.00641   0.51642
           A1          -0.00399   0.06847  -0.00063   0.22788
           A2          -0.00063   0.06847  -0.00399   0.01076   0.22788
           D1           0.00135   0.00131   0.00135   0.00558   0.00558
                          D1
           D1           0.00655
     Eigenvalues ---    0.00627   0.18746   0.21708   0.42008   0.51576
     Eigenvalues ---    0.51820
 Angle between quadratic step and forces=  76.38 degrees.
 Linear search not attempted -- first point.
 Iteration  1 RMS(Cart)=  0.00009317 RMS(Int)=  0.00000001
 Iteration  2 RMS(Cart)=  0.00000001 RMS(Int)=  0.00000000
 Variable       Old X    -DE/DX   Delta X   Delta X   Delta X     New X
                                 (Linear)    (Quad)   (Total)
    R1        1.83519   0.00001   0.00000   0.00003   0.00003   1.83521
    R2        2.69031  -0.00001   0.00000  -0.00001  -0.00001   2.69030
    R3        1.83519   0.00001   0.00000   0.00002   0.00002   1.83521
    A1        1.79215   0.00000   0.00000  -0.00001  -0.00001   1.79214
    A2        1.79215   0.00000   0.00000  -0.00001  -0.00001   1.79214
    D1        1.68470   0.00000   0.00000  -0.00024  -0.00024   1.68445
         Item               Value     Threshold  Converged?
 Maximum Force            0.000013     0.000450     YES
 RMS     Force            0.000008     0.000300     YES
 Maximum Displacement     0.000113     0.001800     YES
 RMS     Displacement     0.000093     0.001200     YES
 Predicted change in Energy=-5.705253D-10
 Optimization completed.
    -- Stationary point found.
                           ----------------------------
                           !   Optimized Parameters   !
                           ! (Angstroms and Degrees)  !
 --------------------------                            --------------------------
 ! Name  Definition              Value          Derivative Info.                !
 --------------------------------------------------------------------------------
 ! R1    R(1,2)                  0.9711         -DE/DX =    0.0                 !
 ! R2    R(1,3)                  1.4237         -DE/DX =    0.0                 !
 ! R3    R(3,4)                  0.9711         -DE/DX =    0.0                 !
 ! A1    A(2,1,3)              102.6826         -DE/DX =    0.0                 !
 ! A2    A(1,3,4)              102.6827         -DE/DX =    0.0                 !
 ! D1    D(2,1,3,4)             96.5259         -DE/DX =    0.0                 !
 --------------------------------------------------------------------------------
 GradGradGradGradGradGradGradGradGradGradGradGradGradGradGradGradGradGrad

 1|1|UNPC-DESKTOP-319GPER|Freq|RM062X|6-31+G(d,p)|H2O2|SAGAD|05-Feb-202
 1|0||#N Geom=AllCheck Guess=TCheck SCRF=Check GenChk RM062X/6-31+G(d,p
 ) Freq||Hydrogen peroxide solvated with m062x||0,1|O,-0.7026102793,0.0
 231757389,0.024277292|H,-0.9541706132,-0.0217166372,-0.9126388883|O,0.
 7189191495,-0.0316556939,-0.0307931973|H,0.970336673,0.9052934722,0.01
 42189636||Version=IA32W-G09RevA.02|State=1-A|HF=-151.5053891|RMSD=1.07
 4e-009|RMSF=3.220e-005|ZeroPoint=0.0267717|Thermal=0.030035|Dipole=-0.
 0001321,0.8224275,-0.8222865|DipoleDeriv=-0.3244789,-0.0195855,-0.0330
 107,0.1052138,-0.5439356,0.0064537,-0.1995485,0.0028753,-0.2846452,0.3
 244626,0.0030916,0.0495113,0.0111008,0.4860242,-0.0071706,0.0832633,-0
 .0021944,0.3425729,-0.3244273,-0.0330126,-0.0196271,-0.1995728,-0.2846
 844,0.0029488,0.1051429,0.0065204,-0.5439481,0.3244436,0.0495065,0.003
 1265,0.0832582,0.3425957,-0.0022319,0.0111424,-0.0072014,0.4860204|Pol
 ar=19.9282883,0.8193212,12.0248656,0.8181664,0.080078,12.0246243|PG=C0
 1 [X(H2O2)]|NImag=0||0.39691586,0.01719475,0.03234844,0.09779229,0.029
 79517,0.54225115,-0.06037339,-0.00194738,-0.06761940,0.09597620,-0.005
 94520,-0.00168392,-0.02579403,0.00486765,0.00284484,-0.12672886,-0.025
 49233,-0.49840404,0.11067285,0.02449827,0.48637883,-0.30367509,0.02563
 265,-0.02626400,-0.03287164,0.00325790,0.01506934,0.39689041,-0.026311
 40,-0.04278231,-0.00608046,-0.00390671,-0.00106364,0.00208012,0.097770
 76,0.54227120,0.02567151,-0.00788319,-0.04278450,-0.04087406,0.0035709
 6,0.01212288,0.01714791,0.02986935,0.03235318,-0.03286739,-0.04088002,
 -0.00390890,-0.00273118,-0.00218035,0.00098667,-0.06034369,-0.06755265
 ,-0.00194537,0.09594225,0.01506184,0.01211779,0.00207932,0.00098644,-0
 .00009728,-0.00108606,-0.12666130,-0.49842525,-0.02555712,0.11061302,0
 .48640474,0.00326505,0.00358035,-0.00106262,-0.00217939,-0.00227520,-0
 .00009766,-0.00595325,-0.02586901,-0.00169156,0.00486760,0.02456386,0.
 00285184||-0.00000545,0.00002710,0.00001414,-0.00003530,0.00003779,0.0
 0005086,0.00000521,-0.00001436,-0.00002721,0.00003554,-0.00005053,-0.0
 0003780|||@


 PENOTUS DIED A HUNDRED YEARS OLD WANTING BUT TWO...
 AND HE USED TO SAY BEFORE HE DIED, HAVING SPENT HIS
 WHOLE LIFE IN VAINLY SEARCHING AFTER THE PHILOSOPHER'S
 STONE, THAT IF HE HAD A MORTAL ENEMY HE DID NOT DARE
 TO ENCOUNTER OPENLY, HE WOULD ADVISE HIM ABOVE ALL
 THINGS TO GIVE HIMSELF UP TO THE STUDY AND PRACTICE
 OF ALCHEMY.  --  NICOLAS LEMERY, M.D.
 "A COURSE OF CHYMISTRY", WALTER KETTILBY, LONDON, 1686
 Job cpu time:  0 days  0 hours  0 minutes 10.0 seconds.
 File lengths (MBytes):  RWF=     10 Int=      0 D2E=      0 Chk=      2 Scr=      1
 Normal termination of Gaussian 09 at Fri Feb 05 12:41:16 2021.
