 Entering Link 1 = C:\G09W\l1.exe PID=      4060.
  
 Copyright (c) 1988,1990,1992,1993,1995,1998,2003,2009, Gaussian, Inc.
                  All Rights Reserved.
  
 This is part of the Gaussian(R) 09 program.  It is based on
 the Gaussian(R) 03 system (copyright 2003, Gaussian, Inc.),
 the Gaussian(R) 98 system (copyright 1998, Gaussian, Inc.),
 the Gaussian(R) 94 system (copyright 1995, Gaussian, Inc.),
 the Gaussian 92(TM) system (copyright 1992, Gaussian, Inc.),
 the Gaussian 90(TM) system (copyright 1990, Gaussian, Inc.),
 the Gaussian 88(TM) system (copyright 1988, Gaussian, Inc.),
 the Gaussian 86(TM) system (copyright 1986, Carnegie Mellon
 University), and the Gaussian 82(TM) system (copyright 1983,
 Carnegie Mellon University). Gaussian is a federally registered
 trademark of Gaussian, Inc.
  
 This software contains proprietary and confidential information,
 including trade secrets, belonging to Gaussian, Inc.
  
 This software is provided under written license and may be
 used, copied, transmitted, or stored only in accord with that
 written license.
  
 The following legend is applicable only to US Government
 contracts under FAR:
  
                    RESTRICTED RIGHTS LEGEND
  
 Use, reproduction and disclosure by the US Government is
 subject to restrictions as set forth in subparagraphs (a)
 and (c) of the Commercial Computer Software - Restricted
 Rights clause in FAR 52.227-19.
  
 Gaussian, Inc.
 340 Quinnipiac St., Bldg. 40, Wallingford CT 06492
  
  
 ---------------------------------------------------------------
 Warning -- This program may not be used in any manner that
 competes with the business of Gaussian, Inc. or will provide
 assistance to any competitor of Gaussian, Inc.  The licensee
 of this program is prohibited from giving any competitor of
 Gaussian, Inc. access to this program.  By using this program,
 the user acknowledges that Gaussian, Inc. is engaged in the
 business of creating and licensing software in the field of
 computational chemistry and represents and warrants to the
 licensee that it is not a competitor of Gaussian, Inc. and that
 it will not use this program in any manner prohibited above.
 ---------------------------------------------------------------
  

 Cite this work as:
 Gaussian 09, Revision A.02,
 M. J. Frisch, G. W. Trucks, H. B. Schlegel, G. E. Scuseria, 
 M. A. Robb, J. R. Cheeseman, G. Scalmani, V. Barone, B. Mennucci, 
 G. A. Petersson, H. Nakatsuji, M. Caricato, X. Li, H. P. Hratchian, 
 A. F. Izmaylov, J. Bloino, G. Zheng, J. L. Sonnenberg, M. Hada, 
 M. Ehara, K. Toyota, R. Fukuda, J. Hasegawa, M. Ishida, T. Nakajima, 
 Y. Honda, O. Kitao, H. Nakai, T. Vreven, J. A. Montgomery, Jr., 
 J. E. Peralta, F. Ogliaro, M. Bearpark, J. J. Heyd, E. Brothers, 
 K. N. Kudin, V. N. Staroverov, R. Kobayashi, J. Normand, 
 K. Raghavachari, A. Rendell, J. C. Burant, S. S. Iyengar, J. Tomasi, 
 M. Cossi, N. Rega, J. M. Millam, M. Klene, J. E. Knox, J. B. Cross, 
 V. Bakken, C. Adamo, J. Jaramillo, R. Gomperts, R. E. Stratmann, 
 O. Yazyev, A. J. Austin, R. Cammi, C. Pomelli, J. W. Ochterski, 
 R. L. Martin, K. Morokuma, V. G. Zakrzewski, G. A. Voth, 
 P. Salvador, J. J. Dannenberg, S. Dapprich, A. D. Daniels, 
 O. Farkas, J. B. Foresman, J. V. Ortiz, J. Cioslowski, 
 and D. J. Fox, Gaussian, Inc., Wallingford CT, 2009.
 
 ******************************************
 Gaussian 09:  IA32W-G09RevA.02 11-Jun-2009
                17-Jan-2021 
 ******************************************
 %chk=D:\Documents\rayGit\FQ\quimicaComputacional\p3Eteno\estadoDeTransicion\hydr
 oxyethylRadicalM052x.chk
 %nprocshared=4
 Will use up to    4 processors via shared memory.
 %mem=1500MB
 ------------------------------------
 # opt freq=noraman 6-31+g(d,p) m052x
 ------------------------------------
 1/14=-1,18=20,19=15,26=3,38=1/1,3;
 2/9=110,12=2,17=6,18=5,40=1/2;
 3/5=1,6=6,7=111,11=2,16=1,25=1,30=1,71=1,74=-38/1,2,3;
 4//1;
 5/5=2,38=5/2;
 6/7=2,8=2,9=2,10=2,28=1/1;
 7//1,2,3,16;
 1/14=-1,18=20,19=15/3(2);
 2/9=110/2;
 99//99;
 2/9=110/2;
 3/5=1,6=6,7=111,11=2,16=1,25=1,30=1,71=1,74=-38/1,2,3;
 4/5=5,16=3/1;
 5/5=2,38=5/2;
 7//1,2,3,16;
 1/14=-1,18=20,19=15/3(-5);
 2/9=110/2;
 6/7=2,8=2,9=2,10=2,19=2,28=1/1;
 99/9=1/99;
 ----------------------------
 2-Hydroxyethyl radical M052X
 ----------------------------
 Symbolic Z-matrix:
 Charge =  0 Multiplicity = 2
 C                    -0.47616   0.7481    0.59177 
 H                     0.057    -0.17961   0.59177 
 H                    -1.54616   0.7481    0.59177 
 C                     0.25615   2.02258   0.74029 
 H                    -0.35014   2.72184   1.27726 
 H                     1.16479   1.85118   1.27871 
 O                     0.56093   2.55073  -0.55319 
 H                     1.06556   1.75995  -0.75718 
 

 GradGradGradGradGradGradGradGradGradGradGradGradGradGradGradGradGradGrad
 Berny optimization.
 Initialization pass.
                           ----------------------------
                           !    Initial Parameters    !
                           ! (Angstroms and Degrees)  !
 --------------------------                            --------------------------
 ! Name  Definition              Value          Derivative Info.                !
 --------------------------------------------------------------------------------
 ! R1    R(1,2)                  1.07           estimate D2E/DX2                !
 ! R2    R(1,3)                  1.07           estimate D2E/DX2                !
 ! R3    R(1,4)                  1.4774         estimate D2E/DX2                !
 ! R4    R(4,5)                  1.07           estimate D2E/DX2                !
 ! R5    R(4,6)                  1.07           estimate D2E/DX2                !
 ! R6    R(4,7)                  1.43           estimate D2E/DX2                !
 ! R7    R(7,8)                  0.96           estimate D2E/DX2                !
 ! A1    A(2,1,3)              119.8865         estimate D2E/DX2                !
 ! A2    A(2,1,4)              120.0628         estimate D2E/DX2                !
 ! A3    A(3,1,4)              119.7151         estimate D2E/DX2                !
 ! A4    A(1,4,5)              109.4712         estimate D2E/DX2                !
 ! A5    A(1,4,6)              109.4712         estimate D2E/DX2                !
 ! A6    A(1,4,7)              109.4712         estimate D2E/DX2                !
 ! A7    A(5,4,6)              109.4712         estimate D2E/DX2                !
 ! A8    A(5,4,7)              109.4712         estimate D2E/DX2                !
 ! A9    A(6,4,7)              109.4712         estimate D2E/DX2                !
 ! A10   A(4,7,8)               90.0            estimate D2E/DX2                !
 ! D1    D(2,1,4,5)           -146.6952         estimate D2E/DX2                !
 ! D2    D(2,1,4,6)            -26.6952         estimate D2E/DX2                !
 ! D3    D(2,1,4,7)             93.3048         estimate D2E/DX2                !
 ! D4    D(3,1,4,5)             26.6464         estimate D2E/DX2                !
 ! D5    D(3,1,4,6)            146.6464         estimate D2E/DX2                !
 ! D6    D(3,1,4,7)            -93.3536         estimate D2E/DX2                !
 ! D7    D(1,4,7,8)            -60.0            estimate D2E/DX2                !
 ! D8    D(5,4,7,8)            180.0            estimate D2E/DX2                !
 ! D9    D(6,4,7,8)             60.0            estimate D2E/DX2                !
 --------------------------------------------------------------------------------
 Trust Radius=3.00D-01 FncErr=1.00D-07 GrdErr=1.00D-06
 Number of steps in this run=  36 maximum allowed number of steps= 100.
 GradGradGradGradGradGradGradGradGradGradGradGradGradGradGradGradGradGrad

                          Input orientation:                          
 ---------------------------------------------------------------------
 Center     Atomic      Atomic             Coordinates (Angstroms)
 Number     Number       Type             X           Y           Z
 ---------------------------------------------------------------------
      1          6           0       -0.476164    0.748099    0.591772
      2          1           0        0.057000   -0.179606    0.591772
      3          1           0       -1.546164    0.748099    0.591772
      4          6           0        0.256154    2.022581    0.740285
      5          1           0       -0.350145    2.721836    1.277261
      6          1           0        1.164791    1.851183    1.278712
      7          8           0        0.560930    2.550734   -0.553185
      8          1           0        1.065558    1.759951   -0.757177
 ---------------------------------------------------------------------
                    Distance matrix (angstroms):
                    1          2          3          4          5
     1  C    0.000000
     2  H    1.070000   0.000000
     3  H    1.070000   1.852234   0.000000
     4  C    1.477379   2.216155   2.212399   0.000000
     5  H    2.093182   3.008991   2.407487   1.070000   0.000000
     6  H    2.093182   2.413129   3.006319   1.070000   1.747303
     7  O    2.374023   3.003270   3.000044   1.430000   2.051796
     8  H    2.284822   2.568800   3.108793   1.722353   2.658641
                    6          7          8
     6  H    0.000000
     7  O    2.051796   0.000000
     8  H    2.040346   0.960000   0.000000
 Stoichiometry    C2H5O(2)
 Framework group  C1[X(C2H5O)]
 Deg. of freedom    18
 Full point group                 C1      NOp   1
 Largest Abelian subgroup         C1      NOp   1
 Largest concise Abelian subgroup C1      NOp   1
                         Standard orientation:                         
 ---------------------------------------------------------------------
 Center     Atomic      Atomic             Coordinates (Angstroms)
 Number     Number       Type             X           Y           Z
 ---------------------------------------------------------------------
      1          6           0       -1.205097   -0.236333   -0.039999
      2          1           0       -1.654897   -0.656870    0.835060
      3          1           0       -1.711364   -0.295846   -0.980771
      4          6           0        0.038911    0.552461    0.073564
      5          1           0        0.039034    1.326629   -0.665058
      6          1           0        0.096277    0.989651    1.048487
      7          8           0        1.166194   -0.302961   -0.132318
      8          1           0        0.898516   -0.836641    0.619436
 ---------------------------------------------------------------------
 Rotational constants (GHZ):     36.8875768     10.2004514      9.1096112
 Standard basis: 6-31+G(d,p) (6D, 7F)
 There are    82 symmetry adapted basis functions of A   symmetry.
 Integral buffers will be    262144 words long.
 Raffenetti 2 integral format.
 Two-electron integral symmetry is turned on.
    82 basis functions,   131 primitive gaussians,    82 cartesian basis functions
    13 alpha electrons       12 beta electrons
       nuclear repulsion energy        75.9318939695 Hartrees.
 NAtoms=    8 NActive=    8 NUniq=    8 SFac= 7.50D-01 NAtFMM=   80 NAOKFM=F Big=F
 One-electron integrals computed using PRISM.
 NBasis=    82 RedAO= T  NBF=    82
 NBsUse=    82 1.00D-06 NBFU=    82
 Harris functional with IExCor= 1009 diagonalized for initial guess.
 ExpMin= 4.38D-02 ExpMax= 5.48D+03 ExpMxC= 8.25D+02 IAcc=2 IRadAn=         0 AccDes= 0.00D+00
 HarFok:  IExCor= 1009 AccDes= 0.00D+00 IRadAn=         0 IDoV= 1
 ScaDFX=  1.000000  1.000000  1.000000  1.000000
 FoFCou: FMM=F IPFlag=           0 FMFlag=      100000 FMFlg1=           0
         NFxFlg=           0 DoJE=T BraDBF=F KetDBF=T FulRan=T
         Omega=  0.000000  0.000000  1.000000  0.000000  0.000000 ICntrl=     500 IOpCl=  0
         NMat0=    1 NMatS0=    1 NMatT0=    0 NMatD0=    1 NMtDS0=    0 NMtDT0=    0
         I1Cent=           4 NGrid=           0.
 Petite list used in FoFCou.
 Initial guess orbital symmetries:
 Alpha Orbitals:
       Occupied  (A) (A) (A) (A) (A) (A) (A) (A) (A) (A) (A) (A)
                 (A)
       Virtual   (A) (A) (A) (A) (A) (A) (A) (A) (A) (A) (A) (A)
                 (A) (A) (A) (A) (A) (A) (A) (A) (A) (A) (A) (A)
                 (A) (A) (A) (A) (A) (A) (A) (A) (A) (A) (A) (A)
                 (A) (A) (A) (A) (A) (A) (A) (A) (A) (A) (A) (A)
                 (A) (A) (A) (A) (A) (A) (A) (A) (A) (A) (A) (A)
                 (A) (A) (A) (A) (A) (A) (A) (A) (A)
 Beta  Orbitals:
       Occupied  (A) (A) (A) (A) (A) (A) (A) (A) (A) (A) (A) (A)
       Virtual   (A) (A) (A) (A) (A) (A) (A) (A) (A) (A) (A) (A)
                 (A) (A) (A) (A) (A) (A) (A) (A) (A) (A) (A) (A)
                 (A) (A) (A) (A) (A) (A) (A) (A) (A) (A) (A) (A)
                 (A) (A) (A) (A) (A) (A) (A) (A) (A) (A) (A) (A)
                 (A) (A) (A) (A) (A) (A) (A) (A) (A) (A) (A) (A)
                 (A) (A) (A) (A) (A) (A) (A) (A) (A) (A)
 The electronic state of the initial guess is 2-A.
 Initial guess <Sx>= 0.0000 <Sy>= 0.0000 <Sz>= 0.5000 <S**2>= 0.7500 S= 0.5000
 Requested convergence on RMS density matrix=1.00D-08 within 128 cycles.
 Requested convergence on MAX density matrix=1.00D-06.
 Requested convergence on             energy=1.00D-06.
 No special actions if energy rises.
 Keep R1 and R2 ints in memory in canonical form, NReq=12588148.
 SCF Done:  E(UM052X) =  -154.336680728     A.U. after   13 cycles
             Convg  =    0.9350D-08             -V/T =  2.0076
 <Sx>= 0.0000 <Sy>= 0.0000 <Sz>= 0.5000 <S**2>= 0.7541 S= 0.5020
 <L.S>= 0.000000000000E+00
 Annihilation of the first spin contaminant:
 S**2 before annihilation     0.7541,   after     0.7500

 **********************************************************************

            Population analysis using the SCF density.

 **********************************************************************

 Orbital symmetries:
 Alpha Orbitals:
       Occupied  (A) (A) (A) (A) (A) (A) (A) (A) (A) (A) (A) (A)
                 (A)
       Virtual   (A) (A) (A) (A) (A) (A) (A) (A) (A) (A) (A) (A)
                 (A) (A) (A) (A) (A) (A) (A) (A) (A) (A) (A) (A)
                 (A) (A) (A) (A) (A) (A) (A) (A) (A) (A) (A) (A)
                 (A) (A) (A) (A) (A) (A) (A) (A) (A) (A) (A) (A)
                 (A) (A) (A) (A) (A) (A) (A) (A) (A) (A) (A) (A)
                 (A) (A) (A) (A) (A) (A) (A) (A) (A)
 Beta  Orbitals:
       Occupied  (A) (A) (A) (A) (A) (A) (A) (A) (A) (A) (A) (A)
       Virtual   (A) (A) (A) (A) (A) (A) (A) (A) (A) (A) (A) (A)
                 (A) (A) (A) (A) (A) (A) (A) (A) (A) (A) (A) (A)
                 (A) (A) (A) (A) (A) (A) (A) (A) (A) (A) (A) (A)
                 (A) (A) (A) (A) (A) (A) (A) (A) (A) (A) (A) (A)
                 (A) (A) (A) (A) (A) (A) (A) (A) (A) (A) (A) (A)
                 (A) (A) (A) (A) (A) (A) (A) (A) (A) (A)
 The electronic state is 2-A.
 Alpha  occ. eigenvalues --  -19.69387 -10.62278 -10.59444  -1.16323  -0.86430
 Alpha  occ. eigenvalues --   -0.71555  -0.60605  -0.53723  -0.52777  -0.48704
 Alpha  occ. eigenvalues --   -0.42798  -0.36516  -0.28852
 Alpha virt. eigenvalues --    0.05032   0.07187   0.07525   0.08865   0.11890
 Alpha virt. eigenvalues --    0.12025   0.12500   0.18327   0.20173   0.21816
 Alpha virt. eigenvalues --    0.25395   0.25786   0.27264   0.31197   0.31845
 Alpha virt. eigenvalues --    0.33511   0.36018   0.36848   0.41708   0.66259
 Alpha virt. eigenvalues --    0.68965   0.70251   0.72641   0.75265   0.87004
 Alpha virt. eigenvalues --    0.98738   0.99974   1.04568   1.07212   1.08448
 Alpha virt. eigenvalues --    1.13482   1.22575   1.26703   1.34959   1.40724
 Alpha virt. eigenvalues --    1.44839   1.47839   1.60802   1.63282   1.67883
 Alpha virt. eigenvalues --    1.83441   1.95261   1.96974   2.01883   2.02710
 Alpha virt. eigenvalues --    2.13375   2.21212   2.30754   2.33655   2.45267
 Alpha virt. eigenvalues --    2.47997   2.57383   2.58312   2.62782   2.67400
 Alpha virt. eigenvalues --    2.72004   2.73032   2.84715   2.89709   2.96384
 Alpha virt. eigenvalues --    3.04503   3.32737   3.45140   3.50512   3.56018
 Alpha virt. eigenvalues --    3.61826   4.19789   4.34622   4.60997
  Beta  occ. eigenvalues --  -19.69168 -10.62360 -10.58357  -1.15636  -0.84120
  Beta  occ. eigenvalues --   -0.69659  -0.60126  -0.52883  -0.51344  -0.47875
  Beta  occ. eigenvalues --   -0.42257  -0.35661
  Beta virt. eigenvalues --   -0.04505   0.05431   0.08200   0.08578   0.10265
  Beta virt. eigenvalues --    0.12607   0.13267   0.15473   0.19383   0.20918
  Beta virt. eigenvalues --    0.22218   0.26309   0.26483   0.28630   0.31734
  Beta virt. eigenvalues --    0.32318   0.34378   0.36835   0.37515   0.42460
  Beta virt. eigenvalues --    0.66951   0.69731   0.70878   0.76645   0.78621
  Beta virt. eigenvalues --    0.87502   0.99030   1.01929   1.06212   1.08470
  Beta virt. eigenvalues --    1.09173   1.14231   1.23107   1.27498   1.35438
  Beta virt. eigenvalues --    1.41309   1.45917   1.51666   1.61832   1.63446
  Beta virt. eigenvalues --    1.68278   1.85720   1.96113   1.98578   2.02581
  Beta virt. eigenvalues --    2.03951   2.14131   2.21295   2.30840   2.34682
  Beta virt. eigenvalues --    2.47209   2.48534   2.58871   2.59710   2.63791
  Beta virt. eigenvalues --    2.67706   2.72153   2.73297   2.85407   2.90155
  Beta virt. eigenvalues --    2.97597   3.04831   3.34447   3.47336   3.51942
  Beta virt. eigenvalues --    3.59141   3.62923   4.20152   4.37475   4.61376
          Condensed to atoms (all electrons):
              1          2          3          4          5          6
     1  C    5.413545   0.398653   0.401703   0.280436  -0.037278  -0.029882
     2  H    0.398653   0.503349  -0.026559  -0.037486   0.003901  -0.007606
     3  H    0.401703  -0.026559   0.483964  -0.035078  -0.007031   0.004249
     4  C    0.280436  -0.037486  -0.035078   5.047311   0.426873   0.380070
     5  H   -0.037278   0.003901  -0.007031   0.426873   0.546426  -0.034377
     6  H   -0.029882  -0.007606   0.004249   0.380070  -0.034377   0.600831
     7  O   -0.069588  -0.001164   0.006323   0.093272  -0.062514  -0.043211
     8  H    0.001711   0.002527  -0.000619  -0.013489   0.010578  -0.013446
              7          8
     1  C   -0.069588   0.001711
     2  H   -0.001164   0.002527
     3  H    0.006323  -0.000619
     4  C    0.093272  -0.013489
     5  H   -0.062514   0.010578
     6  H   -0.043211  -0.013446
     7  O    8.307289   0.232258
     8  H    0.232258   0.450837
 Mulliken atomic charges:
              1
     1  C   -0.359299
     2  H    0.164385
     3  H    0.173048
     4  C   -0.141908
     5  H    0.153422
     6  H    0.143372
     7  O   -0.462664
     8  H    0.329644
 Sum of Mulliken atomic charges =   0.00000
 Mulliken charges with hydrogens summed into heavy atoms:
              1
     1  C   -0.021867
     4  C    0.154886
     7  O   -0.133020
 Sum of Mulliken charges with hydrogens summed into heavy atoms =   0.00000
          Atomic-Atomic Spin Densities.
              1          2          3          4          5          6
     1  C    1.128526  -0.008715  -0.009460   0.033938  -0.012702  -0.015852
     2  H   -0.008715  -0.038936   0.001358   0.003322  -0.000080   0.000355
     3  H   -0.009460   0.001358  -0.039687   0.004505   0.000421   0.000000
     4  C    0.033938   0.003322   0.004505  -0.103588   0.015050   0.018884
     5  H   -0.012702  -0.000080   0.000421   0.015050   0.008362   0.001754
     6  H   -0.015852   0.000355   0.000000   0.018884   0.001754   0.004546
     7  O   -0.060560   0.000682  -0.000742  -0.009235  -0.006526  -0.006229
     8  H    0.002133  -0.000091   0.000116   0.008168   0.000164   0.000885
              7          8
     1  C   -0.060560   0.002133
     2  H    0.000682  -0.000091
     3  H   -0.000742   0.000116
     4  C   -0.009235   0.008168
     5  H   -0.006526   0.000164
     6  H   -0.006229   0.000885
     7  O    0.130382  -0.004200
     8  H   -0.004200  -0.004292
 Mulliken atomic spin densities:
              1
     1  C    1.057307
     2  H   -0.042104
     3  H   -0.043490
     4  C   -0.028955
     5  H    0.006443
     6  H    0.004342
     7  O    0.043573
     8  H    0.002883
 Sum of Mulliken atomic spin densities =   1.00000
 Electronic spatial extent (au):  <R**2>=            175.3311
 Charge=              0.0000 electrons
 Dipole moment (field-independent basis, Debye):
    X=             -1.7656    Y=              0.2434    Z=              1.3449  Tot=              2.2328
 Quadrupole moment (field-independent basis, Debye-Ang):
   XX=            -22.6263   YY=            -18.9753   ZZ=            -17.8799
   XY=              0.4150   XZ=              1.6179   YZ=             -1.8339
 Traceless Quadrupole moment (field-independent basis, Debye-Ang):
   XX=             -2.7991   YY=              0.8519   ZZ=              1.9472
   XY=              0.4150   XZ=              1.6179   YZ=             -1.8339
 Octapole moment (field-independent basis, Debye-Ang**2):
  XXX=             -0.1196  YYY=             -0.1124  ZZZ=              0.8719  XYY=              3.0753
  XXY=             -1.7247  XXZ=              0.7474  XZZ=              0.5140  YZZ=             -0.3529
  YYZ=              1.1443  XYZ=             -0.8821
 Hexadecapole moment (field-independent basis, Debye-Ang**3):
 XXXX=           -153.7056 YYYY=            -52.4844 ZZZZ=            -33.1391 XXXY=              1.3946
 XXXZ=              2.4357 YYYX=             -3.0710 YYYZ=             -3.0525 ZZZX=              1.7143
 ZZZY=             -1.7728 XXYY=            -32.8508 XXZZ=            -26.9073 YYZZ=            -13.3182
 XXYZ=             -2.2375 YYXZ=              0.6164 ZZXY=              0.1633
 N-N= 7.593189396952D+01 E-N=-7.630864195226D+02  KE= 2.290447767716D+02
                          Isotropic Fermi Contact Couplings
        Atom                 a.u.       MegaHertz       Gauss      10(-4) cm-1
     1  C(13)              0.13926     156.54987      55.86089      52.21942
     2  H(1)              -0.01333     -59.57346     -21.25729     -19.87157
     3  H(1)              -0.01387     -61.99894     -22.12276     -20.68062
     4  C(13)             -0.02166     -24.34628      -8.68736      -8.12104
     5  H(1)               0.00382      17.06157       6.08799       5.69113
     6  H(1)               0.00273      12.19711       4.35223       4.06852
     7  O(17)              0.05450     -33.03830     -11.78889     -11.02039
     8  H(1)              -0.00150      -6.69901      -2.39037      -2.23455
 --------------------------------------------------------
       Center         ----  Spin Dipole Couplings  ----
                      3XX-RR        3YY-RR        3ZZ-RR
 --------------------------------------------------------
     1   Atom       -0.069386      0.515510     -0.446123
     2   Atom       -0.027825      0.001495      0.026330
     3   Atom       -0.020261     -0.023623      0.043883
     4   Atom        0.006050      0.001659     -0.007709
     5   Atom        0.004238      0.005581     -0.009820
     6   Atom        0.005709     -0.000535     -0.005173
     7   Atom        0.333907     -0.157735     -0.176171
     8   Atom        0.007713     -0.011070      0.003357
 --------------------------------------------------------
                        XY            XZ            YZ
 --------------------------------------------------------
     1   Atom       -0.662423     -0.151614      0.232926
     2   Atom       -0.006557     -0.053276     -0.039142
     3   Atom       -0.025855      0.051548      0.018675
     4   Atom        0.012632      0.001116      0.001212
     5   Atom        0.011965     -0.005260     -0.005851
     6   Atom        0.009863      0.009142      0.008883
     7   Atom       -0.015504     -0.002540     -0.007803
     8   Atom       -0.002670      0.008630     -0.017680
 --------------------------------------------------------


 ---------------------------------------------------------------------------------
              Anisotropic Spin Dipole Couplings in Principal Axis System
 ---------------------------------------------------------------------------------

       Atom             a.u.   MegaHertz   Gauss  10(-4) cm-1        Axes

              Baa    -0.5011   -67.237   -23.992   -22.428  0.8252  0.5579 -0.0881
     1 C(13)  Bbb    -0.4995   -67.028   -23.917   -22.358  0.1777 -0.1085  0.9781
              Bcc     1.0006   134.266    47.909    44.786 -0.5361  0.8228  0.1887
 
              Baa    -0.0709   -37.818   -13.495   -12.615  0.7447  0.3684  0.5565
     2 H(1)   Bbb    -0.0017    -0.914    -0.326    -0.305 -0.5297  0.8335  0.1570
              Bcc     0.0726    38.732    13.821    12.920 -0.4060 -0.4117  0.8159
 
              Baa    -0.0704   -37.558   -13.402   -12.528  0.7161  0.5615 -0.4148
     3 H(1)   Bbb    -0.0023    -1.223    -0.436    -0.408 -0.5111  0.8264  0.2363
              Bcc     0.0727    38.780    13.838    12.936  0.4754  0.0427  0.8787
 
              Baa    -0.0090    -1.208    -0.431    -0.403 -0.6256  0.7608 -0.1729
     4 C(13)  Bbb    -0.0078    -1.044    -0.373    -0.348 -0.1618  0.0903  0.9827
              Bcc     0.0168     2.252     0.804     0.751  0.7632  0.6427  0.0666
 
              Baa    -0.0120    -6.387    -2.279    -2.131  0.1522  0.2176  0.9641
     5 H(1)   Bbb    -0.0071    -3.770    -1.345    -1.258  0.7344 -0.6777  0.0370
              Bcc     0.0190    10.158     3.624     3.388  0.6614  0.7024 -0.2630
 
              Baa    -0.0122    -6.515    -2.325    -2.173 -0.1439 -0.5193  0.8424
     6 H(1)   Bbb    -0.0072    -3.856    -1.376    -1.286  0.7002 -0.6550 -0.2841
              Bcc     0.0194    10.371     3.701     3.460  0.6993  0.5490  0.4579
 
              Baa    -0.1791    12.963     4.626     4.324  0.0153  0.3521  0.9358
     7 O(17)  Bbb    -0.1553    11.234     4.009     3.747  0.0278  0.9354 -0.3524
              Bcc     0.3344   -24.197    -8.634    -8.071  0.9995 -0.0314 -0.0045
 
              Baa    -0.0232   -12.370    -4.414    -4.126 -0.0893  0.8153  0.5721
     8 H(1)   Bbb     0.0022     1.189     0.424     0.396  0.8296  0.3788 -0.4102
              Bcc     0.0210    11.182     3.990     3.730  0.5511 -0.4380  0.7102
 

 ---------------------------------------------------------------------------------

 Calling FoFJK, ICntrl=      2127 FMM=F ISym2X=0 I1Cent= 0 IOpClX= 1 NMat=1 NMatS=1 NMatT=0.
 ***** Axes restored to original set *****
 -------------------------------------------------------------------
 Center     Atomic                   Forces (Hartrees/Bohr)
 Number     Number              X              Y              Z
 -------------------------------------------------------------------
      1        6          -0.001617272    0.000969530    0.008743567
      2        1           0.002070552   -0.008972787   -0.002047588
      3        1          -0.007492186   -0.002757280   -0.003556734
      4        6          -0.020544528   -0.000315245    0.008642151
      5        1          -0.005158950    0.013038968    0.005073190
      6        1           0.014879777    0.001530043    0.010551182
      7        8           0.007757669   -0.011076367    0.007142923
      8        1           0.010104940    0.007583139   -0.034548690
 -------------------------------------------------------------------
 Cartesian Forces:  Max     0.034548690 RMS     0.010967382

 GradGradGradGradGradGradGradGradGradGradGradGradGradGradGradGradGradGrad
 Berny optimization.
 Internal  Forces:  Max     0.065678203 RMS     0.015352496
 Search for a local minimum.
 Step number   1 out of a maximum of   36
 All quantities printed in internal units (Hartrees-Bohrs-Radians)
 Mixed Optimization -- RFO/linear search
 Second derivative matrix not updated -- first step.
     Eigenvalues ---    0.01065   0.01099   0.01295   0.06618   0.07653
     Eigenvalues ---    0.11376   0.13914   0.16000   0.16000   0.16000
     Eigenvalues ---    0.22118   0.34871   0.37230   0.37230   0.37230
     Eigenvalues ---    0.37230   0.40989   0.554731000.000001000.00000
     Eigenvalues --- 1000.000001000.000001000.000001000.000001000.00000
     Eigenvalues --- 1000.00000
 RFO step:  Lambda=-2.84119514D-02 EMin= 1.06517995D-02
 Linear search not attempted -- first point.
 Maximum step size (   0.300) exceeded in Quadratic search.
    -- Step size scaled by   0.773
 Iteration  1 RMS(Cart)=  0.08117478 RMS(Int)=  0.01665385
 Iteration  2 RMS(Cart)=  0.02491255 RMS(Int)=  0.00094756
 Iteration  3 RMS(Cart)=  0.00089030 RMS(Int)=  0.00027708
 Iteration  4 RMS(Cart)=  0.00000104 RMS(Int)=  0.00027708
 Iteration  5 RMS(Cart)=  0.00000000 RMS(Int)=  0.00027708
 Variable       Old X    -DE/DX   Delta X   Delta X   Delta X     New X
                                 (Linear)    (Quad)   (Total)
    R1        2.02201   0.00881   0.00000   0.01701   0.01701   2.03902
    R2        2.02201   0.00749   0.00000   0.01445   0.01445   2.03646
    R3        2.79184   0.01245   0.00000   0.02553   0.02553   2.81738
    R4        2.02201   0.01399   0.00000   0.02700   0.02700   2.04901
    R5        2.02201   0.01770   0.00000   0.03415   0.03415   2.05616
    R6        2.70231   0.02731   0.00000   0.04818   0.04818   2.75049
    R7        1.81414   0.00641   0.00000   0.00850   0.00850   1.82264
    A1        2.09241  -0.00398   0.00000  -0.01467  -0.01525   2.07716
    A2        2.09549   0.00189   0.00000   0.00939   0.00881   2.10430
    A3        2.08942   0.00243   0.00000   0.01162   0.01104   2.10046
    A4        1.91063   0.00211   0.00000   0.01178   0.01196   1.92260
    A5        1.91063   0.00133   0.00000   0.01642   0.01616   1.92680
    A6        1.91063   0.00820   0.00000   0.02797   0.02779   1.93842
    A7        1.91063  -0.00209   0.00000  -0.01725  -0.01754   1.89309
    A8        1.91063  -0.00748   0.00000  -0.03729  -0.03742   1.87321
    A9        1.91063  -0.00207   0.00000  -0.00164  -0.00222   1.90841
   A10        1.57080   0.06568   0.00000   0.26957   0.26957   1.84037
    D1       -2.56031  -0.00193   0.00000  -0.02793  -0.02790  -2.58821
    D2       -0.46592  -0.00238   0.00000  -0.03178  -0.03197  -0.49788
    D3        1.62848   0.00092   0.00000  -0.00660  -0.00648   1.62199
    D4        0.46507   0.00121   0.00000   0.03371   0.03376   0.49883
    D5        2.55946   0.00076   0.00000   0.02986   0.02969   2.58915
    D6       -1.62933   0.00406   0.00000   0.05504   0.05517  -1.57415
    D7       -1.04720  -0.00006   0.00000   0.00431   0.00410  -1.04310
    D8        3.14159  -0.00309   0.00000  -0.00441  -0.00397   3.13763
    D9        1.04720   0.00532   0.00000   0.04055   0.04031   1.08751
         Item               Value     Threshold  Converged?
 Maximum Force            0.065678     0.000450     NO 
 RMS     Force            0.015352     0.000300     NO 
 Maximum Displacement     0.390249     0.001800     NO 
 RMS     Displacement     0.103591     0.001200     NO 
 Predicted change in Energy=-1.475444D-02
 GradGradGradGradGradGradGradGradGradGradGradGradGradGradGradGradGradGrad

                          Input orientation:                          
 ---------------------------------------------------------------------
 Center     Atomic      Atomic             Coordinates (Angstroms)
 Number     Number       Type             X           Y           Z
 ---------------------------------------------------------------------
      1          6           0       -0.499590    0.720561    0.639271
      2          1           0        0.020384   -0.224804    0.651795
      3          1           0       -1.575714    0.724454    0.582101
      4          6           0        0.252484    2.001312    0.768948
      5          1           0       -0.355250    2.741670    1.277092
      6          1           0        1.163491    1.849553    1.344215
      7          8           0        0.592513    2.542954   -0.538522
      8          1           0        1.133642    1.867178   -0.963688
 ---------------------------------------------------------------------
                    Distance matrix (angstroms):
                    1          2          3          4          5
     1  C    0.000000
     2  H    1.079001   0.000000
     3  H    1.077648   1.858353   0.000000
     4  C    1.490891   2.241247   2.237763   0.000000
     5  H    2.124273   3.054843   2.457988   1.084289   0.000000
     6  H    2.130120   2.467609   3.057763   1.088071   1.762656
     7  O    2.429198   3.066704   3.043673   1.455497   2.057717
     8  H    2.559620   2.868016   3.322031   1.948450   2.828892
                    6          7          8
     6  H    0.000000
     7  O    2.086030   0.000000
     8  H    2.308163   0.964500   0.000000
 Stoichiometry    C2H5O(2)
 Framework group  C1[X(C2H5O)]
 Deg. of freedom    18
 Full point group                 C1      NOp   1
 Largest Abelian subgroup         C1      NOp   1
 Largest concise Abelian subgroup C1      NOp   1
                         Standard orientation:                         
 ---------------------------------------------------------------------
 Center     Atomic      Atomic             Coordinates (Angstroms)
 Number     Number       Type             X           Y           Z
 ---------------------------------------------------------------------
      1          6           0       -1.238403   -0.245028   -0.032579
      2          1           0       -1.691692   -0.673605    0.847816
      3          1           0       -1.731327   -0.361735   -0.983752
      4          6           0        0.014555    0.556005    0.073241
      5          1           0        0.031338    1.325992   -0.689989
      6          1           0        0.076920    1.035502    1.047967
      7          8           0        1.188638   -0.280189   -0.128707
      8          1           0        1.148746   -0.950507    0.563638
 ---------------------------------------------------------------------
 Rotational constants (GHZ):     36.2674624      9.7101725      8.6761310
 Standard basis: 6-31+G(d,p) (6D, 7F)
 There are    82 symmetry adapted basis functions of A   symmetry.
 Integral buffers will be    262144 words long.
 Raffenetti 2 integral format.
 Two-electron integral symmetry is turned on.
    82 basis functions,   131 primitive gaussians,    82 cartesian basis functions
    13 alpha electrons       12 beta electrons
       nuclear repulsion energy        74.4799494380 Hartrees.
 NAtoms=    8 NActive=    8 NUniq=    8 SFac= 7.50D-01 NAtFMM=   80 NAOKFM=F Big=F
 One-electron integrals computed using PRISM.
 NBasis=    82 RedAO= T  NBF=    82
 NBsUse=    82 1.00D-06 NBFU=    82
 Initial guess read from the read-write file.
 B after Tr=     0.000000    0.000000    0.000000
         Rot=    1.000000    0.000000    0.000000    0.000000 Ang=   0.00 deg.
 Initial guess orbital symmetries:
 Alpha Orbitals:
       Occupied  (A) (A) (A) (A) (A) (A) (A) (A) (A) (A) (A) (A)
                 (A)
       Virtual   (A) (A) (A) (A) (A) (A) (A) (A) (A) (A) (A) (A)
                 (A) (A) (A) (A) (A) (A) (A) (A) (A) (A) (A) (A)
                 (A) (A) (A) (A) (A) (A) (A) (A) (A) (A) (A) (A)
                 (A) (A) (A) (A) (A) (A) (A) (A) (A) (A) (A) (A)
                 (A) (A) (A) (A) (A) (A) (A) (A) (A) (A) (A) (A)
                 (A) (A) (A) (A) (A) (A) (A) (A) (A)
 Beta  Orbitals:
       Occupied  (A) (A) (A) (A) (A) (A) (A) (A) (A) (A) (A) (A)
       Virtual   (A) (A) (A) (A) (A) (A) (A) (A) (A) (A) (A) (A)
                 (A) (A) (A) (A) (A) (A) (A) (A) (A) (A) (A) (A)
                 (A) (A) (A) (A) (A) (A) (A) (A) (A) (A) (A) (A)
                 (A) (A) (A) (A) (A) (A) (A) (A) (A) (A) (A) (A)
                 (A) (A) (A) (A) (A) (A) (A) (A) (A) (A) (A) (A)
                 (A) (A) (A) (A) (A) (A) (A) (A) (A) (A)
 Initial guess <Sx>= 0.0000 <Sy>= 0.0000 <Sz>= 0.5000 <S**2>= 0.7542 S= 0.5021
 Harris functional with IExCor= 1009 diagonalized for initial guess.
 ExpMin= 4.38D-02 ExpMax= 5.48D+03 ExpMxC= 8.25D+02 IAcc=2 IRadAn=         0 AccDes= 0.00D+00
 HarFok:  IExCor= 1009 AccDes= 0.00D+00 IRadAn=         0 IDoV= 1
 ScaDFX=  1.000000  1.000000  1.000000  1.000000
 FoFCou: FMM=F IPFlag=           0 FMFlag=      100000 FMFlg1=           0
         NFxFlg=           0 DoJE=T BraDBF=F KetDBF=T FulRan=T
         Omega=  0.000000  0.000000  1.000000  0.000000  0.000000 ICntrl=     500 IOpCl=  0
         NMat0=    1 NMatS0=    1 NMatT0=    0 NMatD0=    1 NMtDS0=    0 NMtDT0=    0
         I1Cent=           4 NGrid=           0.
 Petite list used in FoFCou.
 Requested convergence on RMS density matrix=1.00D-08 within 128 cycles.
 Requested convergence on MAX density matrix=1.00D-06.
 Requested convergence on             energy=1.00D-06.
 No special actions if energy rises.
 Keep R1 and R2 ints in memory in canonical form, NReq=12588148.
 SCF Done:  E(UM052X) =  -154.348223681     A.U. after   13 cycles
             Convg  =    0.2372D-08             -V/T =  2.0092
 <Sx>= 0.0000 <Sy>= 0.0000 <Sz>= 0.5000 <S**2>= 0.7542 S= 0.5021
 <L.S>= 0.000000000000E+00
 Annihilation of the first spin contaminant:
 S**2 before annihilation     0.7542,   after     0.7500
 Calling FoFJK, ICntrl=      2127 FMM=F ISym2X=0 I1Cent= 0 IOpClX= 1 NMat=1 NMatS=1 NMatT=0.
 ***** Axes restored to original set *****
 -------------------------------------------------------------------
 Center     Atomic                   Forces (Hartrees/Bohr)
 Number     Number              X              Y              Z
 -------------------------------------------------------------------
      1        6           0.002484385    0.003963825    0.005752785
      2        1           0.000107908   -0.002026407   -0.001544877
      3        1          -0.001792482   -0.000864428   -0.002674004
      4        6          -0.001443269   -0.006114061   -0.009102663
      5        1          -0.000316784    0.005451514   -0.002632440
      6        1           0.003519195    0.000738991    0.001801134
      7        8          -0.000972671   -0.004513277    0.010360454
      8        1          -0.001586282    0.003363842   -0.001960389
 -------------------------------------------------------------------
 Cartesian Forces:  Max     0.010360454 RMS     0.004052626

 GradGradGradGradGradGradGradGradGradGradGradGradGradGradGradGradGradGrad
 Berny optimization.
 Using GEDIIS/GDIIS optimizer.
 Internal  Forces:  Max     0.008567429 RMS     0.003031905
 Search for a local minimum.
 Step number   2 out of a maximum of   36
 All quantities printed in internal units (Hartrees-Bohrs-Radians)
 Mixed Optimization -- RFO/linear search
 Update second derivatives using D2CorX and points    1    2
 DE= -1.15D-02 DEPred=-1.48D-02 R= 7.82D-01
 SS=  1.41D+00  RLast= 3.00D-01 DXNew= 5.0454D-01 8.9997D-01
 Trust test= 7.82D-01 RLast= 3.00D-01 DXMaxT set to 5.05D-01
 Use linear search instead of GDIIS.
     Eigenvalues ---    0.01065   0.01072   0.01296   0.06318   0.07499
     Eigenvalues ---    0.11439   0.13918   0.15981   0.16000   0.20125
     Eigenvalues ---    0.22003   0.35160   0.36818   0.37230   0.37230
     Eigenvalues ---    0.37234   0.46093   0.559101000.000001000.00000
     Eigenvalues --- 1000.000001000.000001000.000001000.000001000.00000
     Eigenvalues --- 1000.00000
 RFO step:  Lambda=-2.12547619D-03 EMin= 1.06531684D-02
 Quartic linear search produced a step of  0.14236.
 Iteration  1 RMS(Cart)=  0.04587945 RMS(Int)=  0.00384989
 Iteration  2 RMS(Cart)=  0.00288297 RMS(Int)=  0.00225958
 Iteration  3 RMS(Cart)=  0.00000434 RMS(Int)=  0.00225958
 Iteration  4 RMS(Cart)=  0.00000001 RMS(Int)=  0.00225958
 Variable       Old X    -DE/DX   Delta X   Delta X   Delta X     New X
                                 (Linear)    (Quad)   (Total)
    R1        2.03902   0.00180   0.00242   0.00326   0.00569   2.04470
    R2        2.03646   0.00193   0.00206   0.00399   0.00605   2.04250
    R3        2.81738  -0.00146   0.00364  -0.00809  -0.00445   2.81293
    R4        2.04901   0.00266   0.00384   0.00456   0.00841   2.05742
    R5        2.05616   0.00380   0.00486   0.00709   0.01196   2.06811
    R6        2.75049  -0.00857   0.00686  -0.03002  -0.02316   2.72733
    R7        1.82264  -0.00238   0.00121  -0.00600  -0.00479   1.81785
    A1        2.07716  -0.00139  -0.00217  -0.00466  -0.01350   2.06366
    A2        2.10430   0.00077   0.00125   0.00741   0.00209   2.10638
    A3        2.10046   0.00073   0.00157   0.00685   0.00184   2.10230
    A4        1.92260   0.00303   0.00170   0.02114   0.02273   1.94533
    A5        1.92680   0.00042   0.00230   0.01666   0.01853   1.94533
    A6        1.93842   0.00291   0.00396   0.00964   0.01347   1.95188
    A7        1.89309   0.00005  -0.00250   0.00529   0.00212   1.89521
    A8        1.87321  -0.00618  -0.00533  -0.05905  -0.06438   1.80883
    A9        1.90841  -0.00047  -0.00032   0.00423   0.00345   1.91186
   A10        1.84037   0.00620   0.03838   0.00940   0.04778   1.88814
    D1       -2.58821  -0.00293  -0.00397  -0.10496  -0.10883  -2.69703
    D2       -0.49788  -0.00068  -0.00455  -0.07431  -0.07855  -0.57643
    D3        1.62199   0.00097  -0.00092  -0.05117  -0.05162   1.57038
    D4        0.49883  -0.00057   0.00481   0.10185   0.10616   0.60499
    D5        2.58915   0.00169   0.00423   0.13250   0.13644   2.72559
    D6       -1.57415   0.00334   0.00785   0.15564   0.16337  -1.41078
    D7       -1.04310   0.00020   0.00058   0.01719   0.01773  -1.02537
    D8        3.13763  -0.00133  -0.00056   0.02289   0.02260  -3.12296
    D9        1.08751   0.00232   0.00574   0.04729   0.05280   1.14031
         Item               Value     Threshold  Converged?
 Maximum Force            0.008567     0.000450     NO 
 RMS     Force            0.003032     0.000300     NO 
 Maximum Displacement     0.135670     0.001800     NO 
 RMS     Displacement     0.045816     0.001200     NO 
 Predicted change in Energy=-1.104361D-03
 GradGradGradGradGradGradGradGradGradGradGradGradGradGradGradGradGradGrad

                          Input orientation:                          
 ---------------------------------------------------------------------
 Center     Atomic      Atomic             Coordinates (Angstroms)
 Number     Number       Type             X           Y           Z
 ---------------------------------------------------------------------
      1          6           0       -0.499662    0.712883    0.690664
      2          1           0        0.017263   -0.236749    0.649020
      3          1           0       -1.565304    0.723412    0.510307
      4          6           0        0.261322    1.988330    0.790044
      5          1           0       -0.333763    2.771910    1.256118
      6          1           0        1.182950    1.860810    1.366280
      7          8           0        0.576134    2.528329   -0.510820
      8          1           0        1.093020    1.873953   -0.990400
 ---------------------------------------------------------------------
                    Distance matrix (angstroms):
                    1          2          3          4          5
     1  C    0.000000
     2  H    1.082010   0.000000
     3  H    1.080847   1.856251   0.000000
     4  C    1.488536   2.242861   2.239382   0.000000
     5  H    2.141695   3.089307   2.503851   1.088738   0.000000
     6  H    2.146015   2.504604   3.095038   1.094398   1.772755
     7  O    2.428322   3.050118   2.980970   1.443243   2.002327
     8  H    2.590501   2.880974   3.262292   1.968447   2.808715
                    6          7          8
     6  H    0.000000
     7  O    2.082622   0.000000
     8  H    2.358432   0.961965   0.000000
 Stoichiometry    C2H5O(2)
 Framework group  C1[X(C2H5O)]
 Deg. of freedom    18
 Full point group                 C1      NOp   1
 Largest Abelian subgroup         C1      NOp   1
 Largest concise Abelian subgroup C1      NOp   1
                         Standard orientation:                         
 ---------------------------------------------------------------------
 Center     Atomic      Atomic             Coordinates (Angstroms)
 Number     Number       Type             X           Y           Z
 ---------------------------------------------------------------------
      1          6           0       -1.250593   -0.217129   -0.025376
      2          1           0       -1.692096   -0.653183    0.861009
      3          1           0       -1.668632   -0.479516   -0.986952
      4          6           0        0.018144    0.556674    0.059914
      5          1           0        0.101473    1.275865   -0.753210
      6          1           0        0.096347    1.093890    1.010173
      7          8           0        1.175080   -0.288546   -0.113445
      8          1           0        1.156957   -0.965954    0.569318
 ---------------------------------------------------------------------
 Rotational constants (GHZ):     36.3006415      9.7706798      8.7217039
 Standard basis: 6-31+G(d,p) (6D, 7F)
 There are    82 symmetry adapted basis functions of A   symmetry.
 Integral buffers will be    262144 words long.
 Raffenetti 2 integral format.
 Two-electron integral symmetry is turned on.
    82 basis functions,   131 primitive gaussians,    82 cartesian basis functions
    13 alpha electrons       12 beta electrons
       nuclear repulsion energy        74.6443788866 Hartrees.
 NAtoms=    8 NActive=    8 NUniq=    8 SFac= 7.50D-01 NAtFMM=   80 NAOKFM=F Big=F
 One-electron integrals computed using PRISM.
 NBasis=    82 RedAO= T  NBF=    82
 NBsUse=    82 1.00D-06 NBFU=    82
 Initial guess read from the read-write file.
 B after Tr=     0.000000    0.000000    0.000000
         Rot=    1.000000    0.000000    0.000000    0.000000 Ang=   0.00 deg.
 Initial guess orbital symmetries:
 Alpha Orbitals:
       Occupied  (A) (A) (A) (A) (A) (A) (A) (A) (A) (A) (A) (A)
                 (A)
       Virtual   (A) (A) (A) (A) (A) (A) (A) (A) (A) (A) (A) (A)
                 (A) (A) (A) (A) (A) (A) (A) (A) (A) (A) (A) (A)
                 (A) (A) (A) (A) (A) (A) (A) (A) (A) (A) (A) (A)
                 (A) (A) (A) (A) (A) (A) (A) (A) (A) (A) (A) (A)
                 (A) (A) (A) (A) (A) (A) (A) (A) (A) (A) (A) (A)
                 (A) (A) (A) (A) (A) (A) (A) (A) (A)
 Beta  Orbitals:
       Occupied  (A) (A) (A) (A) (A) (A) (A) (A) (A) (A) (A) (A)
       Virtual   (A) (A) (A) (A) (A) (A) (A) (A) (A) (A) (A) (A)
                 (A) (A) (A) (A) (A) (A) (A) (A) (A) (A) (A) (A)
                 (A) (A) (A) (A) (A) (A) (A) (A) (A) (A) (A) (A)
                 (A) (A) (A) (A) (A) (A) (A) (A) (A) (A) (A) (A)
                 (A) (A) (A) (A) (A) (A) (A) (A) (A) (A) (A) (A)
                 (A) (A) (A) (A) (A) (A) (A) (A) (A) (A)
 Initial guess <Sx>= 0.0000 <Sy>= 0.0000 <Sz>= 0.5000 <S**2>= 0.7542 S= 0.5021
 Harris functional with IExCor= 1009 diagonalized for initial guess.
 ExpMin= 4.38D-02 ExpMax= 5.48D+03 ExpMxC= 8.25D+02 IAcc=2 IRadAn=         0 AccDes= 0.00D+00
 HarFok:  IExCor= 1009 AccDes= 0.00D+00 IRadAn=         0 IDoV= 1
 ScaDFX=  1.000000  1.000000  1.000000  1.000000
 FoFCou: FMM=F IPFlag=           0 FMFlag=      100000 FMFlg1=           0
         NFxFlg=           0 DoJE=T BraDBF=F KetDBF=T FulRan=T
         Omega=  0.000000  0.000000  1.000000  0.000000  0.000000 ICntrl=     500 IOpCl=  0
         NMat0=    1 NMatS0=    1 NMatT0=    0 NMatD0=    1 NMtDS0=    0 NMtDT0=    0
         I1Cent=           4 NGrid=           0.
 Petite list used in FoFCou.
 Requested convergence on RMS density matrix=1.00D-08 within 128 cycles.
 Requested convergence on MAX density matrix=1.00D-06.
 Requested convergence on             energy=1.00D-06.
 No special actions if energy rises.
 Keep R1 and R2 ints in memory in canonical form, NReq=12588148.
 SCF Done:  E(UM052X) =  -154.349363938     A.U. after   13 cycles
             Convg  =    0.3235D-08             -V/T =  2.0092
 <Sx>= 0.0000 <Sy>= 0.0000 <Sz>= 0.5000 <S**2>= 0.7543 S= 0.5021
 <L.S>= 0.000000000000E+00
 Annihilation of the first spin contaminant:
 S**2 before annihilation     0.7543,   after     0.7500
 Calling FoFJK, ICntrl=      2127 FMM=F ISym2X=0 I1Cent= 0 IOpClX= 1 NMat=1 NMatS=1 NMatT=0.
 ***** Axes restored to original set *****
 -------------------------------------------------------------------
 Center     Atomic                   Forces (Hartrees/Bohr)
 Number     Number              X              Y              Z
 -------------------------------------------------------------------
      1        6           0.001407856    0.001284282    0.000969950
      2        1          -0.000127008   -0.000019745    0.000265551
      3        1           0.000234514    0.000229492   -0.000739885
      4        6          -0.000649630    0.001519519   -0.002337333
      5        1          -0.000312812   -0.000965103    0.001587139
      6        1          -0.000620326   -0.000575189   -0.000058128
      7        8           0.000346918   -0.001592115    0.000786835
      8        1          -0.000279511    0.000118859   -0.000474130
 -------------------------------------------------------------------
 Cartesian Forces:  Max     0.002337333 RMS     0.000943555

 GradGradGradGradGradGradGradGradGradGradGradGradGradGradGradGradGradGrad
 Berny optimization.
 Using GEDIIS/GDIIS optimizer.
 Internal  Forces:  Max     0.002087189 RMS     0.000738849
 Search for a local minimum.
 Step number   3 out of a maximum of   36
 All quantities printed in internal units (Hartrees-Bohrs-Radians)
 Mixed Optimization -- En-DIIS/RFO-DIIS
 Update second derivatives using D2CorX and points    1    2    3
 DE= -1.14D-03 DEPred=-1.10D-03 R= 1.03D+00
 SS=  1.41D+00  RLast= 2.99D-01 DXNew= 8.4853D-01 8.9700D-01
 Trust test= 1.03D+00 RLast= 2.99D-01 DXMaxT set to 8.49D-01
 Use linear search instead of GDIIS.
     Eigenvalues ---    0.00944   0.01126   0.01287   0.06361   0.07656
     Eigenvalues ---    0.12676   0.13971   0.15917   0.16057   0.17982
     Eigenvalues ---    0.22404   0.35287   0.37038   0.37230   0.37232
     Eigenvalues ---    0.37332   0.46287   0.559501000.000001000.00000
     Eigenvalues --- 1000.000001000.000001000.000001000.000001000.00000
     Eigenvalues --- 1000.00000
 RFO step:  Lambda=-1.57840001D-04 EMin= 9.43955859D-03
 Quartic linear search produced a step of -0.00296.
 Iteration  1 RMS(Cart)=  0.01766420 RMS(Int)=  0.00030798
 Iteration  2 RMS(Cart)=  0.00025817 RMS(Int)=  0.00006851
 Iteration  3 RMS(Cart)=  0.00000005 RMS(Int)=  0.00006851
 Variable       Old X    -DE/DX   Delta X   Delta X   Delta X     New X
                                 (Linear)    (Quad)   (Total)
    R1        2.04470  -0.00005  -0.00002   0.00021   0.00019   2.04489
    R2        2.04250  -0.00011  -0.00002   0.00009   0.00008   2.04258
    R3        2.81293  -0.00209   0.00001  -0.00629  -0.00628   2.80665
    R4        2.05742   0.00015  -0.00002   0.00092   0.00089   2.05831
    R5        2.06811  -0.00048  -0.00004  -0.00055  -0.00059   2.06752
    R6        2.72733  -0.00082   0.00007  -0.00361  -0.00354   2.72379
    R7        1.81785   0.00000   0.00001  -0.00034  -0.00032   1.81753
    A1        2.06366   0.00008   0.00004  -0.00186  -0.00202   2.06165
    A2        2.10638   0.00030  -0.00001   0.00052   0.00032   2.10671
    A3        2.10230  -0.00043  -0.00001  -0.00404  -0.00424   2.09806
    A4        1.94533  -0.00065  -0.00007  -0.00291  -0.00300   1.94233
    A5        1.94533  -0.00063  -0.00005  -0.00749  -0.00756   1.93777
    A6        1.95188  -0.00089  -0.00004  -0.00218  -0.00222   1.94967
    A7        1.89521  -0.00004  -0.00001  -0.00187  -0.00193   1.89328
    A8        1.80883   0.00169   0.00019   0.01213   0.01232   1.82115
    A9        1.91186   0.00071  -0.00001   0.00374   0.00371   1.91558
   A10        1.88814   0.00080  -0.00014   0.00759   0.00745   1.89559
    D1       -2.69703   0.00085   0.00032   0.01666   0.01698  -2.68005
    D2       -0.57643  -0.00011   0.00023   0.00696   0.00721  -0.56922
    D3        1.57038  -0.00029   0.00015   0.00475   0.00492   1.57530
    D4        0.60499   0.00114  -0.00031   0.05631   0.05597   0.66096
    D5        2.72559   0.00019  -0.00040   0.04660   0.04620   2.77179
    D6       -1.41078   0.00001  -0.00048   0.04439   0.04391  -1.36688
    D7       -1.02537   0.00045  -0.00005   0.02184   0.02180  -1.00358
    D8       -3.12296   0.00066  -0.00007   0.01910   0.01905  -3.10391
    D9        1.14031  -0.00047  -0.00016   0.01341   0.01323   1.15353
         Item               Value     Threshold  Converged?
 Maximum Force            0.002087     0.000450     NO 
 RMS     Force            0.000739     0.000300     NO 
 Maximum Displacement     0.060564     0.001800     NO 
 RMS     Displacement     0.017712     0.001200     NO 
 Predicted change in Energy=-7.943532D-05
 GradGradGradGradGradGradGradGradGradGradGradGradGradGradGradGradGradGrad

                          Input orientation:                          
 ---------------------------------------------------------------------
 Center     Atomic      Atomic             Coordinates (Angstroms)
 Number     Number       Type             X           Y           Z
 ---------------------------------------------------------------------
      1          6           0       -0.495962    0.717317    0.697957
      2          1           0        0.021428   -0.232432    0.662628
      3          1           0       -1.554216    0.729501    0.478258
      4          6           0        0.262210    1.990875    0.793279
      5          1           0       -0.331635    2.769905    1.269558
      6          1           0        1.183601    1.857132    1.367888
      7          8           0        0.573311    2.524856   -0.508882
      8          1           0        1.073223    1.865725   -0.999473
 ---------------------------------------------------------------------
                    Distance matrix (angstroms):
                    1          2          3          4          5
     1  C    0.000000
     2  H    1.082110   0.000000
     3  H    1.080888   1.855252   0.000000
     4  C    1.485214   2.240120   2.233765   0.000000
     5  H    2.137018   3.083349   2.506812   1.089211   0.000000
     6  H    2.137502   2.492853   3.091704   1.094086   1.771655
     7  O    2.422190   3.046252   2.953661   1.441369   2.010429
     8  H    2.581172   2.875954   3.221510   1.971640   2.817741
                    6          7          8
     6  H    0.000000
     7  O    2.083405   0.000000
     8  H    2.369948   0.961793   0.000000
 Stoichiometry    C2H5O(2)
 Framework group  C1[X(C2H5O)]
 Deg. of freedom    18
 Full point group                 C1      NOp   1
 Largest Abelian subgroup         C1      NOp   1
 Largest concise Abelian subgroup C1      NOp   1
                         Standard orientation:                         
 ---------------------------------------------------------------------
 Center     Atomic      Atomic             Coordinates (Angstroms)
 Number     Number       Type             X           Y           Z
 ---------------------------------------------------------------------
      1          6           0       -1.247235   -0.215382   -0.025004
      2          1           0       -1.692828   -0.637838    0.866029
      3          1           0       -1.638208   -0.522328   -0.984818
      4          6           0        0.017703    0.558956    0.053685
      5          1           0        0.093525    1.276473   -0.762282
      6          1           0        0.087081    1.102300    1.000779
      7          8           0        1.172445   -0.288468   -0.107519
      8          1           0        1.148058   -0.972308    0.568361
 ---------------------------------------------------------------------
 Rotational constants (GHZ):     36.1792052      9.8366988      8.7598829
 Standard basis: 6-31+G(d,p) (6D, 7F)
 There are    82 symmetry adapted basis functions of A   symmetry.
 Integral buffers will be    262144 words long.
 Raffenetti 2 integral format.
 Two-electron integral symmetry is turned on.
    82 basis functions,   131 primitive gaussians,    82 cartesian basis functions
    13 alpha electrons       12 beta electrons
       nuclear repulsion energy        74.7464843959 Hartrees.
 NAtoms=    8 NActive=    8 NUniq=    8 SFac= 7.50D-01 NAtFMM=   80 NAOKFM=F Big=F
 One-electron integrals computed using PRISM.
 NBasis=    82 RedAO= T  NBF=    82
 NBsUse=    82 1.00D-06 NBFU=    82
 Initial guess read from the read-write file.
 B after Tr=     0.000000    0.000000    0.000000
         Rot=    1.000000    0.000000    0.000000    0.000000 Ang=   0.00 deg.
 Initial guess orbital symmetries:
 Alpha Orbitals:
       Occupied  (A) (A) (A) (A) (A) (A) (A) (A) (A) (A) (A) (A)
                 (A)
       Virtual   (A) (A) (A) (A) (A) (A) (A) (A) (A) (A) (A) (A)
                 (A) (A) (A) (A) (A) (A) (A) (A) (A) (A) (A) (A)
                 (A) (A) (A) (A) (A) (A) (A) (A) (A) (A) (A) (A)
                 (A) (A) (A) (A) (A) (A) (A) (A) (A) (A) (A) (A)
                 (A) (A) (A) (A) (A) (A) (A) (A) (A) (A) (A) (A)
                 (A) (A) (A) (A) (A) (A) (A) (A) (A)
 Beta  Orbitals:
       Occupied  (A) (A) (A) (A) (A) (A) (A) (A) (A) (A) (A) (A)
       Virtual   (A) (A) (A) (A) (A) (A) (A) (A) (A) (A) (A) (A)
                 (A) (A) (A) (A) (A) (A) (A) (A) (A) (A) (A) (A)
                 (A) (A) (A) (A) (A) (A) (A) (A) (A) (A) (A) (A)
                 (A) (A) (A) (A) (A) (A) (A) (A) (A) (A) (A) (A)
                 (A) (A) (A) (A) (A) (A) (A) (A) (A) (A) (A) (A)
                 (A) (A) (A) (A) (A) (A) (A) (A) (A) (A)
 Initial guess <Sx>= 0.0000 <Sy>= 0.0000 <Sz>= 0.5000 <S**2>= 0.7542 S= 0.5021
 Harris functional with IExCor= 1009 diagonalized for initial guess.
 ExpMin= 4.38D-02 ExpMax= 5.48D+03 ExpMxC= 8.25D+02 IAcc=2 IRadAn=         0 AccDes= 0.00D+00
 HarFok:  IExCor= 1009 AccDes= 0.00D+00 IRadAn=         0 IDoV= 1
 ScaDFX=  1.000000  1.000000  1.000000  1.000000
 FoFCou: FMM=F IPFlag=           0 FMFlag=      100000 FMFlg1=           0
         NFxFlg=           0 DoJE=T BraDBF=F KetDBF=T FulRan=T
         Omega=  0.000000  0.000000  1.000000  0.000000  0.000000 ICntrl=     500 IOpCl=  0
         NMat0=    1 NMatS0=    1 NMatT0=    0 NMatD0=    1 NMtDS0=    0 NMtDT0=    0
         I1Cent=           4 NGrid=           0.
 Petite list used in FoFCou.
 Requested convergence on RMS density matrix=1.00D-08 within 128 cycles.
 Requested convergence on MAX density matrix=1.00D-06.
 Requested convergence on             energy=1.00D-06.
 No special actions if energy rises.
 Keep R1 and R2 ints in memory in canonical form, NReq=12588148.
 SCF Done:  E(UM052X) =  -154.349469892     A.U. after   12 cycles
             Convg  =    0.3452D-08             -V/T =  2.0091
 <Sx>= 0.0000 <Sy>= 0.0000 <Sz>= 0.5000 <S**2>= 0.7543 S= 0.5021
 <L.S>= 0.000000000000E+00
 Annihilation of the first spin contaminant:
 S**2 before annihilation     0.7543,   after     0.7500
 Calling FoFJK, ICntrl=      2127 FMM=F ISym2X=0 I1Cent= 0 IOpClX= 1 NMat=1 NMatS=1 NMatT=0.
 ***** Axes restored to original set *****
 -------------------------------------------------------------------
 Center     Atomic                   Forces (Hartrees/Bohr)
 Number     Number              X              Y              Z
 -------------------------------------------------------------------
      1        6          -0.000100462   -0.000525246   -0.000246762
      2        1          -0.000138606   -0.000054074    0.000566198
      3        1           0.000043344    0.000073900   -0.000417428
      4        6           0.000676223    0.000698205   -0.000734400
      5        1           0.000091733   -0.000278093    0.000290774
      6        1          -0.000085761    0.000098046   -0.000156329
      7        8          -0.000311201    0.000354276    0.000543370
      8        1          -0.000175270   -0.000367014    0.000154576
 -------------------------------------------------------------------
 Cartesian Forces:  Max     0.000734400 RMS     0.000369341

 GradGradGradGradGradGradGradGradGradGradGradGradGradGradGradGradGradGrad
 Berny optimization.
 Using GEDIIS/GDIIS optimizer.
 Internal  Forces:  Max     0.000737017 RMS     0.000280833
 Search for a local minimum.
 Step number   4 out of a maximum of   36
 All quantities printed in internal units (Hartrees-Bohrs-Radians)
 Mixed Optimization -- En-DIIS/RFO-DIIS
 Swaping is turned off.
 Update second derivatives using D2CorX and points    1    2    3    4
 DE= -1.06D-04 DEPred=-7.94D-05 R= 1.33D+00
 SS=  1.41D+00  RLast= 9.46D-02 DXNew= 1.4270D+00 2.8371D-01
 Trust test= 1.33D+00 RLast= 9.46D-02 DXMaxT set to 8.49D-01
     Eigenvalues ---    0.00457   0.01270   0.01345   0.06515   0.07655
     Eigenvalues ---    0.12643   0.14027   0.15832   0.15999   0.20325
     Eigenvalues ---    0.22517   0.36789   0.37156   0.37228   0.37231
     Eigenvalues ---    0.39522   0.45741   0.559161000.000001000.00000
     Eigenvalues --- 1000.000001000.000001000.000001000.000001000.00000
     Eigenvalues --- 1000.00000
 En-DIIS/RFO-DIIS IScMMF=        0 using points:     4    3
 RFO step:  Lambda=-1.00714783D-05.
 DIIS coeffs:      1.46429     -0.46429
 Iteration  1 RMS(Cart)=  0.02768120 RMS(Int)=  0.00061722
 Iteration  2 RMS(Cart)=  0.00060520 RMS(Int)=  0.00005331
 Iteration  3 RMS(Cart)=  0.00000025 RMS(Int)=  0.00005331
 Variable       Old X    -DE/DX   Delta X   Delta X   Delta X     New X
                                  (DIIS)     (GDIIS)  (Total)
    R1        2.04489  -0.00004   0.00009   0.00023   0.00032   2.04521
    R2        2.04258   0.00004   0.00004   0.00053   0.00057   2.04315
    R3        2.80665   0.00054  -0.00291   0.00193  -0.00098   2.80566
    R4        2.05831  -0.00012   0.00042   0.00013   0.00054   2.05886
    R5        2.06752  -0.00016  -0.00027   0.00009  -0.00019   2.06734
    R6        2.72379  -0.00074  -0.00165  -0.00326  -0.00491   2.71889
    R7        1.81753   0.00007  -0.00015   0.00007  -0.00008   1.81745
    A1        2.06165  -0.00001  -0.00094  -0.00078  -0.00188   2.05977
    A2        2.10671   0.00024   0.00015   0.00245   0.00245   2.10916
    A3        2.09806  -0.00021  -0.00197  -0.00188  -0.00400   2.09406
    A4        1.94233  -0.00009  -0.00139  -0.00097  -0.00237   1.93996
    A5        1.93777   0.00007  -0.00351   0.00128  -0.00224   1.93552
    A6        1.94967  -0.00015  -0.00103   0.00001  -0.00101   1.94865
    A7        1.89328  -0.00009  -0.00090  -0.00192  -0.00286   1.89043
    A8        1.82115   0.00013   0.00572  -0.00104   0.00468   1.82583
    A9        1.91558   0.00013   0.00172   0.00247   0.00419   1.91977
   A10        1.89559  -0.00064   0.00346  -0.00050   0.00296   1.89855
    D1       -2.68005   0.00037   0.00789   0.04146   0.04934  -2.63071
    D2       -0.56922   0.00025   0.00335   0.03923   0.04259  -0.52664
    D3        1.57530   0.00037   0.00228   0.04336   0.04565   1.62095
    D4        0.66096   0.00028   0.02599   0.04279   0.06876   0.72972
    D5        2.77179   0.00016   0.02145   0.04056   0.06201   2.83379
    D6       -1.36688   0.00028   0.02039   0.04469   0.06507  -1.30181
    D7       -1.00358   0.00007   0.01012   0.01665   0.02678  -0.97680
    D8       -3.10391   0.00019   0.00885   0.01844   0.02730  -3.07661
    D9        1.15353   0.00016   0.00614   0.02007   0.02620   1.17973
         Item               Value     Threshold  Converged?
 Maximum Force            0.000737     0.000450     NO 
 RMS     Force            0.000281     0.000300     YES
 Maximum Displacement     0.093984     0.001800     NO 
 RMS     Displacement     0.027715     0.001200     NO 
 Predicted change in Energy=-5.414859D-05
 GradGradGradGradGradGradGradGradGradGradGradGradGradGradGradGradGradGrad

                          Input orientation:                          
 ---------------------------------------------------------------------
 Center     Atomic      Atomic             Coordinates (Angstroms)
 Number     Number       Type             X           Y           Z
 ---------------------------------------------------------------------
      1          6           0       -0.492806    0.719431    0.700548
      2          1           0        0.019290   -0.234029    0.699708
      3          1           0       -1.539112    0.734180    0.428524
      4          6           0        0.266861    1.991453    0.796370
      5          1           0       -0.323833    2.766365    1.283812
      6          1           0        1.189823    1.852718    1.367073
      7          8           0        0.568439    2.528839   -0.503758
      8          1           0        1.043298    1.863921   -1.011064
 ---------------------------------------------------------------------
                    Distance matrix (angstroms):
                    1          2          3          4          5
     1  C    0.000000
     2  H    1.082279   0.000000
     3  H    1.081189   1.854612   0.000000
     4  C    1.484694   2.241295   2.231050   0.000000
     5  H    2.135108   3.075919   2.517577   1.089500   0.000000
     6  H    2.135377   2.483956   3.095010   1.093987   1.769983
     7  O    2.418791   3.063223   2.920911   1.438772   2.011958
     8  H    2.568869   2.894257   3.165054   1.971278   2.819558
                    6          7          8
     6  H    0.000000
     7  O    2.084051   0.000000
     8  H    2.382673   0.961752   0.000000
 Stoichiometry    C2H5O(2)
 Framework group  C1[X(C2H5O)]
 Deg. of freedom    18
 Full point group                 C1      NOp   1
 Largest Abelian subgroup         C1      NOp   1
 Largest concise Abelian subgroup C1      NOp   1
                         Standard orientation:                         
 ---------------------------------------------------------------------
 Center     Atomic      Atomic             Coordinates (Angstroms)
 Number     Number       Type             X           Y           Z
 ---------------------------------------------------------------------
      1          6           0       -1.245575   -0.214131   -0.024597
      2          1           0       -1.719103   -0.581110    0.876750
      3          1           0       -1.598415   -0.592692   -0.973895
      4          6           0        0.019063    0.560896    0.041282
      5          1           0        0.094467    1.261594   -0.789589
      6          1           0        0.081505    1.127149    0.975233
      7          8           0        1.170967   -0.290188   -0.095978
      8          1           0        1.132883   -0.974019    0.579219
 ---------------------------------------------------------------------
 Rotational constants (GHZ):     36.1308576      9.8790188      8.7790629
 Standard basis: 6-31+G(d,p) (6D, 7F)
 There are    82 symmetry adapted basis functions of A   symmetry.
 Integral buffers will be    262144 words long.
 Raffenetti 2 integral format.
 Two-electron integral symmetry is turned on.
    82 basis functions,   131 primitive gaussians,    82 cartesian basis functions
    13 alpha electrons       12 beta electrons
       nuclear repulsion energy        74.8129565647 Hartrees.
 NAtoms=    8 NActive=    8 NUniq=    8 SFac= 7.50D-01 NAtFMM=   80 NAOKFM=F Big=F
 One-electron integrals computed using PRISM.
 NBasis=    82 RedAO= T  NBF=    82
 NBsUse=    82 1.00D-06 NBFU=    82
 Initial guess read from the read-write file.
 B after Tr=     0.000000    0.000000    0.000000
         Rot=    1.000000    0.000000    0.000000    0.000000 Ang=   0.00 deg.
 Initial guess orbital symmetries:
 Alpha Orbitals:
       Occupied  (A) (A) (A) (A) (A) (A) (A) (A) (A) (A) (A) (A)
                 (A)
       Virtual   (A) (A) (A) (A) (A) (A) (A) (A) (A) (A) (A) (A)
                 (A) (A) (A) (A) (A) (A) (A) (A) (A) (A) (A) (A)
                 (A) (A) (A) (A) (A) (A) (A) (A) (A) (A) (A) (A)
                 (A) (A) (A) (A) (A) (A) (A) (A) (A) (A) (A) (A)
                 (A) (A) (A) (A) (A) (A) (A) (A) (A) (A) (A) (A)
                 (A) (A) (A) (A) (A) (A) (A) (A) (A)
 Beta  Orbitals:
       Occupied  (A) (A) (A) (A) (A) (A) (A) (A) (A) (A) (A) (A)
       Virtual   (A) (A) (A) (A) (A) (A) (A) (A) (A) (A) (A) (A)
                 (A) (A) (A) (A) (A) (A) (A) (A) (A) (A) (A) (A)
                 (A) (A) (A) (A) (A) (A) (A) (A) (A) (A) (A) (A)
                 (A) (A) (A) (A) (A) (A) (A) (A) (A) (A) (A) (A)
                 (A) (A) (A) (A) (A) (A) (A) (A) (A) (A) (A) (A)
                 (A) (A) (A) (A) (A) (A) (A) (A) (A) (A)
 Initial guess <Sx>= 0.0000 <Sy>= 0.0000 <Sz>= 0.5000 <S**2>= 0.7542 S= 0.5021
 Harris functional with IExCor= 1009 diagonalized for initial guess.
 ExpMin= 4.38D-02 ExpMax= 5.48D+03 ExpMxC= 8.25D+02 IAcc=2 IRadAn=         0 AccDes= 0.00D+00
 HarFok:  IExCor= 1009 AccDes= 0.00D+00 IRadAn=         0 IDoV= 1
 ScaDFX=  1.000000  1.000000  1.000000  1.000000
 FoFCou: FMM=F IPFlag=           0 FMFlag=      100000 FMFlg1=           0
         NFxFlg=           0 DoJE=T BraDBF=F KetDBF=T FulRan=T
         Omega=  0.000000  0.000000  1.000000  0.000000  0.000000 ICntrl=     500 IOpCl=  0
         NMat0=    1 NMatS0=    1 NMatT0=    0 NMatD0=    1 NMtDS0=    0 NMtDT0=    0
         I1Cent=           4 NGrid=           0.
 Petite list used in FoFCou.
 Requested convergence on RMS density matrix=1.00D-08 within 128 cycles.
 Requested convergence on MAX density matrix=1.00D-06.
 Requested convergence on             energy=1.00D-06.
 No special actions if energy rises.
 Keep R1 and R2 ints in memory in canonical form, NReq=12588148.
 SCF Done:  E(UM052X) =  -154.349561592     A.U. after   12 cycles
             Convg  =    0.2616D-08             -V/T =  2.0091
 <Sx>= 0.0000 <Sy>= 0.0000 <Sz>= 0.5000 <S**2>= 0.7543 S= 0.5021
 <L.S>= 0.000000000000E+00
 Annihilation of the first spin contaminant:
 S**2 before annihilation     0.7543,   after     0.7500
 Calling FoFJK, ICntrl=      2127 FMM=F ISym2X=0 I1Cent= 0 IOpClX= 1 NMat=1 NMatS=1 NMatT=0.
 ***** Axes restored to original set *****
 -------------------------------------------------------------------
 Center     Atomic                   Forces (Hartrees/Bohr)
 Number     Number              X              Y              Z
 -------------------------------------------------------------------
      1        6          -0.000424569   -0.001223619   -0.000995145
      2        1          -0.000139146    0.000067705    0.000769736
      3        1           0.000020840    0.000153072   -0.000101483
      4        6           0.000692898   -0.000132901    0.000740567
      5        1           0.000111279    0.000131061   -0.000178249
      6        1           0.000137698    0.000218293   -0.000384837
      7        8          -0.000372647    0.001331121   -0.000234510
      8        1          -0.000026353   -0.000544733    0.000383921
 -------------------------------------------------------------------
 Cartesian Forces:  Max     0.001331121 RMS     0.000542035

 GradGradGradGradGradGradGradGradGradGradGradGradGradGradGradGradGradGrad
 Berny optimization.
 Using GEDIIS/GDIIS optimizer.
 Internal  Forces:  Max     0.001160028 RMS     0.000393499
 Search for a local minimum.
 Step number   5 out of a maximum of   36
 All quantities printed in internal units (Hartrees-Bohrs-Radians)
 Mixed Optimization -- En-DIIS/RFO-DIIS
 Swaping is turned off.
 Update second derivatives using D2CorX and points    2    3    4    5
 DE= -9.17D-05 DEPred=-5.41D-05 R= 1.69D+00
 SS=  1.41D+00  RLast= 1.46D-01 DXNew= 1.4270D+00 4.3894D-01
 Trust test= 1.69D+00 RLast= 1.46D-01 DXMaxT set to 8.49D-01
     Eigenvalues ---    0.00150   0.01270   0.01617   0.06536   0.07932
     Eigenvalues ---    0.13092   0.14012   0.15786   0.16039   0.21048
     Eigenvalues ---    0.25497   0.36843   0.37185   0.37226   0.37272
     Eigenvalues ---    0.44076   0.47322   0.560431000.000001000.00000
     Eigenvalues --- 1000.000001000.000001000.000001000.000001000.00000
     Eigenvalues --- 1000.00000
 En-DIIS/RFO-DIIS IScMMF=        0 using points:     5    4    3
 RFO step:  Lambda=-1.42081404D-05.
 DIIS coeffs:      3.30101     -2.92481      0.62381
 Iteration  1 RMS(Cart)=  0.07474437 RMS(Int)=  0.00434969
 Iteration  2 RMS(Cart)=  0.00450306 RMS(Int)=  0.00004724
 Iteration  3 RMS(Cart)=  0.00001357 RMS(Int)=  0.00004515
 Iteration  4 RMS(Cart)=  0.00000000 RMS(Int)=  0.00004515
 Variable       Old X    -DE/DX   Delta X   Delta X   Delta X     New X
                                  (DIIS)     (GDIIS)  (Total)
    R1        2.04521  -0.00013   0.00062  -0.00058   0.00004   2.04525
    R2        2.04315   0.00001   0.00126  -0.00014   0.00112   2.04428
    R3        2.80566   0.00116   0.00166  -0.00136   0.00030   2.80596
    R4        2.05886  -0.00005   0.00070   0.00147   0.00216   2.06102
    R5        2.06734  -0.00011  -0.00006  -0.00075  -0.00081   2.06653
    R6        2.71889   0.00007  -0.00908   0.00107  -0.00801   2.71088
    R7        1.81745   0.00015   0.00002   0.00034   0.00036   1.81781
    A1        2.05977   0.00011  -0.00306   0.00392   0.00100   2.06077
    A2        2.10916   0.00019   0.00543   0.00470   0.01026   2.11942
    A3        2.09406  -0.00023  -0.00656  -0.00290  -0.00933   2.08473
    A4        1.93996   0.00012  -0.00358  -0.00006  -0.00364   1.93633
    A5        1.93552   0.00025  -0.00045  -0.00237  -0.00282   1.93271
    A6        1.94865   0.00022  -0.00095   0.00007  -0.00087   1.94778
    A7        1.89043   0.00002  -0.00537   0.00162  -0.00375   1.88667
    A8        1.82583  -0.00045   0.00308   0.00212   0.00520   1.83103
    A9        1.91977  -0.00021   0.00732  -0.00109   0.00625   1.92601
   A10        1.89855  -0.00116   0.00217  -0.00190   0.00027   1.89882
    D1       -2.63071   0.00023   0.10294   0.06446   0.16740  -2.46331
    D2       -0.52664   0.00051   0.09350   0.06487   0.15837  -0.36827
    D3        1.62095   0.00058   0.10198   0.06181   0.16378   1.78473
    D4        0.72972  -0.00015   0.12330   0.03342   0.15673   0.88645
    D5        2.83379   0.00013   0.11386   0.03383   0.14770   2.98150
    D6       -1.30181   0.00020   0.12234   0.03077   0.15311  -1.14869
    D7       -0.97680  -0.00006   0.04802   0.01224   0.06025  -0.91655
    D8       -3.07661  -0.00005   0.05093   0.01097   0.06190  -3.01471
    D9        1.17973   0.00026   0.05203   0.00847   0.06051   1.24024
         Item               Value     Threshold  Converged?
 Maximum Force            0.001160     0.000450     NO 
 RMS     Force            0.000393     0.000300     NO 
 Maximum Displacement     0.232578     0.001800     NO 
 RMS     Displacement     0.074793     0.001200     NO 
 Predicted change in Energy=-8.971321D-05
 GradGradGradGradGradGradGradGradGradGradGradGradGradGradGradGradGradGrad

                          Input orientation:                          
 ---------------------------------------------------------------------
 Center     Atomic      Atomic             Coordinates (Angstroms)
 Number     Number       Type             X           Y           Z
 ---------------------------------------------------------------------
      1          6           0       -0.484899    0.721123    0.695129
      2          1           0       -0.002480   -0.240130    0.816106
      3          1           0       -1.493904    0.738892    0.305449
      4          6           0        0.279358    1.989818    0.800510
      5          1           0       -0.302582    2.753694    1.317562
      6          1           0        1.208851    1.836912    1.355970
      7          8           0        0.556334    2.548339   -0.491476
      8          1           0        0.971282    1.874230   -1.038037
 ---------------------------------------------------------------------
                    Distance matrix (angstroms):
                    1          2          3          4          5
     1  C    0.000000
     2  H    1.082299   0.000000
     3  H    1.081784   1.855694   0.000000
     4  C    1.484851   2.247742   2.225839   0.000000
     5  H    2.133543   3.050329   2.550107   1.090644   0.000000
     6  H    2.133187   2.464322   3.100665   1.093559   1.768161
     7  O    2.414729   3.130112   2.848273   1.434534   2.013089
     8  H    2.540469   2.976000   3.028380   1.967835   2.818693
                    6          7          8
     6  H    0.000000
     7  O    2.084457   0.000000
     8  H    2.406054   0.961942   0.000000
 Stoichiometry    C2H5O(2)
 Framework group  C1[X(C2H5O)]
 Deg. of freedom    18
 Full point group                 C1      NOp   1
 Largest Abelian subgroup         C1      NOp   1
 Largest concise Abelian subgroup C1      NOp   1
                         Standard orientation:                         
 ---------------------------------------------------------------------
 Center     Atomic      Atomic             Coordinates (Angstroms)
 Number     Number       Type             X           Y           Z
 ---------------------------------------------------------------------
      1          6           0       -1.241676   -0.217977   -0.023851
      2          1           0       -1.810639   -0.409990    0.876584
      3          1           0       -1.504351   -0.766236   -0.918653
      4          6           0        0.020960    0.562668    0.009679
      5          1           0        0.098271    1.216487   -0.859831
      6          1           0        0.067778    1.184832    0.907784
      7          8           0        1.171579   -0.290641   -0.066673
      8          1           0        1.100606   -0.968118    0.612533
 ---------------------------------------------------------------------
 Rotational constants (GHZ):     36.2311970      9.9365491      8.7844732
 Standard basis: 6-31+G(d,p) (6D, 7F)
 There are    82 symmetry adapted basis functions of A   symmetry.
 Integral buffers will be    262144 words long.
 Raffenetti 2 integral format.
 Two-electron integral symmetry is turned on.
    82 basis functions,   131 primitive gaussians,    82 cartesian basis functions
    13 alpha electrons       12 beta electrons
       nuclear repulsion energy        74.9020472470 Hartrees.
 NAtoms=    8 NActive=    8 NUniq=    8 SFac= 7.50D-01 NAtFMM=   80 NAOKFM=F Big=F
 One-electron integrals computed using PRISM.
 NBasis=    82 RedAO= T  NBF=    82
 NBsUse=    82 1.00D-06 NBFU=    82
 Initial guess read from the read-write file.
 B after Tr=     0.000000    0.000000    0.000000
         Rot=    1.000000    0.000000    0.000000    0.000000 Ang=   0.00 deg.
 Initial guess orbital symmetries:
 Alpha Orbitals:
       Occupied  (A) (A) (A) (A) (A) (A) (A) (A) (A) (A) (A) (A)
                 (A)
       Virtual   (A) (A) (A) (A) (A) (A) (A) (A) (A) (A) (A) (A)
                 (A) (A) (A) (A) (A) (A) (A) (A) (A) (A) (A) (A)
                 (A) (A) (A) (A) (A) (A) (A) (A) (A) (A) (A) (A)
                 (A) (A) (A) (A) (A) (A) (A) (A) (A) (A) (A) (A)
                 (A) (A) (A) (A) (A) (A) (A) (A) (A) (A) (A) (A)
                 (A) (A) (A) (A) (A) (A) (A) (A) (A)
 Beta  Orbitals:
       Occupied  (A) (A) (A) (A) (A) (A) (A) (A) (A) (A) (A) (A)
       Virtual   (A) (A) (A) (A) (A) (A) (A) (A) (A) (A) (A) (A)
                 (A) (A) (A) (A) (A) (A) (A) (A) (A) (A) (A) (A)
                 (A) (A) (A) (A) (A) (A) (A) (A) (A) (A) (A) (A)
                 (A) (A) (A) (A) (A) (A) (A) (A) (A) (A) (A) (A)
                 (A) (A) (A) (A) (A) (A) (A) (A) (A) (A) (A) (A)
                 (A) (A) (A) (A) (A) (A) (A) (A) (A) (A)
 Initial guess <Sx>= 0.0000 <Sy>= 0.0000 <Sz>= 0.5000 <S**2>= 0.7543 S= 0.5021
 Harris functional with IExCor= 1009 diagonalized for initial guess.
 ExpMin= 4.38D-02 ExpMax= 5.48D+03 ExpMxC= 8.25D+02 IAcc=2 IRadAn=         0 AccDes= 0.00D+00
 HarFok:  IExCor= 1009 AccDes= 0.00D+00 IRadAn=         0 IDoV= 1
[...]
 Frc consts  --     1.2879                 1.4685                 1.6217
 IR Inten    --     7.3252                27.8504                12.1169
  Atom  AN      X      Y      Z        X      Y      Z        X      Y      Z
     1   6    -0.01  -0.03   0.02     0.01  -0.03   0.01    -0.11   0.06   0.00
     2   1    -0.10   0.12  -0.03    -0.16   0.24  -0.08     0.27  -0.54   0.25
     3   1     0.02  -0.04   0.00    -0.17  -0.01   0.05     0.65  -0.03  -0.21
     4   6     0.06   0.05   0.06     0.13  -0.03  -0.04     0.07  -0.01  -0.01
     5   1     0.34   0.18  -0.01    -0.65  -0.10  -0.03    -0.13  -0.10   0.03
     6   1    -0.68  -0.12  -0.05    -0.55   0.05   0.05    -0.22  -0.08  -0.04
     7   8     0.02  -0.01  -0.06    -0.02   0.03   0.02     0.00   0.01   0.00
     8   1    -0.51  -0.24   0.11     0.30   0.14  -0.06     0.05   0.03  -0.02
                    13                     14                     15
                     A                      A                      A
 Frequencies --  1517.2236              3052.6744              3084.0511
 Red. masses --     1.0810                 1.0563                 1.1046
 Frc consts  --     1.4661                 5.7997                 6.1900
 IR Inten    --     1.8797                43.5331                28.6982
  Atom  AN      X      Y      Z        X      Y      Z        X      Y      Z
     1   6     0.01   0.00   0.00     0.00   0.00   0.00     0.00   0.00   0.00
     2   1    -0.03   0.07  -0.02    -0.01  -0.01   0.01    -0.02  -0.01   0.01
     3   1    -0.06  -0.01   0.01     0.00  -0.01   0.01     0.00  -0.01   0.01
     4   6    -0.01   0.08   0.00     0.01  -0.07   0.00     0.00   0.00   0.09
     5   1    -0.02  -0.57   0.39    -0.03   0.33   0.56     0.04  -0.41  -0.63
     6   1     0.02  -0.52  -0.48    -0.02   0.47  -0.58    -0.03   0.43  -0.49
     7   8     0.01   0.01   0.00     0.00   0.00   0.00     0.00   0.00   0.00
     8   1     0.01   0.01   0.00     0.00   0.00  -0.01     0.00   0.00   0.01
                    16                     17                     18
                     A                      A                      A
 Frequencies --  3207.0467              3320.1608              3911.1988
 Red. masses --     1.0511                 1.1204                 1.0667
 Frc consts  --     6.3696                 7.2768                 9.6142
 IR Inten    --     3.6755                 5.2751                35.8764
  Atom  AN      X      Y      Z        X      Y      Z        X      Y      Z
     1   6    -0.05   0.03   0.00    -0.04  -0.07   0.06     0.00   0.00   0.00
     2   1     0.59   0.25  -0.33     0.57   0.23  -0.31     0.00   0.00   0.00
     3   1     0.02  -0.58   0.37    -0.04   0.61  -0.38     0.00   0.00   0.00
     4   6     0.00   0.00   0.00     0.00   0.00   0.00     0.00   0.00   0.00
     5   1     0.00   0.00   0.00     0.00   0.00  -0.01     0.00   0.00  -0.01
     6   1     0.00   0.01   0.00     0.00   0.02  -0.02     0.00   0.00   0.00
     7   8     0.00   0.00   0.00     0.00   0.00   0.00     0.00   0.04   0.05
     8   1     0.00   0.00   0.00     0.00   0.00   0.00     0.04  -0.64  -0.77

 -------------------
 - Thermochemistry -
 -------------------
 Temperature   298.150 Kelvin.  Pressure   1.00000 Atm.
 Atom     1 has atomic number  6 and mass  12.00000
 Atom     2 has atomic number  1 and mass   1.00783
 Atom     3 has atomic number  1 and mass   1.00783
 Atom     4 has atomic number  6 and mass  12.00000
 Atom     5 has atomic number  1 and mass   1.00783
 Atom     6 has atomic number  1 and mass   1.00783
 Atom     7 has atomic number  8 and mass  15.99491
 Atom     8 has atomic number  1 and mass   1.00783
 Molecular mass:    45.03404 amu.
 Principal axes and moments of inertia in atomic units:
                           1         2         3
     Eigenvalues --    47.21672 181.56041 209.68208
           X            0.99990  -0.01080   0.00941
           Y            0.01085   0.99992  -0.00569
           Z           -0.00934   0.00580   0.99994
 This molecule is an asymmetric top.
 Rotational symmetry number  1.
 Rotational temperatures (Kelvin)      1.83439     0.47705     0.41307
 Rotational constants (GHZ):          38.22250     9.94017     8.60704
 Zero-point vibrational energy     174354.0 (Joules/Mol)
                                   41.67160 (Kcal/Mol)
 Warning -- explicit consideration of   4 degrees of freedom as
           vibrations may cause significant error
 Vibrational temperatures:    194.77   577.77   626.63   809.18  1203.88
          (Kelvin)           1410.44  1618.08  1645.03  1696.47  1957.30
                             2035.51  2134.00  2182.94  4392.11  4437.26
                             4614.22  4776.96  5627.34
 
 Zero-point correction=                           0.066408 (Hartree/Particle)
 Thermal correction to Energy=                    0.070871
 Thermal correction to Enthalpy=                  0.071816
 Thermal correction to Gibbs Free Energy=         0.040214
 Sum of electronic and zero-point Energies=           -154.284124
 Sum of electronic and thermal Energies=              -154.279660
 Sum of electronic and thermal Enthalpies=            -154.278716
 Sum of electronic and thermal Free Energies=         -154.310318
 
                     E (Thermal)             CV                S
                      KCal/Mol        Cal/Mol-Kelvin    Cal/Mol-Kelvin
 Total                   44.472             13.939             66.511
 Electronic               0.000              0.000              1.377
 Translational            0.889              2.981             37.340
 Rotational               0.889              2.981             22.113
 Vibrational             42.695              7.977              5.681
 Vibration     1          0.613              1.918              2.868
 Vibration     2          0.767              1.467              0.957
 Vibration     3          0.796              1.393              0.841
 Vibration     4          0.918              1.113              0.519
                       Q            Log10(Q)             Ln(Q)
 Total Bot       0.318387D-18        -18.497045        -42.591021
 Total V=0       0.111792D+13         12.048412         27.742495
 Vib (Bot)       0.883024D-30        -30.054027        -69.201955
 Vib (Bot)    1  0.150391D+01          0.177221          0.408066
 Vib (Bot)    2  0.443339D+00         -0.353264         -0.813421
 Vib (Bot)    3  0.398333D+00         -0.399753         -0.920466
 Vib (Bot)    4  0.275705D+00         -0.559556         -1.288424
 Vib (V=0)       0.310049D+01          0.491430          1.131560
 Vib (V=0)    1  0.208484D+01          0.319074          0.734694
 Vib (V=0)    2  0.116824D+01          0.067533          0.155501
 Vib (V=0)    3  0.113927D+01          0.056628          0.130390
 Vib (V=0)    4  0.107098D+01          0.029780          0.068570
 Electronic      0.200000D+01          0.301030          0.693147
 Translational   0.118786D+08          7.074767         16.290252
 Rotational      0.151770D+05          4.181186          9.627536
 ***** Axes restored to original set *****
 -------------------------------------------------------------------
 Center     Atomic                   Forces (Hartrees/Bohr)
 Number     Number              X              Y              Z
 -------------------------------------------------------------------
      1        6          -0.000031320    0.000002047   -0.000016698
      2        1          -0.000001519    0.000030544    0.000013282
      3        1           0.000000471   -0.000001999    0.000012459
      4        6          -0.000007932    0.000019219   -0.000023591
      5        1           0.000007243    0.000000815   -0.000004243
      6        1           0.000006317   -0.000006853    0.000011608
      7        8           0.000024851   -0.000030232    0.000009086
      8        1           0.000001889   -0.000013540   -0.000001902
 -------------------------------------------------------------------
 Cartesian Forces:  Max     0.000031320 RMS     0.000015304

 GradGradGradGradGradGradGradGradGradGradGradGradGradGradGradGradGradGrad
 Berny optimization.
 Internal  Forces:  Max     0.000035916 RMS     0.000011516
 Search for a local minimum.
 Step number   1 out of a maximum of    2
 All quantities printed in internal units (Hartrees-Bohrs-Radians)
 Second derivative matrix not updated -- analytic derivatives used.
     Eigenvalues ---    0.00077   0.00520   0.00979   0.05980   0.06735
     Eigenvalues ---    0.09787   0.10193   0.11025   0.13624   0.16370
     Eigenvalues ---    0.23260   0.32327   0.32938   0.33552   0.37553
     Eigenvalues ---    0.37730   0.39382   0.550151000.000001000.00000
     Eigenvalues --- 1000.000001000.000001000.000001000.000001000.00000
     Eigenvalues --- 1000.00000
 Angle between quadratic step and forces=  71.70 degrees.
 Linear search not attempted -- first point.
 Iteration  1 RMS(Cart)=  0.00033158 RMS(Int)=  0.00000011
 Iteration  2 RMS(Cart)=  0.00000010 RMS(Int)=  0.00000000
 Variable       Old X    -DE/DX   Delta X   Delta X   Delta X     New X
                                 (Linear)    (Quad)   (Total)
    R1        2.04218  -0.00001   0.00000  -0.00003  -0.00003   2.04215
    R2        2.04431  -0.00001   0.00000  -0.00003  -0.00003   2.04428
    R3        2.80481   0.00000   0.00000   0.00000   0.00000   2.80481
    R4        2.07139   0.00000   0.00000  -0.00001  -0.00001   2.07138
    R5        2.07127   0.00001   0.00000   0.00004   0.00004   2.07131
    R6        2.69514  -0.00002   0.00000  -0.00008  -0.00008   2.69506
    R7        1.81763  -0.00001   0.00000  -0.00001  -0.00001   1.81761
    A1        2.07932   0.00001   0.00000   0.00006   0.00006   2.07938
    A2        2.11488  -0.00004   0.00000  -0.00033  -0.00033   2.11455
    A3        2.07919   0.00003   0.00000   0.00027   0.00027   2.07946
    A4        1.93922   0.00000   0.00000  -0.00004  -0.00004   1.93918
    A5        1.92973  -0.00001   0.00000  -0.00012  -0.00012   1.92961
    A6        1.96190   0.00001   0.00000   0.00010   0.00010   1.96200
    A7        1.86859   0.00000   0.00000  -0.00004  -0.00004   1.86855
    A8        1.82669   0.00001   0.00000   0.00010   0.00010   1.82679
    A9        1.93315   0.00000   0.00000   0.00001   0.00001   1.93316
   A10        1.88801   0.00001   0.00000   0.00005   0.00005   1.88805
    D1       -1.63702   0.00001   0.00000  -0.00056  -0.00056  -1.63757
    D2        0.43531   0.00000   0.00000  -0.00071  -0.00071   0.43460
    D3        2.60562   0.00000   0.00000  -0.00072  -0.00072   2.60490
    D4        1.35330   0.00001   0.00000  -0.00057  -0.00057   1.35273
    D5       -2.85755   0.00000   0.00000  -0.00073  -0.00073  -2.85828
    D6       -0.68725  -0.00001   0.00000  -0.00073  -0.00073  -0.68798
    D7       -0.92732   0.00001   0.00000   0.00078   0.00078  -0.92654
    D8       -3.03396   0.00000   0.00000   0.00072   0.00072  -3.03324
    D9        1.24109   0.00000   0.00000   0.00071   0.00071   1.24180
         Item               Value     Threshold  Converged?
 Maximum Force            0.000036     0.000450     YES
 RMS     Force            0.000012     0.000300     YES
 Maximum Displacement     0.000839     0.001800     YES
 RMS     Displacement     0.000332     0.001200     YES
 Predicted change in Energy=-1.971816D-08
 Optimization completed.
    -- Stationary point found.
                           ----------------------------
                           !   Optimized Parameters   !
                           ! (Angstroms and Degrees)  !
 --------------------------                            --------------------------
 ! Name  Definition              Value          Derivative Info.                !
 --------------------------------------------------------------------------------
 ! R1    R(1,2)                  1.0807         -DE/DX =    0.0                 !
 ! R2    R(1,3)                  1.0818         -DE/DX =    0.0                 !
 ! R3    R(1,4)                  1.4842         -DE/DX =    0.0                 !
 ! R4    R(4,5)                  1.0961         -DE/DX =    0.0                 !
 ! R5    R(4,6)                  1.0961         -DE/DX =    0.0                 !
 ! R6    R(4,7)                  1.4262         -DE/DX =    0.0                 !
 ! R7    R(7,8)                  0.9618         -DE/DX =    0.0                 !
 ! A1    A(2,1,3)              119.1364         -DE/DX =    0.0                 !
 ! A2    A(2,1,4)              121.1736         -DE/DX =    0.0                 !
 ! A3    A(3,1,4)              119.1286         -DE/DX =    0.0                 !
 ! A4    A(1,4,5)              111.1094         -DE/DX =    0.0                 !
 ! A5    A(1,4,6)              110.5655         -DE/DX =    0.0                 !
 ! A6    A(1,4,7)              112.4089         -DE/DX =    0.0                 !
 ! A7    A(5,4,6)              107.0624         -DE/DX =    0.0                 !
 ! A8    A(5,4,7)              104.6615         -DE/DX =    0.0                 !
 ! A9    A(6,4,7)              110.7613         -DE/DX =    0.0                 !
 ! A10   A(4,7,8)              108.1748         -DE/DX =    0.0                 !
 ! D1    D(2,1,4,5)            -93.7942         -DE/DX =    0.0                 !
 ! D2    D(2,1,4,6)             24.9416         -DE/DX =    0.0                 !
 ! D3    D(2,1,4,7)            149.2909         -DE/DX =    0.0                 !
 ! D4    D(3,1,4,5)             77.5385         -DE/DX =    0.0                 !
 ! D5    D(3,1,4,6)           -163.7257         -DE/DX =    0.0                 !
 ! D6    D(3,1,4,7)            -39.3764         -DE/DX =    0.0                 !
 ! D7    D(1,4,7,8)            -53.1316         -DE/DX =    0.0                 !
 ! D8    D(5,4,7,8)           -173.8329         -DE/DX =    0.0                 !
 ! D9    D(6,4,7,8)             71.1094         -DE/DX =    0.0                 !
 --------------------------------------------------------------------------------
 GradGradGradGradGradGradGradGradGradGradGradGradGradGradGradGradGradGrad

 1|1|UNPC-DESKTOP-319GPER|Freq|UM052X|6-31+G(d,p)|C2H5O1(2)|SAGAD|17-Ja
 n-2021|0||#N Geom=AllCheck Guess=TCheck SCRF=Check GenChk UM052X/6-31+
 G(d,p) Freq||2-Hydroxyethyl radical M052X||0,2|C,-0.4375478607,0.68267
 16835,0.6342003766|H,-0.2399414328,-0.1613835609,1.2794755709|H,-1.289
 5907571,0.6486467806,-0.0315042125|C,0.3166039406,1.9529139294,0.77810
 3843|H,-0.2177775984,2.6581651394,1.4250673589|H,1.2939034008,1.770300
 818,1.2395228383|O,0.4638596902,2.6412907884,-0.4622664752|H,0.8424505
 374,2.0302723917,-1.1013865599||Version=IA32W-G09RevA.02|State=2-A|HF=
 -154.3505315|S2=0.753878|S2-1=0.|S2A=0.750012|RMSD=1.053e-009|RMSF=1.5
 30e-005|ZeroPoint=0.0664079|Thermal=0.0708713|Dipole=0.1393457,-0.6779
 384,0.2223263|DipoleDeriv=-0.1850358,0.0144894,0.253754,0.0377265,-0.0
 755463,-0.0732352,0.2397219,-0.1536648,-0.2240574,0.0832337,-0.0213514
 ,-0.0662308,-0.0348955,-0.007438,0.0818194,-0.0618666,0.1048247,0.0690
 228,0.0296065,-0.036012,-0.0988328,-0.0230722,0.044308,0.0444929,-0.11
 21028,0.0125687,0.0743512,0.4047717,0.092535,-0.0887014,0.0360056,0.44
 98849,-0.2037649,-0.0987174,-0.2740869,0.7188643,0.02361,0.0404706,0.0
 646963,0.0268585,-0.0651445,-0.0800645,0.0560208,-0.0221181,-0.0133798
 ,-0.1301233,0.0147589,-0.1187376,0.0210656,0.0097937,0.0620401,-0.0653
 379,0.0476562,-0.0506859,-0.5677036,-0.1781507,0.0371322,-0.1578984,-0
 .5440884,0.2380586,0.0232419,0.3014112,-0.8555061,0.3416408,0.0732602,
 0.01692,0.0942099,0.1882307,-0.0693464,0.01904,-0.016591,0.2813909|Pol
 ar=26.5420395,2.1973879,29.8463765,-0.0951646,-0.921789,28.4497845|PG=
 C01 [X(C2H5O1)]|NImag=0||0.40308274,0.08372922,0.53490383,0.25583762,-
 0.15480659,0.36960596,-0.05139612,0.03292958,-0.05409383,0.04430579,0.
 03288666,-0.23518298,0.15112800,-0.03610832,0.24123596,-0.05642515,0.1
 5530399,-0.14466185,0.05618528,-0.16368791,0.14334226,-0.23000721,-0.0
 1550740,-0.16890897,0.00130667,-0.00211261,-0.00016803,0.23558094,-0.0
 1268758,-0.05378068,0.00795435,0.01700928,0.00535003,0.01289288,0.0171
 9523,0.04551607,-0.16323465,0.00389936,-0.15019444,-0.01239482,-0.0022
 9026,-0.00448740,0.17741968,-0.00383837,0.15210132,-0.12351954,-0.0784
 7453,-0.03448369,0.00697438,0.00863507,-0.00025346,-0.00622465,-0.0221
 7692,-0.00437800,0.57415510,-0.07779395,-0.19680135,-0.01536144,-0.009
 22784,-0.00690060,-0.00475048,0.00254576,0.00436116,0.00400634,-0.0318
 7648,0.51376209,-0.03150958,-0.00845079,-0.07280212,0.00658854,0.01690
 303,0.00806113,-0.00832199,-0.01765645,-0.00087200,0.02851230,0.034853
 70,0.50289266,0.01004622,-0.01130300,-0.00920157,-0.00056831,-0.000224
 26,0.00063690,-0.00047682,0.00056925,0.00075758,-0.11347019,0.07845749
 ,0.06910873,0.11862063,0.00527409,-0.02402515,-0.01260581,-0.00105208,
 -0.00104564,-0.00027197,-0.00069484,0.00014613,0.00060077,0.09356125,-
 0.15621697,-0.10719964,-0.08990925,0.17160864,-0.00108329,-0.00609439,
 0.00159673,0.00025229,-0.00107841,-0.00131560,-0.00023783,-0.00001969,
 0.00010500,0.06926871,-0.08919869,-0.12336338,-0.08315537,0.10179386,0
 .15535847,-0.01355739,0.00182759,-0.00735510,0.00055297,-0.00067698,0.
 00000069,-0.00060723,-0.00246877,0.00091300,-0.26509658,0.03651756,-0.
 08741416,-0.01538456,0.00320652,-0.00588782,0.28062594,-0.02770798,0.0
 0351241,-0.01474074,0.00092030,0.00083435,0.00036430,-0.00274874,-0.00
 444162,-0.00083869,0.03475859,-0.05618702,0.01546372,0.02117892,-0.001
 86894,0.00717839,-0.03855156,0.06410303,-0.00606937,-0.00272941,-0.000
 47006,0.00070626,-0.00057911,-0.00004329,-0.00091024,-0.00005754,0.001
 17042,-0.08492792,0.01313504,-0.08633248,0.01661832,-0.00279670,0.0090
 8537,0.10025830,-0.02275056,0.10386077,0.00513258,-0.01463439,0.018650
 58,-0.00107176,-0.00295295,0.00038054,0.00136631,0.00311955,0.00061414
 ,-0.07113266,-0.00220894,0.02213559,0.00074855,-0.00922079,0.01931675,
 0.01283530,0.01248516,-0.02397851,0.14049859,-0.00521713,-0.03029111,0
 .03851974,-0.00443409,-0.00423370,0.00008872,0.00198994,0.00273587,-0.
 00155870,0.00568627,-0.11182029,0.04477540,0.00257054,0.01193377,-0.01
 636209,0.00003762,-0.00557957,0.01513437,-0.13078088,0.38915405,0.0023
 8180,0.01329349,-0.00592646,0.00288827,0.00023309,-0.00073823,0.001028
 83,0.00040162,0.00224264,0.01088681,0.08105033,-0.20235451,0.00544874,
 0.01639591,-0.03592943,0.00001423,0.01647961,-0.02749942,-0.16615154,0
 .10380593,0.51899753,0.00021872,0.00143294,-0.00044503,-0.00010362,0.0
 0055340,-0.00035676,-0.00093802,-0.00056005,0.00030307,-0.00168586,0.0
 0358640,0.00090058,0.00048449,-0.00116490,0.00152655,0.00063156,-0.000
 33469,-0.00169685,-0.08837691,0.13014771,0.14350286,0.08976965,0.00151
 667,0.00166503,-0.00008752,-0.00003683,-0.00005743,0.00006047,-0.00066
 733,0.00011305,0.00001954,-0.01011324,0.00980298,0.02131102,-0.0013397
 0,-0.00053184,0.00378101,0.00010802,-0.00037264,0.00064390,0.14419323,
 -0.25189903,-0.23165997,-0.13366082,0.24127989,0.00010262,-0.00041567,
 0.00285223,-0.00013199,-0.00062843,-0.00015702,0.00009854,0.00032320,-
 0.00006554,0.01537526,-0.02373482,-0.02522931,-0.00021334,0.00408358,-
 0.00553717,-0.00052914,-0.00115603,0.00022868,0.12903246,-0.18440338,-
 0.24879212,-0.14373442,0.20593155,0.27670026||0.00003132,-0.00000205,0
 .00001670,0.00000152,-0.00003054,-0.00001328,-0.00000047,0.00000200,-0
 .00001246,0.00000793,-0.00001922,0.00002359,-0.00000724,-0.00000081,0.
 00000424,-0.00000632,0.00000685,-0.00001161,-0.00002485,0.00003023,-0.
 00000909,-0.00000189,0.00001354,0.00000190|||@


 REFRAIN FROM ILLUSIONS, INSIST ON WORK AND NOT WORDS,
 PATIENTLY SEEK DIVINE AND SCIENTIFIC TRUTH.
 LAST WORDS OF MARIA MENDELEEVA TO HER SON DMITRI, C. 1850
 Job cpu time:  0 days  0 hours  0 minutes 52.0 seconds.
 File lengths (MBytes):  RWF=     15 Int=      0 D2E=      0 Chk=      1 Scr=      1
 Normal termination of Gaussian 09 at Sun Jan 17 12:54:22 2021.
