 Entering Link 1 = C:\G09W\l1.exe PID=      6260.
  
 Copyright (c) 1988,1990,1992,1993,1995,1998,2003,2009, Gaussian, Inc.
                  All Rights Reserved.
  
 This is part of the Gaussian(R) 09 program.  It is based on
 the Gaussian(R) 03 system (copyright 2003, Gaussian, Inc.),
 the Gaussian(R) 98 system (copyright 1998, Gaussian, Inc.),
 the Gaussian(R) 94 system (copyright 1995, Gaussian, Inc.),
 the Gaussian 92(TM) system (copyright 1992, Gaussian, Inc.),
 the Gaussian 90(TM) system (copyright 1990, Gaussian, Inc.),
 the Gaussian 88(TM) system (copyright 1988, Gaussian, Inc.),
 the Gaussian 86(TM) system (copyright 1986, Carnegie Mellon
 University), and the Gaussian 82(TM) system (copyright 1983,
 Carnegie Mellon University). Gaussian is a federally registered
 trademark of Gaussian, Inc.
  
 This software contains proprietary and confidential information,
 including trade secrets, belonging to Gaussian, Inc.
  
 This software is provided under written license and may be
 used, copied, transmitted, or stored only in accord with that
 written license.
  
 The following legend is applicable only to US Government
 contracts under FAR:
  
                    RESTRICTED RIGHTS LEGEND
  
 Use, reproduction and disclosure by the US Government is
 subject to restrictions as set forth in subparagraphs (a)
 and (c) of the Commercial Computer Software - Restricted
 Rights clause in FAR 52.227-19.
  
 Gaussian, Inc.
 340 Quinnipiac St., Bldg. 40, Wallingford CT 06492
  
  
 ---------------------------------------------------------------
 Warning -- This program may not be used in any manner that
 competes with the business of Gaussian, Inc. or will provide
 assistance to any competitor of Gaussian, Inc.  The licensee
 of this program is prohibited from giving any competitor of
 Gaussian, Inc. access to this program.  By using this program,
 the user acknowledges that Gaussian, Inc. is engaged in the
 business of creating and licensing software in the field of
 computational chemistry and represents and warrants to the
 licensee that it is not a competitor of Gaussian, Inc. and that
 it will not use this program in any manner prohibited above.
 ---------------------------------------------------------------
  

 Cite this work as:
 Gaussian 09, Revision A.02,
 M. J. Frisch, G. W. Trucks, H. B. Schlegel, G. E. Scuseria, 
 M. A. Robb, J. R. Cheeseman, G. Scalmani, V. Barone, B. Mennucci, 
 G. A. Petersson, H. Nakatsuji, M. Caricato, X. Li, H. P. Hratchian, 
 A. F. Izmaylov, J. Bloino, G. Zheng, J. L. Sonnenberg, M. Hada, 
 M. Ehara, K. Toyota, R. Fukuda, J. Hasegawa, M. Ishida, T. Nakajima, 
 Y. Honda, O. Kitao, H. Nakai, T. Vreven, J. A. Montgomery, Jr., 
 J. E. Peralta, F. Ogliaro, M. Bearpark, J. J. Heyd, E. Brothers, 
 K. N. Kudin, V. N. Staroverov, R. Kobayashi, J. Normand, 
 K. Raghavachari, A. Rendell, J. C. Burant, S. S. Iyengar, J. Tomasi, 
 M. Cossi, N. Rega, J. M. Millam, M. Klene, J. E. Knox, J. B. Cross, 
 V. Bakken, C. Adamo, J. Jaramillo, R. Gomperts, R. E. Stratmann, 
 O. Yazyev, A. J. Austin, R. Cammi, C. Pomelli, J. W. Ochterski, 
 R. L. Martin, K. Morokuma, V. G. Zakrzewski, G. A. Voth, 
 P. Salvador, J. J. Dannenberg, S. Dapprich, A. D. Daniels, 
 O. Farkas, J. B. Foresman, J. V. Ortiz, J. Cioslowski, 
 and D. J. Fox, Gaussian, Inc., Wallingford CT, 2009.
 
 ******************************************
 Gaussian 09:  IA32W-G09RevA.02 11-Jun-2009
                23-Jan-2021 
 ******************************************
 %chk=D:\Documents\rayGit\FQ\quimicaComputacional\p3Eteno\estadoDeTransicion\hydr
 oxyethylRadicalM062x.chk
 %nprocshared=4
 Will use up to    4 processors via shared memory.
 %mem=1500MB
 ------------------------------------
 # opt freq=noraman 6-31+g(d,p) m062x
 ------------------------------------
 1/14=-1,18=20,19=15,26=3,38=1/1,3;
 2/9=110,12=2,17=6,18=5,40=1/2;
 3/5=1,6=6,7=111,11=2,16=1,25=1,30=1,71=1,74=-55/1,2,3;
 4//1;
 5/5=2,38=5/2;
 6/7=2,8=2,9=2,10=2,28=1/1;
 7//1,2,3,16;
 1/14=-1,18=20,19=15/3(2);
 2/9=110/2;
 99//99;
 2/9=110/2;
 3/5=1,6=6,7=111,11=2,16=1,25=1,30=1,71=1,74=-55/1,2,3;
 4/5=5,16=3/1;
 5/5=2,38=5/2;
 7//1,2,3,16;
 1/14=-1,18=20,19=15/3(-5);
 2/9=110/2;
 6/7=2,8=2,9=2,10=2,19=2,28=1/1;
 99/9=1/99;
 ----------------------------
 2-Hydroxyethyl radical M062X
 ----------------------------
 Symbolic Z-matrix:
 Charge =  0 Multiplicity = 2
 C                    -0.47616   0.7481    0.59177 
 H                     0.057    -0.17961   0.59177 
 H                    -1.54616   0.7481    0.59177 
 C                     0.25615   2.02258   0.74029 
 H                    -0.35014   2.72184   1.27726 
 H                     1.16479   1.85118   1.27871 
 O                     0.56093   2.55073  -0.55319 
 H                     1.06556   1.75995  -0.75718 
 

 GradGradGradGradGradGradGradGradGradGradGradGradGradGradGradGradGradGrad
 Berny optimization.
 Initialization pass.
                           ----------------------------
                           !    Initial Parameters    !
                           ! (Angstroms and Degrees)  !
 --------------------------                            --------------------------
 ! Name  Definition              Value          Derivative Info.                !
 --------------------------------------------------------------------------------
 ! R1    R(1,2)                  1.07           estimate D2E/DX2                !
 ! R2    R(1,3)                  1.07           estimate D2E/DX2                !
 ! R3    R(1,4)                  1.4774         estimate D2E/DX2                !
 ! R4    R(4,5)                  1.07           estimate D2E/DX2                !
 ! R5    R(4,6)                  1.07           estimate D2E/DX2                !
 ! R6    R(4,7)                  1.43           estimate D2E/DX2                !
 ! R7    R(7,8)                  0.96           estimate D2E/DX2                !
 ! A1    A(2,1,3)              119.8865         estimate D2E/DX2                !
 ! A2    A(2,1,4)              120.0628         estimate D2E/DX2                !
 ! A3    A(3,1,4)              119.7151         estimate D2E/DX2                !
 ! A4    A(1,4,5)              109.4712         estimate D2E/DX2                !
 ! A5    A(1,4,6)              109.4712         estimate D2E/DX2                !
 ! A6    A(1,4,7)              109.4712         estimate D2E/DX2                !
 ! A7    A(5,4,6)              109.4712         estimate D2E/DX2                !
 ! A8    A(5,4,7)              109.4712         estimate D2E/DX2                !
 ! A9    A(6,4,7)              109.4712         estimate D2E/DX2                !
 ! A10   A(4,7,8)               90.0            estimate D2E/DX2                !
 ! D1    D(2,1,4,5)           -146.6952         estimate D2E/DX2                !
 ! D2    D(2,1,4,6)            -26.6952         estimate D2E/DX2                !
 ! D3    D(2,1,4,7)             93.3048         estimate D2E/DX2                !
 ! D4    D(3,1,4,5)             26.6464         estimate D2E/DX2                !
 ! D5    D(3,1,4,6)            146.6464         estimate D2E/DX2                !
 ! D6    D(3,1,4,7)            -93.3536         estimate D2E/DX2                !
 ! D7    D(1,4,7,8)            -60.0            estimate D2E/DX2                !
 ! D8    D(5,4,7,8)            180.0            estimate D2E/DX2                !
 ! D9    D(6,4,7,8)             60.0            estimate D2E/DX2                !
 --------------------------------------------------------------------------------
 Trust Radius=3.00D-01 FncErr=1.00D-07 GrdErr=1.00D-06
 Number of steps in this run=  36 maximum allowed number of steps= 100.
 GradGradGradGradGradGradGradGradGradGradGradGradGradGradGradGradGradGrad

                          Input orientation:                          
 ---------------------------------------------------------------------
 Center     Atomic      Atomic             Coordinates (Angstroms)
 Number     Number       Type             X           Y           Z
 ---------------------------------------------------------------------
      1          6           0       -0.476164    0.748099    0.591772
      2          1           0        0.057000   -0.179606    0.591772
      3          1           0       -1.546164    0.748099    0.591772
      4          6           0        0.256154    2.022581    0.740285
      5          1           0       -0.350145    2.721836    1.277261
      6          1           0        1.164791    1.851183    1.278712
      7          8           0        0.560930    2.550734   -0.553185
      8          1           0        1.065558    1.759951   -0.757177
 ---------------------------------------------------------------------
                    Distance matrix (angstroms):
                    1          2          3          4          5
     1  C    0.000000
     2  H    1.070000   0.000000
     3  H    1.070000   1.852234   0.000000
     4  C    1.477379   2.216155   2.212399   0.000000
     5  H    2.093182   3.008991   2.407487   1.070000   0.000000
     6  H    2.093182   2.413129   3.006319   1.070000   1.747303
     7  O    2.374023   3.003270   3.000044   1.430000   2.051796
     8  H    2.284822   2.568800   3.108793   1.722353   2.658641
                    6          7          8
     6  H    0.000000
     7  O    2.051796   0.000000
     8  H    2.040346   0.960000   0.000000
 Stoichiometry    C2H5O(2)
 Framework group  C1[X(C2H5O)]
 Deg. of freedom    18
 Full point group                 C1      NOp   1
 Largest Abelian subgroup         C1      NOp   1
 Largest concise Abelian subgroup C1      NOp   1
                         Standard orientation:                         
 ---------------------------------------------------------------------
 Center     Atomic      Atomic             Coordinates (Angstroms)
 Number     Number       Type             X           Y           Z
 ---------------------------------------------------------------------
      1          6           0       -1.205097   -0.236333   -0.039999
      2          1           0       -1.654897   -0.656870    0.835060
      3          1           0       -1.711364   -0.295846   -0.980771
      4          6           0        0.038911    0.552461    0.073564
      5          1           0        0.039034    1.326629   -0.665058
      6          1           0        0.096277    0.989651    1.048487
      7          8           0        1.166194   -0.302961   -0.132318
      8          1           0        0.898516   -0.836641    0.619436
 ---------------------------------------------------------------------
 Rotational constants (GHZ):     36.8875768     10.2004514      9.1096112
 Standard basis: 6-31+G(d,p) (6D, 7F)
 There are    82 symmetry adapted basis functions of A   symmetry.
 Integral buffers will be    262144 words long.
 Raffenetti 2 integral format.
 Two-electron integral symmetry is turned on.
    82 basis functions,   131 primitive gaussians,    82 cartesian basis functions
    13 alpha electrons       12 beta electrons
       nuclear repulsion energy        75.9318939695 Hartrees.
 NAtoms=    8 NActive=    8 NUniq=    8 SFac= 7.50D-01 NAtFMM=   80 NAOKFM=F Big=F
 One-electron integrals computed using PRISM.
 NBasis=    82 RedAO= T  NBF=    82
 NBsUse=    82 1.00D-06 NBFU=    82
 Harris functional with IExCor= 1009 diagonalized for initial guess.
 ExpMin= 4.38D-02 ExpMax= 5.48D+03 ExpMxC= 8.25D+02 IAcc=2 IRadAn=         0 AccDes= 0.00D+00
 HarFok:  IExCor= 1009 AccDes= 0.00D+00 IRadAn=         0 IDoV= 1
 ScaDFX=  1.000000  1.000000  1.000000  1.000000
 FoFCou: FMM=F IPFlag=           0 FMFlag=      100000 FMFlg1=           0
         NFxFlg=           0 DoJE=T BraDBF=F KetDBF=T FulRan=T
         Omega=  0.000000  0.000000  1.000000  0.000000  0.000000 ICntrl=     500 IOpCl=  0
         NMat0=    1 NMatS0=    1 NMatT0=    0 NMatD0=    1 NMtDS0=    0 NMtDT0=    0
         I1Cent=           4 NGrid=           0.
 Petite list used in FoFCou.
 Initial guess orbital symmetries:
 Alpha Orbitals:
       Occupied  (A) (A) (A) (A) (A) (A) (A) (A) (A) (A) (A) (A)
                 (A)
       Virtual   (A) (A) (A) (A) (A) (A) (A) (A) (A) (A) (A) (A)
                 (A) (A) (A) (A) (A) (A) (A) (A) (A) (A) (A) (A)
                 (A) (A) (A) (A) (A) (A) (A) (A) (A) (A) (A) (A)
                 (A) (A) (A) (A) (A) (A) (A) (A) (A) (A) (A) (A)
                 (A) (A) (A) (A) (A) (A) (A) (A) (A) (A) (A) (A)
                 (A) (A) (A) (A) (A) (A) (A) (A) (A)
 Beta  Orbitals:
       Occupied  (A) (A) (A) (A) (A) (A) (A) (A) (A) (A) (A) (A)
       Virtual   (A) (A) (A) (A) (A) (A) (A) (A) (A) (A) (A) (A)
                 (A) (A) (A) (A) (A) (A) (A) (A) (A) (A) (A) (A)
                 (A) (A) (A) (A) (A) (A) (A) (A) (A) (A) (A) (A)
                 (A) (A) (A) (A) (A) (A) (A) (A) (A) (A) (A) (A)
                 (A) (A) (A) (A) (A) (A) (A) (A) (A) (A) (A) (A)
                 (A) (A) (A) (A) (A) (A) (A) (A) (A) (A)
 The electronic state of the initial guess is 2-A.
 Initial guess <Sx>= 0.0000 <Sy>= 0.0000 <Sz>= 0.5000 <S**2>= 0.7500 S= 0.5000
 Requested convergence on RMS density matrix=1.00D-08 within 128 cycles.
 Requested convergence on MAX density matrix=1.00D-06.
 Requested convergence on             energy=1.00D-06.
 No special actions if energy rises.
 Keep R1 and R2 ints in memory in canonical form, NReq=12588148.
 SCF Done:  E(UM062X) =  -154.287326801     A.U. after   13 cycles
             Convg  =    0.9079D-08             -V/T =  2.0070
 <Sx>= 0.0000 <Sy>= 0.0000 <Sz>= 0.5000 <S**2>= 0.7553 S= 0.5027
 <L.S>= 0.000000000000E+00
 Annihilation of the first spin contaminant:
 S**2 before annihilation     0.7553,   after     0.7500

 **********************************************************************

            Population analysis using the SCF density.

 **********************************************************************

 Orbital symmetries:
 Alpha Orbitals:
       Occupied  (A) (A) (A) (A) (A) (A) (A) (A) (A) (A) (A) (A)
                 (A)
       Virtual   (A) (A) (A) (A) (A) (A) (A) (A) (A) (A) (A) (A)
                 (A) (A) (A) (A) (A) (A) (A) (A) (A) (A) (A) (A)
                 (A) (A) (A) (A) (A) (A) (A) (A) (A) (A) (A) (A)
                 (A) (A) (A) (A) (A) (A) (A) (A) (A) (A) (A) (A)
                 (A) (A) (A) (A) (A) (A) (A) (A) (A) (A) (A) (A)
                 (A) (A) (A) (A) (A) (A) (A) (A) (A)
 Beta  Orbitals:
       Occupied  (A) (A) (A) (A) (A) (A) (A) (A) (A) (A) (A) (A)
       Virtual   (A) (A) (A) (A) (A) (A) (A) (A) (A) (A) (A) (A)
                 (A) (A) (A) (A) (A) (A) (A) (A) (A) (A) (A) (A)
                 (A) (A) (A) (A) (A) (A) (A) (A) (A) (A) (A) (A)
                 (A) (A) (A) (A) (A) (A) (A) (A) (A) (A) (A) (A)
                 (A) (A) (A) (A) (A) (A) (A) (A) (A) (A) (A) (A)
                 (A) (A) (A) (A) (A) (A) (A) (A) (A) (A)
 The electronic state is 2-A.
 Alpha  occ. eigenvalues --  -19.65013 -10.59481 -10.56693  -1.16200  -0.85600
 Alpha  occ. eigenvalues --   -0.70736  -0.59873  -0.53086  -0.52121  -0.48157
 Alpha  occ. eigenvalues --   -0.42209  -0.36151  -0.28593
 Alpha virt. eigenvalues --    0.02916   0.04379   0.05003   0.06058   0.08726
 Alpha virt. eigenvalues --    0.09173   0.10468   0.15617   0.18420   0.19660
 Alpha virt. eigenvalues --    0.23394   0.23644   0.25294   0.29247   0.29692
 Alpha virt. eigenvalues --    0.31955   0.34068   0.34341   0.39422   0.64807
 Alpha virt. eigenvalues --    0.67516   0.68901   0.71247   0.73638   0.85695
 Alpha virt. eigenvalues --    0.95888   0.98574   1.02086   1.04698   1.06443
 Alpha virt. eigenvalues --    1.09915   1.21562   1.25505   1.33514   1.39304
 Alpha virt. eigenvalues --    1.43079   1.45817   1.58189   1.61964   1.66503
 Alpha virt. eigenvalues --    1.81486   1.92985   1.94327   1.98646   1.99531
 Alpha virt. eigenvalues --    2.10243   2.17713   2.27823   2.31113   2.41788
 Alpha virt. eigenvalues --    2.45829   2.54469   2.55887   2.60509   2.64729
 Alpha virt. eigenvalues --    2.69518   2.70416   2.82182   2.87414   2.93576
 Alpha virt. eigenvalues --    3.01834   3.28505   3.40691   3.45068   3.51400
 Alpha virt. eigenvalues --    3.56506   4.19951   4.31632   4.58068
  Beta  occ. eigenvalues --  -19.64826 -10.59550 -10.55988  -1.15528  -0.83158
  Beta  occ. eigenvalues --   -0.68626  -0.59342  -0.52212  -0.50686  -0.47298
  Beta  occ. eigenvalues --   -0.41682  -0.35358
  Beta virt. eigenvalues --   -0.04518   0.02158   0.04256   0.04805   0.06598
  Beta virt. eigenvalues --    0.08431   0.08929   0.10447   0.14352   0.18275
  Beta virt. eigenvalues --    0.19788   0.23881   0.24076   0.26367   0.28868
  Beta virt. eigenvalues --    0.29630   0.32564   0.34557   0.34718   0.39671
  Beta virt. eigenvalues --    0.65604   0.68401   0.69248   0.74901   0.76441
  Beta virt. eigenvalues --    0.86217   0.96188   1.00289   1.03974   1.06263
  Beta virt. eigenvalues --    1.06908   1.10745   1.21963   1.26179   1.33848
  Beta virt. eigenvalues --    1.39854   1.43991   1.49870   1.59689   1.62120
  Beta virt. eigenvalues --    1.66987   1.83957   1.94164   1.97020   2.01939
  Beta virt. eigenvalues --    2.03428   2.11852   2.18008   2.28765   2.33557
  Beta virt. eigenvalues --    2.45251   2.47017   2.56732   2.58133   2.62620
  Beta virt. eigenvalues --    2.65641   2.69959   2.70955   2.83801   2.88226
  Beta virt. eigenvalues --    2.95806   3.02156   3.30117   3.43013   3.46530
  Beta virt. eigenvalues --    3.54904   3.57296   4.20286   4.36243   4.59049
          Condensed to atoms (all electrons):
              1          2          3          4          5          6
     1  C    5.401906   0.393850   0.398282   0.277611  -0.041442  -0.032022
     2  H    0.393850   0.502845  -0.025293  -0.032569   0.003728  -0.007587
     3  H    0.398282  -0.025293   0.482850  -0.031286  -0.006839   0.004071
     4  C    0.277611  -0.032569  -0.031286   5.069773   0.431324   0.385168
     5  H   -0.041442   0.003728  -0.006839   0.431324   0.539549  -0.034636
     6  H   -0.032022  -0.007587   0.004071   0.385168  -0.034636   0.594647
     7  O   -0.071339  -0.000870   0.005802   0.095934  -0.061045  -0.043920
     8  H   -0.000556   0.002316  -0.000546  -0.012571   0.010319  -0.013498
              7          8
     1  C   -0.071339  -0.000556
     2  H   -0.000870   0.002316
     3  H    0.005802  -0.000546
     4  C    0.095934  -0.012571
     5  H   -0.061045   0.010319
     6  H   -0.043920  -0.013498
     7  O    8.306703   0.235160
     8  H    0.235160   0.446632
 Mulliken atomic charges:
              1
     1  C   -0.326290
     2  H    0.163580
     3  H    0.172959
     4  C   -0.183384
     5  H    0.159041
     6  H    0.147776
     7  O   -0.466425
     8  H    0.332743
 Sum of Mulliken atomic charges =   0.00000
 Mulliken charges with hydrogens summed into heavy atoms:
              1
     1  C    0.010249
     4  C    0.123433
     7  O   -0.133681
 Sum of Mulliken charges with hydrogens summed into heavy atoms =   0.00000
          Atomic-Atomic Spin Densities.
              1          2          3          4          5          6
     1  C    1.213848  -0.003663  -0.006356   0.014046  -0.012701  -0.018906
     2  H   -0.003663  -0.049838   0.001516  -0.004601  -0.000065   0.000459
     3  H   -0.006356   0.001516  -0.049392  -0.001698   0.000447   0.000012
     4  C    0.014046  -0.004601  -0.001698  -0.117240   0.014911   0.021751
     5  H   -0.012701  -0.000065   0.000447   0.014911   0.008011   0.001982
     6  H   -0.018906   0.000459   0.000012   0.021751   0.001982   0.004412
     7  O   -0.064127   0.000928   0.000201  -0.003813  -0.006657  -0.006547
     8  H    0.004632   0.000039   0.000037   0.005383   0.000229   0.001021
              7          8
     1  C   -0.064127   0.004632
     2  H    0.000928   0.000039
     3  H    0.000201   0.000037
     4  C   -0.003813   0.005383
     5  H   -0.006657   0.000229
     6  H   -0.006547   0.001021
     7  O    0.124879  -0.004390
     8  H   -0.004390  -0.002822
 Mulliken atomic spin densities:
              1
     1  C    1.126772
     2  H   -0.055224
     3  H   -0.055232
     4  C   -0.071260
     5  H    0.006157
     6  H    0.004184
     7  O    0.040474
     8  H    0.004128
 Sum of Mulliken atomic spin densities =   1.00000
 Electronic spatial extent (au):  <R**2>=            175.5322
 Charge=              0.0000 electrons
 Dipole moment (field-independent basis, Debye):
    X=             -1.7407    Y=              0.2051    Z=              1.3173  Tot=              2.1925
 Quadrupole moment (field-independent basis, Debye-Ang):
   XX=            -22.6557   YY=            -19.0875   ZZ=            -18.0089
   XY=              0.3890   XZ=              1.5919   YZ=             -1.8144
 Traceless Quadrupole moment (field-independent basis, Debye-Ang):
   XX=             -2.7384   YY=              0.8299   ZZ=              1.9085
   XY=              0.3890   XZ=              1.5919   YZ=             -1.8144
 Octapole moment (field-independent basis, Debye-Ang**2):
  XXX=              0.2464  YYY=             -0.2219  ZZZ=              0.8100  XYY=              3.1206
  XXY=             -1.7126  XXZ=              0.7131  XZZ=              0.6449  YZZ=             -0.4032
  YYZ=              1.1217  XYZ=             -0.8876
 Hexadecapole moment (field-independent basis, Debye-Ang**3):
 XXXX=           -154.1878 YYYY=            -53.1491 ZZZZ=            -33.5655 XXXY=              1.2637
 XXXZ=              2.3506 YYYX=             -3.1251 YYYZ=             -3.0014 ZZZX=              1.6478
 ZZZY=             -1.7879 XXYY=            -32.9937 XXZZ=            -27.1709 YYZZ=            -13.5535
 XXYZ=             -2.1887 YYXZ=              0.6190 ZZXY=              0.0947
 N-N= 7.593189396952D+01 E-N=-7.630555924484D+02  KE= 2.291108635134D+02
                          Isotropic Fermi Contact Couplings
        Atom                 a.u.       MegaHertz       Gauss      10(-4) cm-1
     1  C(13)              0.18544     208.47014      74.38733      69.53815
     2  H(1)              -0.01600     -71.53998     -25.52724     -23.86317
     3  H(1)              -0.01624     -72.60265     -25.90643     -24.21764
     4  C(13)             -0.02688     -30.21893     -10.78287     -10.07995
     5  H(1)               0.00366      16.37986       5.84474       5.46373
     6  H(1)               0.00269      12.01319       4.28660       4.00717
     7  O(17)              0.05055     -30.64540     -10.93504     -10.22221
     8  H(1)              -0.00152      -6.79577      -2.42490      -2.26683
 --------------------------------------------------------
       Center         ----  Spin Dipole Couplings  ----
                      3XX-RR        3YY-RR        3ZZ-RR
 --------------------------------------------------------
     1   Atom       -0.071968      0.508498     -0.436530
     2   Atom       -0.027768      0.000083      0.027684
     3   Atom       -0.020010     -0.025043      0.045053
     4   Atom        0.004967      0.000910     -0.005877
     5   Atom        0.004516      0.005573     -0.010089
     6   Atom        0.005963     -0.000272     -0.005691
     7   Atom        0.311902     -0.149546     -0.162356
     8   Atom        0.008673     -0.011125      0.002452
 --------------------------------------------------------
                        XY            XZ            YZ
 --------------------------------------------------------
     1   Atom       -0.653817     -0.149789      0.228708
     2   Atom       -0.005917     -0.055638     -0.039889
     3   Atom       -0.026085      0.053939      0.018424
     4   Atom        0.008667      0.000653      0.001032
     5   Atom        0.012528     -0.005707     -0.005500
     6   Atom        0.010183      0.009654      0.008738
     7   Atom       -0.015573     -0.009392     -0.005569
     8   Atom       -0.002598      0.008813     -0.016848
 --------------------------------------------------------


 ---------------------------------------------------------------------------------
              Anisotropic Spin Dipole Couplings in Principal Axis System
 ---------------------------------------------------------------------------------

       Atom             a.u.   MegaHertz   Gauss  10(-4) cm-1        Axes

              Baa    -0.4972   -66.716   -23.806   -22.254  0.8445  0.5246  0.1075
     1 C(13)  Bbb    -0.4890   -65.615   -23.413   -21.887  0.0105 -0.2170  0.9761
              Bcc     0.9861   132.331    47.219    44.141 -0.5354  0.8232  0.1887
 
              Baa    -0.0725   -38.701   -13.809   -12.909  0.7433  0.3676  0.5589
     2 H(1)   Bbb    -0.0030    -1.619    -0.578    -0.540 -0.5232  0.8401  0.1433
              Bcc     0.0756    40.320    14.387    13.449 -0.4169 -0.3989  0.8167
 
              Baa    -0.0720   -38.415   -13.708   -12.814  0.7148  0.5609 -0.4177
     3 H(1)   Bbb    -0.0036    -1.933    -0.690    -0.645 -0.5050  0.8271  0.2466
              Bcc     0.0756    40.349    14.397    13.459  0.4838  0.0347  0.8745
 
              Baa    -0.0064    -0.853    -0.304    -0.285  0.4076 -0.5855  0.7007
     4 C(13)  Bbb    -0.0056    -0.745    -0.266    -0.249 -0.4731  0.5209  0.7105
              Bcc     0.0119     1.599     0.570     0.533  0.7810  0.6212  0.0647
 
              Baa    -0.0122    -6.517    -2.326    -2.174  0.2236  0.1407  0.9645
     5 H(1)   Bbb    -0.0075    -3.989    -1.423    -1.330  0.7070 -0.7046 -0.0611
              Bcc     0.0197    10.506     3.749     3.504  0.6709  0.6956 -0.2570
 
              Baa    -0.0125    -6.670    -2.380    -2.225 -0.2071 -0.4488  0.8693
     6 H(1)   Bbb    -0.0075    -4.020    -1.435    -1.341 -0.6781  0.7063  0.2031
              Bcc     0.0200    10.691     3.815     3.566  0.7052  0.5474  0.4506
 
              Baa    -0.1649    11.930     4.257     3.979  0.0303  0.3684  0.9292
     7 O(17)  Bbb    -0.1477    10.690     3.814     3.566  0.0239  0.9290 -0.3692
              Bcc     0.3126   -22.620    -8.071    -7.545  0.9993 -0.0334 -0.0194
 
              Baa    -0.0228   -12.146    -4.334    -4.051 -0.0943  0.8122  0.5756
     8 H(1)   Bbb     0.0023     1.237     0.442     0.413  0.7927  0.4111 -0.4502
              Bcc     0.0204    10.908     3.892     3.639  0.6023 -0.4138  0.6826
 

 ---------------------------------------------------------------------------------

 Calling FoFJK, ICntrl=      2127 FMM=F ISym2X=0 I1Cent= 0 IOpClX= 1 NMat=1 NMatS=1 NMatT=0.
 ***** Axes restored to original set *****
 -------------------------------------------------------------------
 Center     Atomic                   Forces (Hartrees/Bohr)
 Number     Number              X              Y              Z
 -------------------------------------------------------------------
      1        6          -0.001636722    0.001064065    0.007870702
      2        1           0.002668034   -0.010351402   -0.001578335
      3        1          -0.008980478   -0.002981979   -0.003119325
      4        6          -0.019603502    0.000951647    0.002843368
      5        1          -0.006140744    0.014339680    0.006322391
      6        1           0.016356408    0.001313354    0.011844055
      7        8           0.006149235   -0.010580610    0.010786780
      8        1           0.011187769    0.006245245   -0.034969636
 -------------------------------------------------------------------
 Cartesian Forces:  Max     0.034969636 RMS     0.011219565

 GradGradGradGradGradGradGradGradGradGradGradGradGradGradGradGradGradGrad
 Berny optimization.
 Internal  Forces:  Max     0.065894123 RMS     0.015526771
 Search for a local minimum.
 Step number   1 out of a maximum of   36
 All quantities printed in internal units (Hartrees-Bohrs-Radians)
 Mixed Optimization -- RFO/linear search
 Second derivative matrix not updated -- first step.
     Eigenvalues ---    0.01065   0.01099   0.01295   0.06618   0.07653
     Eigenvalues ---    0.11376   0.13914   0.16000   0.16000   0.16000
     Eigenvalues ---    0.22118   0.34871   0.37230   0.37230   0.37230
     Eigenvalues ---    0.37230   0.40989   0.554731000.000001000.00000
     Eigenvalues --- 1000.000001000.000001000.000001000.000001000.00000
     Eigenvalues --- 1000.00000
 RFO step:  Lambda=-2.87717342D-02 EMin= 1.06517995D-02
 Linear search not attempted -- first point.
 Maximum step size (   0.300) exceeded in Quadratic search.
    -- Step size scaled by   0.777
 Iteration  1 RMS(Cart)=  0.08221354 RMS(Int)=  0.01712722
 Iteration  2 RMS(Cart)=  0.02578362 RMS(Int)=  0.00100100
 Iteration  3 RMS(Cart)=  0.00094624 RMS(Int)=  0.00025654
 Iteration  4 RMS(Cart)=  0.00000116 RMS(Int)=  0.00025654
 Iteration  5 RMS(Cart)=  0.00000000 RMS(Int)=  0.00025654
 Variable       Old X    -DE/DX   Delta X   Delta X   Delta X     New X
                                 (Linear)    (Quad)   (Total)
    R1        2.02201   0.01030   0.00000   0.01996   0.01996   2.04196
    R2        2.02201   0.00899   0.00000   0.01742   0.01742   2.03942
    R3        2.79184   0.01419   0.00000   0.02923   0.02923   2.82107
    R4        2.02201   0.01602   0.00000   0.03104   0.03104   2.05305
    R5        2.02201   0.01964   0.00000   0.03807   0.03807   2.06008
    R6        2.70231   0.02398   0.00000   0.04249   0.04249   2.74479
    R7        1.81414   0.00818   0.00000   0.01090   0.01090   1.82504
    A1        2.09241  -0.00418   0.00000  -0.01588  -0.01628   2.07614
    A2        2.09549   0.00195   0.00000   0.00936   0.00896   2.10445
    A3        2.08942   0.00253   0.00000   0.01175   0.01135   2.10077
    A4        1.91063   0.00186   0.00000   0.01091   0.01112   1.92176
    A5        1.91063   0.00109   0.00000   0.01585   0.01555   1.92619
    A6        1.91063   0.00922   0.00000   0.03166   0.03144   1.94207
    A7        1.91063  -0.00226   0.00000  -0.01932  -0.01961   1.89103
    A8        1.91063  -0.00773   0.00000  -0.03788  -0.03803   1.87261
    A9        1.91063  -0.00219   0.00000  -0.00122  -0.00189   1.90874
   A10        1.57080   0.06589   0.00000   0.27134   0.27134   1.84214
    D1       -2.56031  -0.00143   0.00000  -0.02094  -0.02088  -2.58119
    D2       -0.46592  -0.00238   0.00000  -0.02821  -0.02843  -0.49435
    D3        1.62848   0.00125   0.00000  -0.00061  -0.00048   1.62800
    D4        0.46507   0.00117   0.00000   0.02975   0.02983   0.49489
    D5        2.55946   0.00021   0.00000   0.02248   0.02228   2.58174
    D6       -1.62933   0.00385   0.00000   0.05008   0.05023  -1.57910
    D7       -1.04720  -0.00019   0.00000   0.00230   0.00204  -1.04515
    D8        3.14159  -0.00338   0.00000  -0.00725  -0.00676   3.13483
    D9        1.04720   0.00546   0.00000   0.04036   0.04012   1.08732
         Item               Value     Threshold  Converged?
 Maximum Force            0.065894     0.000450     NO 
 RMS     Force            0.015527     0.000300     NO 
 Maximum Displacement     0.392448     0.001800     NO 
 RMS     Displacement     0.105432     0.001200     NO 
 Predicted change in Energy=-1.496739D-02
 GradGradGradGradGradGradGradGradGradGradGradGradGradGradGradGradGradGrad

                          Input orientation:                          
 ---------------------------------------------------------------------
 Center     Atomic      Atomic             Coordinates (Angstroms)
 Number     Number       Type             X           Y           Z
 ---------------------------------------------------------------------
      1          6           0       -0.500827    0.719041    0.637112
      2          1           0        0.018833   -0.228187    0.655070
      3          1           0       -1.578798    0.722669    0.585393
      4          6           0        0.252840    2.001231    0.765807
      5          1           0       -0.355651    2.742550    1.276210
      6          1           0        1.164639    1.848928    1.343598
      7          8           0        0.593590    2.545257   -0.537125
      8          1           0        1.137333    1.871389   -0.964851
 ---------------------------------------------------------------------
                    Distance matrix (angstroms):
                    1          2          3          4          5
     1  C    0.000000
     2  H    1.080560   0.000000
     3  H    1.079216   1.860485   0.000000
     4  C    1.492846   2.244399   2.241020   0.000000
     5  H    2.126996   3.057994   2.460333   1.086428   0.000000
     6  H    2.132967   2.470091   3.061010   1.090145   1.764761
     7  O    2.431388   3.073055   3.049777   1.452483   2.056250
     8  H    2.564715   2.878091   3.331694   1.947913   2.830244
                    6          7          8
     6  H    0.000000
     7  O    2.085208   0.000000
     8  H    2.308721   0.965767   0.000000
 Stoichiometry    C2H5O(2)
 Framework group  C1[X(C2H5O)]
 Deg. of freedom    18
 Full point group                 C1      NOp   1
 Largest Abelian subgroup         C1      NOp   1
 Largest concise Abelian subgroup C1      NOp   1
                         Standard orientation:                         
 ---------------------------------------------------------------------
 Center     Atomic      Atomic             Coordinates (Angstroms)
 Number     Number       Type             X           Y           Z
 ---------------------------------------------------------------------
      1          6           0       -1.240273   -0.244659   -0.032968
      2          1           0       -1.698069   -0.669855    0.848644
      3          1           0       -1.737542   -0.354434   -0.984483
      4          6           0        0.016722    0.553538    0.073965
      5          1           0        0.034042    1.327018   -0.688764
      6          1           0        0.079405    1.033397    1.050808
      7          8           0        1.188950   -0.279670   -0.129385
      8          1           0        1.151865   -0.952040    0.562894
 ---------------------------------------------------------------------
 Rotational constants (GHZ):     36.3660341      9.6862966      8.6655091
 Standard basis: 6-31+G(d,p) (6D, 7F)
 There are    82 symmetry adapted basis functions of A   symmetry.
 Integral buffers will be    262144 words long.
 Raffenetti 2 integral format.
 Two-electron integral symmetry is turned on.
    82 basis functions,   131 primitive gaussians,    82 cartesian basis functions
    13 alpha electrons       12 beta electrons
       nuclear repulsion energy        74.4483601247 Hartrees.
 NAtoms=    8 NActive=    8 NUniq=    8 SFac= 7.50D-01 NAtFMM=   80 NAOKFM=F Big=F
 One-electron integrals computed using PRISM.
 NBasis=    82 RedAO= T  NBF=    82
 NBsUse=    82 1.00D-06 NBFU=    82
 Initial guess read from the read-write file.
 B after Tr=     0.000000    0.000000    0.000000
         Rot=    1.000000    0.000000    0.000000    0.000000 Ang=   0.00 deg.
 Initial guess orbital symmetries:
 Alpha Orbitals:
       Occupied  (A) (A) (A) (A) (A) (A) (A) (A) (A) (A) (A) (A)
                 (A)
       Virtual   (A) (A) (A) (A) (A) (A) (A) (A) (A) (A) (A) (A)
                 (A) (A) (A) (A) (A) (A) (A) (A) (A) (A) (A) (A)
                 (A) (A) (A) (A) (A) (A) (A) (A) (A) (A) (A) (A)
                 (A) (A) (A) (A) (A) (A) (A) (A) (A) (A) (A) (A)
                 (A) (A) (A) (A) (A) (A) (A) (A) (A) (A) (A) (A)
                 (A) (A) (A) (A) (A) (A) (A) (A) (A)
 Beta  Orbitals:
       Occupied  (A) (A) (A) (A) (A) (A) (A) (A) (A) (A) (A) (A)
       Virtual   (A) (A) (A) (A) (A) (A) (A) (A) (A) (A) (A) (A)
                 (A) (A) (A) (A) (A) (A) (A) (A) (A) (A) (A) (A)
                 (A) (A) (A) (A) (A) (A) (A) (A) (A) (A) (A) (A)
                 (A) (A) (A) (A) (A) (A) (A) (A) (A) (A) (A) (A)
                 (A) (A) (A) (A) (A) (A) (A) (A) (A) (A) (A) (A)
                 (A) (A) (A) (A) (A) (A) (A) (A) (A) (A)
 Initial guess <Sx>= 0.0000 <Sy>= 0.0000 <Sz>= 0.5000 <S**2>= 0.7555 S= 0.5027
 Harris functional with IExCor= 1009 diagonalized for initial guess.
 ExpMin= 4.38D-02 ExpMax= 5.48D+03 ExpMxC= 8.25D+02 IAcc=2 IRadAn=         0 AccDes= 0.00D+00
 HarFok:  IExCor= 1009 AccDes= 0.00D+00 IRadAn=         0 IDoV= 1
 ScaDFX=  1.000000  1.000000  1.000000  1.000000
 FoFCou: FMM=F IPFlag=           0 FMFlag=      100000 FMFlg1=           0
         NFxFlg=           0 DoJE=T BraDBF=F KetDBF=T FulRan=T
         Omega=  0.000000  0.000000  1.000000  0.000000  0.000000 ICntrl=     500 IOpCl=  0
         NMat0=    1 NMatS0=    1 NMatT0=    0 NMatD0=    1 NMtDS0=    0 NMtDT0=    0
         I1Cent=           4 NGrid=           0.
 Petite list used in FoFCou.
 Requested convergence on RMS density matrix=1.00D-08 within 128 cycles.
 Requested convergence on MAX density matrix=1.00D-06.
 Requested convergence on             energy=1.00D-06.
 No special actions if energy rises.
 Keep R1 and R2 ints in memory in canonical form, NReq=12588148.
 SCF Done:  E(UM062X) =  -154.299106956     A.U. after   12 cycles
             Convg  =    0.5771D-08             -V/T =  2.0086
 <Sx>= 0.0000 <Sy>= 0.0000 <Sz>= 0.5000 <S**2>= 0.7556 S= 0.5028
 <L.S>= 0.000000000000E+00
 Annihilation of the first spin contaminant:
 S**2 before annihilation     0.7556,   after     0.7500
 Calling FoFJK, ICntrl=      2127 FMM=F ISym2X=0 I1Cent= 0 IOpClX= 1 NMat=1 NMatS=1 NMatT=0.
 ***** Axes restored to original set *****
 -------------------------------------------------------------------
 Center     Atomic                   Forces (Hartrees/Bohr)
 Number     Number              X              Y              Z
 -------------------------------------------------------------------
      1        6           0.002498547    0.003947896    0.005190993
      2        1           0.000229297   -0.002476422   -0.001259329
      3        1          -0.002206319   -0.000970487   -0.002412361
      4        6          -0.000733766   -0.005165533   -0.012416046
      5        1          -0.000598153    0.005865835   -0.002030230
      6        1           0.003944627    0.000609052    0.002559059
      7        8          -0.002071373   -0.004463044    0.012650344
      8        1          -0.001062860    0.002652703   -0.002282432
 -------------------------------------------------------------------
 Cartesian Forces:  Max     0.012650344 RMS     0.004603163

 GradGradGradGradGradGradGradGradGradGradGradGradGradGradGradGradGradGrad
 Berny optimization.
 Using GEDIIS/GDIIS optimizer.
 Internal  Forces:  Max     0.010708536 RMS     0.003314156
 Search for a local minimum.
 Step number   2 out of a maximum of   36
 All quantities printed in internal units (Hartrees-Bohrs-Radians)
 Mixed Optimization -- RFO/linear search
 Update second derivatives using D2CorX and points    1    2
 DE= -1.18D-02 DEPred=-1.50D-02 R= 7.87D-01
 SS=  1.41D+00  RLast= 3.00D-01 DXNew= 5.0454D-01 8.9997D-01
 Trust test= 7.87D-01 RLast= 3.00D-01 DXMaxT set to 5.05D-01
 Use linear search instead of GDIIS.
     Eigenvalues ---    0.01065   0.01075   0.01295   0.06288   0.07508
     Eigenvalues ---    0.11473   0.13923   0.15977   0.16000   0.20074
     Eigenvalues ---    0.21981   0.35129   0.36570   0.37230   0.37230
     Eigenvalues ---    0.37232   0.46388   0.558691000.000001000.00000
     Eigenvalues --- 1000.000001000.000001000.000001000.000001000.00000
     Eigenvalues --- 1000.00000
 RFO step:  Lambda=-2.01248272D-03 EMin= 1.06534146D-02
 Quartic linear search produced a step of  0.13728.
 Iteration  1 RMS(Cart)=  0.04286799 RMS(Int)=  0.00300855
 Iteration  2 RMS(Cart)=  0.00228035 RMS(Int)=  0.00167305
 Iteration  3 RMS(Cart)=  0.00000232 RMS(Int)=  0.00167304
 Iteration  4 RMS(Cart)=  0.00000000 RMS(Int)=  0.00167304
 Variable       Old X    -DE/DX   Delta X   Delta X   Delta X     New X
                                 (Linear)    (Quad)   (Total)
    R1        2.04196   0.00225   0.00274   0.00443   0.00717   2.04914
    R2        2.03942   0.00232   0.00239   0.00495   0.00734   2.04677
    R3        2.82107  -0.00083   0.00401  -0.00619  -0.00218   2.81889
    R4        2.05305   0.00338   0.00426   0.00651   0.01078   2.06383
    R5        2.06008   0.00458   0.00523   0.00931   0.01454   2.07461
    R6        2.74479  -0.01071   0.00583  -0.03462  -0.02878   2.71601
    R7        1.82504  -0.00144   0.00150  -0.00424  -0.00275   1.82229
    A1        2.07614  -0.00150  -0.00223  -0.00541  -0.01255   2.06358
    A2        2.10445   0.00083   0.00123   0.00795   0.00431   2.10876
    A3        2.10077   0.00079   0.00156   0.00740   0.00409   2.10486
    A4        1.92176   0.00297   0.00153   0.02042   0.02191   1.94367
    A5        1.92619   0.00018   0.00214   0.01501   0.01671   1.94290
    A6        1.94207   0.00318   0.00432   0.01151   0.01566   1.95773
    A7        1.89103  -0.00012  -0.00269   0.00220  -0.00103   1.88999
    A8        1.87261  -0.00617  -0.00522  -0.05807  -0.06328   1.80933
    A9        1.90874  -0.00029  -0.00026   0.00681   0.00604   1.91478
   A10        1.84214   0.00603   0.03725   0.01026   0.04751   1.88965
    D1       -2.58119  -0.00259  -0.00287  -0.08833  -0.09118  -2.67238
    D2       -0.49435  -0.00074  -0.00390  -0.06317  -0.06694  -0.56129
    D3        1.62800   0.00117  -0.00007  -0.03647  -0.03620   1.59180
    D4        0.49489  -0.00054   0.00409   0.08995   0.09374   0.58863
    D5        2.58174   0.00130   0.00306   0.11511   0.11797   2.69971
    D6       -1.57910   0.00321   0.00690   0.14181   0.14872  -1.43038
    D7       -1.04515   0.00021   0.00028   0.01691   0.01708  -1.02808
    D8        3.13483  -0.00138  -0.00093   0.02199   0.02135  -3.12700
    D9        1.08732   0.00235   0.00551   0.04807   0.05341   1.14073
         Item               Value     Threshold  Converged?
 Maximum Force            0.010709     0.000450     NO 
 RMS     Force            0.003314     0.000300     NO 
 Maximum Displacement     0.123783     0.001800     NO 
 RMS     Displacement     0.042832     0.001200     NO 
 Predicted change in Energy=-1.072469D-03
 GradGradGradGradGradGradGradGradGradGradGradGradGradGradGradGradGradGrad

                          Input orientation:                          
 ---------------------------------------------------------------------
 Center     Atomic      Atomic             Coordinates (Angstroms)
 Number     Number       Type             X           Y           Z
 ---------------------------------------------------------------------
      1          6           0       -0.500877    0.710779    0.681849
      2          1           0        0.013714   -0.243409    0.658400
      3          1           0       -1.571765    0.719529    0.519889
      4          6           0        0.262323    1.988488    0.782508
      5          1           0       -0.334241    2.772131    1.254485
      6          1           0        1.183388    1.858376    1.365565
      7          8           0        0.579133    2.534155   -0.508836
      8          1           0        1.100286    1.882829   -0.992647
 ---------------------------------------------------------------------
                    Distance matrix (angstroms):
                    1          2          3          4          5
     1  C    0.000000
     2  H    1.084356   0.000000
     3  H    1.083101   1.860156   0.000000
     4  C    1.491692   2.249127   2.245686   0.000000
     5  H    2.145892   3.093521   2.506845   1.092130   0.000000
     6  H    2.149697   2.507134   3.098873   1.097837   1.774961
     7  O    2.430813   3.065453   2.996249   1.437251   2.000046
     8  H    2.596413   2.903012   3.283426   1.965838   2.810397
                    6          7          8
     6  H    0.000000
     7  O    2.082110   0.000000
     8  H    2.359802   0.964313   0.000000
 Stoichiometry    C2H5O(2)
 Framework group  C1[X(C2H5O)]
 Deg. of freedom    18
 Full point group                 C1      NOp   1
 Largest Abelian subgroup         C1      NOp   1
 Largest concise Abelian subgroup C1      NOp   1
                         Standard orientation:                         
 ---------------------------------------------------------------------
 Center     Atomic      Atomic             Coordinates (Angstroms)
 Number     Number       Type             X           Y           Z
 ---------------------------------------------------------------------
      1          6           0       -1.252290   -0.218252   -0.025976
      2          1           0       -1.708071   -0.640487    0.862737
      3          1           0       -1.684620   -0.461960   -0.988684
      4          6           0        0.022342    0.551747    0.060976
      5          1           0        0.105087    1.277237   -0.751160
      6          1           0        0.098488    1.091325    1.014025
      7          8           0        1.175928   -0.287394   -0.114441
      8          1           0        1.161381   -0.967930    0.568611
 ---------------------------------------------------------------------
 Rotational constants (GHZ):     36.5220398      9.7300905      8.7062964
 Standard basis: 6-31+G(d,p) (6D, 7F)
 There are    82 symmetry adapted basis functions of A   symmetry.
 Integral buffers will be    262144 words long.
 Raffenetti 2 integral format.
 Two-electron integral symmetry is turned on.
    82 basis functions,   131 primitive gaussians,    82 cartesian basis functions
    13 alpha electrons       12 beta electrons
       nuclear repulsion energy        74.6087887625 Hartrees.
 NAtoms=    8 NActive=    8 NUniq=    8 SFac= 7.50D-01 NAtFMM=   80 NAOKFM=F Big=F
 One-electron integrals computed using PRISM.
 NBasis=    82 RedAO= T  NBF=    82
 NBsUse=    82 1.00D-06 NBFU=    82
 Initial guess read from the read-write file.
 B after Tr=     0.000000    0.000000    0.000000
         Rot=    1.000000    0.000000    0.000000    0.000000 Ang=   0.00 deg.
 Initial guess orbital symmetries:
 Alpha Orbitals:
       Occupied  (A) (A) (A) (A) (A) (A) (A) (A) (A) (A) (A) (A)
                 (A)
       Virtual   (A) (A) (A) (A) (A) (A) (A) (A) (A) (A) (A) (A)
                 (A) (A) (A) (A) (A) (A) (A) (A) (A) (A) (A) (A)
                 (A) (A) (A) (A) (A) (A) (A) (A) (A) (A) (A) (A)
                 (A) (A) (A) (A) (A) (A) (A) (A) (A) (A) (A) (A)
                 (A) (A) (A) (A) (A) (A) (A) (A) (A) (A) (A) (A)
                 (A) (A) (A) (A) (A) (A) (A) (A) (A)
 Beta  Orbitals:
       Occupied  (A) (A) (A) (A) (A) (A) (A) (A) (A) (A) (A) (A)
       Virtual   (A) (A) (A) (A) (A) (A) (A) (A) (A) (A) (A) (A)
                 (A) (A) (A) (A) (A) (A) (A) (A) (A) (A) (A) (A)
                 (A) (A) (A) (A) (A) (A) (A) (A) (A) (A) (A) (A)
                 (A) (A) (A) (A) (A) (A) (A) (A) (A) (A) (A) (A)
                 (A) (A) (A) (A) (A) (A) (A) (A) (A) (A) (A) (A)
                 (A) (A) (A) (A) (A) (A) (A) (A) (A) (A)
 Initial guess <Sx>= 0.0000 <Sy>= 0.0000 <Sz>= 0.5000 <S**2>= 0.7556 S= 0.5028
 Harris functional with IExCor= 1009 diagonalized for initial guess.
 ExpMin= 4.38D-02 ExpMax= 5.48D+03 ExpMxC= 8.25D+02 IAcc=2 IRadAn=         0 AccDes= 0.00D+00
 HarFok:  IExCor= 1009 AccDes= 0.00D+00 IRadAn=         0 IDoV= 1
 ScaDFX=  1.000000  1.000000  1.000000  1.000000
 FoFCou: FMM=F IPFlag=           0 FMFlag=      100000 FMFlg1=           0
         NFxFlg=           0 DoJE=T BraDBF=F KetDBF=T FulRan=T
         Omega=  0.000000  0.000000  1.000000  0.000000  0.000000 ICntrl=     500 IOpCl=  0
         NMat0=    1 NMatS0=    1 NMatT0=    0 NMatD0=    1 NMtDS0=    0 NMtDT0=    0
         I1Cent=           4 NGrid=           0.
 Petite list used in FoFCou.
 Requested convergence on RMS density matrix=1.00D-08 within 128 cycles.
 Requested convergence on MAX density matrix=1.00D-06.
 Requested convergence on             energy=1.00D-06.
 No special actions if energy rises.
 Keep R1 and R2 ints in memory in canonical form, NReq=12588148.
 SCF Done:  E(UM062X) =  -154.300254732     A.U. after   12 cycles
             Convg  =    0.5941D-08             -V/T =  2.0086
 <Sx>= 0.0000 <Sy>= 0.0000 <Sz>= 0.5000 <S**2>= 0.7556 S= 0.5028
 <L.S>= 0.000000000000E+00
 Annihilation of the first spin contaminant:
 S**2 before annihilation     0.7556,   after     0.7500
 Calling FoFJK, ICntrl=      2127 FMM=F ISym2X=0 I1Cent= 0 IOpClX= 1 NMat=1 NMatS=1 NMatT=0.
 ***** Axes restored to original set *****
 -------------------------------------------------------------------
 Center     Atomic                   Forces (Hartrees/Bohr)
 Number     Number              X              Y              Z
 -------------------------------------------------------------------
      1        6           0.001314183    0.001177558    0.002153084
      2        1          -0.000173467    0.000153898   -0.000061569
      3        1           0.000350595    0.000155094   -0.001006610
      4        6          -0.000496162    0.001594374   -0.004099526
      5        1          -0.000349563   -0.000976438    0.001720003
      6        1          -0.000604332   -0.000681530    0.000138335
      7        8           0.000378983   -0.001587359    0.001468253
      8        1          -0.000420238    0.000164404   -0.000311971
 -------------------------------------------------------------------
 Cartesian Forces:  Max     0.004099526 RMS     0.001267618

 GradGradGradGradGradGradGradGradGradGradGradGradGradGradGradGradGradGrad
 Berny optimization.
 Using GEDIIS/GDIIS optimizer.
 Internal  Forces:  Max     0.002114487 RMS     0.000791948
 Search for a local minimum.
 Step number   3 out of a maximum of   36
 All quantities printed in internal units (Hartrees-Bohrs-Radians)
 Mixed Optimization -- En-DIIS/RFO-DIIS
 Update second derivatives using D2CorX and points    1    2    3
 DE= -1.15D-03 DEPred=-1.07D-03 R= 1.07D+00
 SS=  1.41D+00  RLast= 2.67D-01 DXNew= 8.4853D-01 8.0105D-01
 Trust test= 1.07D+00 RLast= 2.67D-01 DXMaxT set to 8.01D-01
 Use linear search instead of GDIIS.
     Eigenvalues ---    0.00900   0.01088   0.01285   0.06323   0.07716
     Eigenvalues ---    0.12943   0.14142   0.15922   0.16049   0.18086
     Eigenvalues ---    0.22155   0.35304   0.36899   0.37230   0.37231
     Eigenvalues ---    0.37359   0.46402   0.558841000.000001000.00000
     Eigenvalues --- 1000.000001000.000001000.000001000.000001000.00000
     Eigenvalues --- 1000.00000
 RFO step:  Lambda=-2.25450457D-04 EMin= 9.00280297D-03
 Quartic linear search produced a step of  0.04671.
 Iteration  1 RMS(Cart)=  0.02088907 RMS(Int)=  0.00066949
 Iteration  2 RMS(Cart)=  0.00048744 RMS(Int)=  0.00034896
 Iteration  3 RMS(Cart)=  0.00000014 RMS(Int)=  0.00034896
 Variable       Old X    -DE/DX   Delta X   Delta X   Delta X     New X
                                 (Linear)    (Quad)   (Total)
    R1        2.04914  -0.00022   0.00034  -0.00025   0.00009   2.04922
    R2        2.04677  -0.00019   0.00034  -0.00017   0.00017   2.04694
    R3        2.81889  -0.00211  -0.00010  -0.00628  -0.00638   2.81251
    R4        2.06383   0.00023   0.00050   0.00121   0.00171   2.06554
    R5        2.07461  -0.00035   0.00068  -0.00025   0.00043   2.07504
    R6        2.71601  -0.00159  -0.00134  -0.00510  -0.00644   2.70957
    R7        1.82229  -0.00017  -0.00013  -0.00040  -0.00053   1.82176
    A1        2.06358   0.00004  -0.00059  -0.00240  -0.00402   2.05956
    A2        2.10876   0.00021   0.00020  -0.00043  -0.00125   2.10751
    A3        2.10486  -0.00032   0.00019  -0.00387  -0.00469   2.10017
    A4        1.94367  -0.00083   0.00102  -0.00467  -0.00369   1.93998
    A5        1.94290  -0.00095   0.00078  -0.01032  -0.00958   1.93332
    A6        1.95773  -0.00020   0.00073   0.00124   0.00197   1.95969
    A7        1.88999  -0.00002  -0.00005  -0.00351  -0.00365   1.88634
    A8        1.80933   0.00155  -0.00296   0.01432   0.01136   1.82069
    A9        1.91478   0.00064   0.00028   0.00451   0.00478   1.91956
   A10        1.88965   0.00057   0.00222   0.00683   0.00905   1.89870
    D1       -2.67238   0.00082  -0.00426   0.00590   0.00166  -2.67071
    D2       -0.56129  -0.00044  -0.00313  -0.00892  -0.01197  -0.57327
    D3        1.59180  -0.00046  -0.00169  -0.00980  -0.01142   1.58038
    D4        0.58863   0.00146   0.00438   0.07271   0.07700   0.66563
    D5        2.69971   0.00020   0.00551   0.05788   0.06336   2.76307
    D6       -1.43038   0.00018   0.00695   0.05701   0.06391  -1.36647
    D7       -1.02808   0.00049   0.00080   0.02408   0.02489  -1.00319
    D8       -3.12700   0.00063   0.00100   0.02024   0.02125  -3.10576
    D9        1.14073  -0.00042   0.00249   0.01495   0.01742   1.15815
         Item               Value     Threshold  Converged?
 Maximum Force            0.002114     0.000450     NO 
 RMS     Force            0.000792     0.000300     NO 
 Maximum Displacement     0.073776     0.001800     NO 
 RMS     Displacement     0.021003     0.001200     NO 
 Predicted change in Energy=-1.154529D-04
 GradGradGradGradGradGradGradGradGradGradGradGradGradGradGradGradGradGrad

                          Input orientation:                          
 ---------------------------------------------------------------------
 Center     Atomic      Atomic             Coordinates (Angstroms)
 Number     Number       Type             X           Y           Z
 ---------------------------------------------------------------------
      1          6           0       -0.497687    0.715256    0.697570
      2          1           0        0.018942   -0.237716    0.668066
      3          1           0       -1.558929    0.725380    0.480848
      4          6           0        0.263494    1.991116    0.786313
      5          1           0       -0.330472    2.772079    1.268003
      6          1           0        1.184456    1.855421    1.368689
      7          8           0        0.575517    2.529027   -0.505659
      8          1           0        1.076640    1.872315   -1.002619
 ---------------------------------------------------------------------
                    Distance matrix (angstroms):
                    1          2          3          4          5
     1  C    0.000000
     2  H    1.084403   0.000000
     3  H    1.083193   1.858032   0.000000
     4  C    1.488318   2.245324   2.239782   0.000000
     5  H    2.141000   3.088832   2.513503   1.093035   0.000000
     6  H    2.140089   2.496100   3.097001   1.098064   1.773529
     7  O    2.426786   3.056513   2.963478   1.433840   2.006432
     8  H    2.589968   2.891737   3.234557   1.968654   2.818735
                    6          7          8
     6  H    0.000000
     7  O    2.082721   0.000000
     8  H    2.373817   0.964035   0.000000
 Stoichiometry    C2H5O(2)
 Framework group  C1[X(C2H5O)]
 Deg. of freedom    18
 Full point group                 C1      NOp   1
 Largest Abelian subgroup         C1      NOp   1
 Largest concise Abelian subgroup C1      NOp   1
                         Standard orientation:                         
 ---------------------------------------------------------------------
 Center     Atomic      Atomic             Coordinates (Angstroms)
 Number     Number       Type             X           Y           Z
 ---------------------------------------------------------------------
      1          6           0       -1.251272   -0.212544   -0.025187
      2          1           0       -1.703434   -0.630308    0.867535
      3          1           0       -1.648019   -0.516502   -0.986180
      4          6           0        0.022552    0.553098    0.053901
      5          1           0        0.099383    1.276279   -0.762083
      6          1           0        0.088898    1.101675    1.002799
      7          8           0        1.172958   -0.287354   -0.107670
      8          1           0        1.151836   -0.975642    0.566998
 ---------------------------------------------------------------------
 Rotational constants (GHZ):     36.4528720      9.7932039      8.7436865
 Standard basis: 6-31+G(d,p) (6D, 7F)
 There are    82 symmetry adapted basis functions of A   symmetry.
 Integral buffers will be    262144 words long.
 Raffenetti 2 integral format.
 Two-electron integral symmetry is turned on.
    82 basis functions,   131 primitive gaussians,    82 cartesian basis functions
    13 alpha electrons       12 beta electrons
       nuclear repulsion energy        74.7267712696 Hartrees.
 NAtoms=    8 NActive=    8 NUniq=    8 SFac= 7.50D-01 NAtFMM=   80 NAOKFM=F Big=F
 One-electron integrals computed using PRISM.
 NBasis=    82 RedAO= T  NBF=    82
 NBsUse=    82 1.00D-06 NBFU=    82
 Initial guess read from the read-write file.
 B after Tr=     0.000000    0.000000    0.000000
         Rot=    1.000000    0.000000    0.000000    0.000000 Ang=   0.00 deg.
 Initial guess orbital symmetries:
 Alpha Orbitals:
       Occupied  (A) (A) (A) (A) (A) (A) (A) (A) (A) (A) (A) (A)
                 (A)
       Virtual   (A) (A) (A) (A) (A) (A) (A) (A) (A) (A) (A) (A)
                 (A) (A) (A) (A) (A) (A) (A) (A) (A) (A) (A) (A)
                 (A) (A) (A) (A) (A) (A) (A) (A) (A) (A) (A) (A)
                 (A) (A) (A) (A) (A) (A) (A) (A) (A) (A) (A) (A)
                 (A) (A) (A) (A) (A) (A) (A) (A) (A) (A) (A) (A)
                 (A) (A) (A) (A) (A) (A) (A) (A) (A)
 Beta  Orbitals:
       Occupied  (A) (A) (A) (A) (A) (A) (A) (A) (A) (A) (A) (A)
       Virtual   (A) (A) (A) (A) (A) (A) (A) (A) (A) (A) (A) (A)
                 (A) (A) (A) (A) (A) (A) (A) (A) (A) (A) (A) (A)
                 (A) (A) (A) (A) (A) (A) (A) (A) (A) (A) (A) (A)
                 (A) (A) (A) (A) (A) (A) (A) (A) (A) (A) (A) (A)
                 (A) (A) (A) (A) (A) (A) (A) (A) (A) (A) (A) (A)
                 (A) (A) (A) (A) (A) (A) (A) (A) (A) (A)
 Initial guess <Sx>= 0.0000 <Sy>= 0.0000 <Sz>= 0.5000 <S**2>= 0.7555 S= 0.5028
 Harris functional with IExCor= 1009 diagonalized for initial guess.
 ExpMin= 4.38D-02 ExpMax= 5.48D+03 ExpMxC= 8.25D+02 IAcc=2 IRadAn=         0 AccDes= 0.00D+00
 HarFok:  IExCor= 1009 AccDes= 0.00D+00 IRadAn=         0 IDoV= 1
 ScaDFX=  1.000000  1.000000  1.000000  1.000000
 FoFCou: FMM=F IPFlag=           0 FMFlag=      100000 FMFlg1=           0
         NFxFlg=           0 DoJE=T BraDBF=F KetDBF=T FulRan=T
         Omega=  0.000000  0.000000  1.000000  0.000000  0.000000 ICntrl=     500 IOpCl=  0
         NMat0=    1 NMatS0=    1 NMatT0=    0 NMatD0=    1 NMtDS0=    0 NMtDT0=    0
         I1Cent=           4 NGrid=           0.
 Petite list used in FoFCou.
 Requested convergence on RMS density matrix=1.00D-08 within 128 cycles.
 Requested convergence on MAX density matrix=1.00D-06.
 Requested convergence on             energy=1.00D-06.
 No special actions if energy rises.
 Keep R1 and R2 ints in memory in canonical form, NReq=12588148.
 SCF Done:  E(UM062X) =  -154.300410994     A.U. after   12 cycles
             Convg  =    0.2194D-08             -V/T =  2.0086
 <Sx>= 0.0000 <Sy>= 0.0000 <Sz>= 0.5000 <S**2>= 0.7555 S= 0.5028
 <L.S>= 0.000000000000E+00
 Annihilation of the first spin contaminant:
 S**2 before annihilation     0.7555,   after     0.7500
 Calling FoFJK, ICntrl=      2127 FMM=F ISym2X=0 I1Cent= 0 IOpClX= 1 NMat=1 NMatS=1 NMatT=0.
 ***** Axes restored to original set *****
 -------------------------------------------------------------------
 Center     Atomic                   Forces (Hartrees/Bohr)
 Number     Number              X              Y              Z
 -------------------------------------------------------------------
      1        6          -0.000259680   -0.000577487    0.000289351
      2        1          -0.000105419    0.000034679    0.000389879
      3        1           0.000161791    0.000055355   -0.000585341
      4        6           0.000838718    0.001000517   -0.001106856
      5        1           0.000096954   -0.000555937    0.000407106
      6        1          -0.000229226    0.000018670   -0.000174987
      7        8          -0.000260252    0.000435373    0.000436840
      8        1          -0.000242885   -0.000411169    0.000344007
 -------------------------------------------------------------------
 Cartesian Forces:  Max     0.001106856 RMS     0.000470490

 GradGradGradGradGradGradGradGradGradGradGradGradGradGradGradGradGradGrad
 Berny optimization.
 Using GEDIIS/GDIIS optimizer.
 Internal  Forces:  Max     0.000985677 RMS     0.000340161
 Search for a local minimum.
 Step number   4 out of a maximum of   36
 All quantities printed in internal units (Hartrees-Bohrs-Radians)
 Mixed Optimization -- En-DIIS/RFO-DIIS
 Swaping is turned off.
 Update second derivatives using D2CorX and points    1    2    3    4
 DE= -1.56D-04 DEPred=-1.15D-04 R= 1.35D+00
 SS=  1.41D+00  RLast= 1.27D-01 DXNew= 1.3472D+00 3.8137D-01
 Trust test= 1.35D+00 RLast= 1.27D-01 DXMaxT set to 8.01D-01
     Eigenvalues ---    0.00473   0.01263   0.01298   0.06373   0.07647
     Eigenvalues ---    0.12669   0.14234   0.15915   0.16018   0.20630
     Eigenvalues ---    0.22182   0.36816   0.37013   0.37231   0.37233
     Eigenvalues ---    0.38213   0.45462   0.558361000.000001000.00000
     Eigenvalues --- 1000.000001000.000001000.000001000.000001000.00000
     Eigenvalues --- 1000.00000
 En-DIIS/RFO-DIIS IScMMF=        0 using points:     4    3
 RFO step:  Lambda=-1.28373489D-05.
 DIIS coeffs:      1.51100     -0.51100
 Iteration  1 RMS(Cart)=  0.02763431 RMS(Int)=  0.00081894
 Iteration  2 RMS(Cart)=  0.00068349 RMS(Int)=  0.00027325
 Iteration  3 RMS(Cart)=  0.00000044 RMS(Int)=  0.00027325
 Variable       Old X    -DE/DX   Delta X   Delta X   Delta X     New X
                                  (DIIS)     (GDIIS)  (Total)
    R1        2.04922  -0.00010   0.00005   0.00014   0.00018   2.04941
    R2        2.04694  -0.00004   0.00009   0.00035   0.00044   2.04738
    R3        2.81251   0.00051  -0.00326   0.00343   0.00017   2.81268
    R4        2.06554  -0.00028   0.00087  -0.00053   0.00034   2.06588
    R5        2.07504  -0.00028   0.00022  -0.00011   0.00011   2.07515
    R6        2.70957  -0.00080  -0.00329  -0.00264  -0.00593   2.70364
    R7        1.82176  -0.00001  -0.00027   0.00005  -0.00022   1.82155
    A1        2.05956   0.00002  -0.00206  -0.00120  -0.00407   2.05549
    A2        2.10751   0.00015  -0.00064   0.00076  -0.00066   2.10685
    A3        2.10017  -0.00019  -0.00240  -0.00187  -0.00506   2.09511
    A4        1.93998  -0.00027  -0.00189  -0.00189  -0.00381   1.93617
    A5        1.93332  -0.00004  -0.00489   0.00156  -0.00335   1.92997
    A6        1.95969  -0.00011   0.00101   0.00068   0.00169   1.96138
    A7        1.88634  -0.00006  -0.00187  -0.00187  -0.00380   1.88254
    A8        1.82069   0.00033   0.00580  -0.00090   0.00491   1.82559
    A9        1.91956   0.00017   0.00244   0.00218   0.00462   1.92418
   A10        1.89870  -0.00099   0.00462  -0.00434   0.00028   1.89898
    D1       -2.67071   0.00039   0.00085   0.03044   0.03132  -2.63939
    D2       -0.57327   0.00010  -0.00612   0.02787   0.02183  -0.55143
    D3        1.58038   0.00021  -0.00584   0.03236   0.02658   1.60696
    D4        0.66563   0.00050   0.03935   0.04449   0.08376   0.74938
    D5        2.76307   0.00021   0.03238   0.04192   0.07426   2.83734
    D6       -1.36647   0.00032   0.03266   0.04641   0.07901  -1.28745
    D7       -1.00319   0.00009   0.01272   0.01328   0.02600  -0.97719
    D8       -3.10576   0.00026   0.01086   0.01575   0.02661  -3.07914
    D9        1.15815   0.00009   0.00890   0.01739   0.02628   1.18443
         Item               Value     Threshold  Converged?
 Maximum Force            0.000986     0.000450     NO 
 RMS     Force            0.000340     0.000300     NO 
 Maximum Displacement     0.099728     0.001800     NO 
 RMS     Displacement     0.027705     0.001200     NO 
 Predicted change in Energy=-6.160524D-05
 GradGradGradGradGradGradGradGradGradGradGradGradGradGradGradGradGradGrad

                          Input orientation:                          
 ---------------------------------------------------------------------
 Center     Atomic      Atomic             Coordinates (Angstroms)
 Number     Number       Type             X           Y           Z
 ---------------------------------------------------------------------
      1          6           0       -0.495937    0.717645    0.707416
      2          1           0        0.018691   -0.236922    0.697445
      3          1           0       -1.542663    0.729768    0.428075
      4          6           0        0.268061    1.992342    0.789908
      5          1           0       -0.321723    2.770065    1.282274
      6          1           0        1.190907    1.852490    1.368410
      7          8           0        0.569585    2.531177   -0.500694
      8          1           0        1.045038    1.866314   -1.011620
 ---------------------------------------------------------------------
                    Distance matrix (angstroms):
                    1          2          3          4          5
     1  C    0.000000
     2  H    1.084500   0.000000
     3  H    1.083426   1.856037   0.000000
     4  C    1.488406   2.245073   2.236903   0.000000
     5  H    2.138514   3.082187   2.526492   1.093217   0.000000
     6  H    2.137810   2.487957   3.101151   1.098120   1.771275
     7  O    2.425647   3.066169   2.927333   1.430703   2.007604
     8  H    2.578590   2.897912   3.171853   1.965980   2.818998
                    6          7          8
     6  H    0.000000
     7  O    2.083316   0.000000
     8  H    2.384536   0.963921   0.000000
 Stoichiometry    C2H5O(2)
 Framework group  C1[X(C2H5O)]
 Deg. of freedom    18
 Full point group                 C1      NOp   1
 Largest Abelian subgroup         C1      NOp   1
 Largest concise Abelian subgroup C1      NOp   1
                         Standard orientation:                         
 ---------------------------------------------------------------------
 Center     Atomic      Atomic             Coordinates (Angstroms)
 Number     Number       Type             X           Y           Z
 ---------------------------------------------------------------------
      1          6           0       -1.251895   -0.207990   -0.024913
      2          1           0       -1.720971   -0.582786    0.878212
      3          1           0       -1.604786   -0.592979   -0.974157
      4          6           0        0.024514    0.554701    0.041694
      5          1           0        0.101002    1.261499   -0.788793
      6          1           0        0.084074    1.126581    0.977255
      7          8           0        1.171328   -0.289482   -0.096455
      8          1           0        1.134347   -0.976722    0.578436
 ---------------------------------------------------------------------
 Rotational constants (GHZ):     36.4122008      9.8319082      8.7601962
 Standard basis: 6-31+G(d,p) (6D, 7F)
 There are    82 symmetry adapted basis functions of A   symmetry.
 Integral buffers will be    262144 words long.
 Raffenetti 2 integral format.
 Two-electron integral symmetry is turned on.
    82 basis functions,   131 primitive gaussians,    82 cartesian basis functions
    13 alpha electrons       12 beta electrons
       nuclear repulsion energy        74.7953855211 Hartrees.
 NAtoms=    8 NActive=    8 NUniq=    8 SFac= 7.50D-01 NAtFMM=   80 NAOKFM=F Big=F
 One-electron integrals computed using PRISM.
 NBasis=    82 RedAO= T  NBF=    82
 NBsUse=    82 1.00D-06 NBFU=    82
 Initial guess read from the read-write file.
 B after Tr=     0.000000    0.000000    0.000000
         Rot=    1.000000    0.000000    0.000000    0.000000 Ang=   0.00 deg.
 Initial guess orbital symmetries:
 Alpha Orbitals:
       Occupied  (A) (A) (A) (A) (A) (A) (A) (A) (A) (A) (A) (A)
                 (A)
       Virtual   (A) (A) (A) (A) (A) (A) (A) (A) (A) (A) (A) (A)
                 (A) (A) (A) (A) (A) (A) (A) (A) (A) (A) (A) (A)
                 (A) (A) (A) (A) (A) (A) (A) (A) (A) (A) (A) (A)
                 (A) (A) (A) (A) (A) (A) (A) (A) (A) (A) (A) (A)
                 (A) (A) (A) (A) (A) (A) (A) (A) (A) (A) (A) (A)
                 (A) (A) (A) (A) (A) (A) (A) (A) (A)
 Beta  Orbitals:
       Occupied  (A) (A) (A) (A) (A) (A) (A) (A) (A) (A) (A) (A)
       Virtual   (A) (A) (A) (A) (A) (A) (A) (A) (A) (A) (A) (A)
                 (A) (A) (A) (A) (A) (A) (A) (A) (A) (A) (A) (A)
                 (A) (A) (A) (A) (A) (A) (A) (A) (A) (A) (A) (A)
                 (A) (A) (A) (A) (A) (A) (A) (A) (A) (A) (A) (A)
                 (A) (A) (A) (A) (A) (A) (A) (A) (A) (A) (A) (A)
                 (A) (A) (A) (A) (A) (A) (A) (A) (A) (A)
 Initial guess <Sx>= 0.0000 <Sy>= 0.0000 <Sz>= 0.5000 <S**2>= 0.7555 S= 0.5028
 Harris functional with IExCor= 1009 diagonalized for initial guess.
 ExpMin= 4.38D-02 ExpMax= 5.48D+03 ExpMxC= 8.25D+02 IAcc=2 IRadAn=         0 AccDes= 0.00D+00
 HarFok:  IExCor= 1009 AccDes= 0.00D+00 IRadAn=         0 IDoV= 1
 ScaDFX=  1.000000  1.000000  1.000000  1.000000
 FoFCou: FMM=F IPFlag=           0 FMFlag=      100000 FMFlg1=           0
         NFxFlg=           0 DoJE=T BraDBF=F KetDBF=T FulRan=T
         Omega=  0.000000  0.000000  1.000000  0.000000  0.000000 ICntrl=     500 IOpCl=  0
         NMat0=    1 NMatS0=    1 NMatT0=    0 NMatD0=    1 NMtDS0=    0 NMtDT0=    0
         I1Cent=           4 NGrid=           0.
 Petite list used in FoFCou.
 Requested convergence on RMS density matrix=1.00D-08 within 128 cycles.
 Requested convergence on MAX density matrix=1.00D-06.
 Requested convergence on             energy=1.00D-06.
 No special actions if energy rises.
 Keep R1 and R2 ints in memory in canonical form, NReq=12588148.
 SCF Done:  E(UM062X) =  -154.300497126     A.U. after   11 cycles
             Convg  =    0.6363D-08             -V/T =  2.0085
 <Sx>= 0.0000 <Sy>= 0.0000 <Sz>= 0.5000 <S**2>= 0.7555 S= 0.5027
 <L.S>= 0.000000000000E+00
 Annihilation of the first spin contaminant:
 S**2 before annihilation     0.7555,   after     0.7500
 Calling FoFJK, ICntrl=      2127 FMM=F ISym2X=0 I1Cent= 0 IOpClX= 1 NMat=1 NMatS=1 NMatT=0.
 ***** Axes restored to original set *****
 -------------------------------------------------------------------
 Center     Atomic                   Forces (Hartrees/Bohr)
 Number     Number              X              Y              Z
 -------------------------------------------------------------------
      1        6          -0.000203152   -0.000955734   -0.001217490
      2        1          -0.000092370   -0.000024877    0.000750037
      3        1           0.000000451    0.000204563   -0.000039481
      4        6           0.000582494    0.000216900    0.001208067
      5        1           0.000065125   -0.000110479   -0.000008082
      6        1          -0.000036595    0.000135728   -0.000467942
      7        8          -0.000312800    0.000998521   -0.000514171
      8        1          -0.000003152   -0.000464623    0.000289061
 -------------------------------------------------------------------
 Cartesian Forces:  Max     0.001217490 RMS     0.000532753

 GradGradGradGradGradGradGradGradGradGradGradGradGradGradGradGradGradGrad
 Berny optimization.
 Using GEDIIS/GDIIS optimizer.
 Internal  Forces:  Max     0.000962043 RMS     0.000332782
 Search for a local minimum.
 Step number   5 out of a maximum of   36
 All quantities printed in internal units (Hartrees-Bohrs-Radians)
 Mixed Optimization -- En-DIIS/RFO-DIIS
 Swaping is turned off.
 Update second derivatives using D2CorX and points    2    3    4    5
 DE= -8.61D-05 DEPred=-6.16D-05 R= 1.40D+00
 SS=  1.41D+00  RLast= 1.52D-01 DXNew= 1.3472D+00 4.5674D-01
 Trust test= 1.40D+00 RLast= 1.52D-01 DXMaxT set to 8.01D-01
     Eigenvalues ---    0.00280   0.01277   0.01781   0.06399   0.07911
     Eigenvalues ---    0.12796   0.14081   0.15881   0.16064   0.21367
     Eigenvalues ---    0.22244   0.36624   0.37104   0.37231   0.37247
     Eigenvalues ---    0.39241   0.46039   0.559531000.000001000.00000
     Eigenvalues --- 1000.000001000.000001000.000001000.000001000.00000
     Eigenvalues --- 1000.00000
 En-DIIS/RFO-DIIS IScMMF=        0 using points:     5    4    3
 RFO step:  Lambda=-9.69115925D-06.
 DIIS coeffs:      1.70306     -1.01783      0.31477
 Iteration  1 RMS(Cart)=  0.02734143 RMS(Int)=  0.00059572
 Iteration  2 RMS(Cart)=  0.00060535 RMS(Int)=  0.00011003
 Iteration  3 RMS(Cart)=  0.00000026 RMS(Int)=  0.00011003
 Variable       Old X    -DE/DX   Delta X   Delta X   Delta X     New X
                                  (DIIS)     (GDIIS)  (Total)
    R1        2.04941  -0.00004   0.00010  -0.00004   0.00006   2.04947
    R2        2.04738   0.00002   0.00026   0.00012   0.00038   2.04776
    R3        2.81268   0.00084   0.00212  -0.00085   0.00127   2.81395
    R4        2.06588  -0.00012  -0.00030   0.00080   0.00051   2.06639
    R5        2.07515  -0.00029  -0.00006  -0.00066  -0.00072   2.07442
    R6        2.70364   0.00034  -0.00214  -0.00046  -0.00260   2.70103
    R7        1.82155   0.00018   0.00001   0.00028   0.00030   1.82184
    A1        2.05549   0.00014  -0.00160   0.00226   0.00099   2.05648
    A2        2.10685   0.00027  -0.00007   0.00407   0.00432   2.11116
    A3        2.09511  -0.00032  -0.00208  -0.00196  -0.00372   2.09139
    A4        1.93617   0.00004  -0.00152  -0.00084  -0.00234   1.93383
    A5        1.92997   0.00028   0.00066  -0.00171  -0.00105   1.92892
    A6        1.96138  -0.00025   0.00057  -0.00129  -0.00072   1.96066
    A7        1.88254   0.00003  -0.00152   0.00046  -0.00104   1.88150
    A8        1.82559  -0.00004  -0.00013   0.00332   0.00319   1.82878
    A9        1.92418  -0.00006   0.00175   0.00039   0.00213   1.92631
   A10        1.89898  -0.00096  -0.00265  -0.00053  -0.00318   1.89580
    D1       -2.63939   0.00030   0.02150   0.04286   0.06435  -2.57504
    D2       -0.55143   0.00054   0.01912   0.04177   0.06085  -0.49058
    D3        1.60696   0.00048   0.02228   0.04007   0.06233   1.66929
    D4        0.74938  -0.00013   0.03465   0.02191   0.05659   0.80597
    D5        2.83734   0.00012   0.03227   0.02082   0.05310   2.89043
    D6       -1.28745   0.00006   0.03543   0.01912   0.05457  -1.23288
    D7       -0.97719  -0.00004   0.01045   0.00978   0.02022  -0.95697
    D8       -3.07914   0.00007   0.01202   0.00941   0.02143  -3.05771
    D9        1.18443   0.00009   0.01299   0.00693   0.01993   1.20435
         Item               Value     Threshold  Converged?
 Maximum Force            0.000962     0.000450     NO 
 RMS     Force            0.000333     0.000300     NO 
 Maximum Displacement     0.085129     0.001800     NO 
 RMS     Displacement     0.027354     0.001200     NO 
 Predicted change in Energy=-3.533177D-05
 GradGradGradGradGradGradGradGradGradGradGradGradGradGradGradGradGradGrad

                          Input orientation:                          
 ---------------------------------------------------------------------
 Center     Atomic      Atomic             Coordinates (Angstroms)
 Number     Number       Type             X           Y           Z
 ---------------------------------------------------------------------
      1          6           0       -0.493330    0.718375    0.704318
      2          1           0        0.012369   -0.240334    0.741092
      3          1           0       -1.528135    0.732450    0.383026
      4          6           0        0.272702    1.992362    0.790971
      5          1           0       -0.314190    2.764808    1.295543
      6          1           0        1.198175    1.846714    1.363085
      7          8           0        0.564782    2.539283   -0.496871
      8          1           0        1.019586    1.869219   -1.019951
 ---------------------------------------------------------------------
                    Distance matrix (angstroms):
                    1          2          3          4          5
     1  C    0.000000
     2  H    1.084530   0.000000
     3  H    1.083627   1.856790   0.000000
     4  C    1.489079   2.248375   2.235355   0.000000
     5  H    2.137645   3.073261   2.537090   1.093485   0.000000
     6  H    2.137361   2.479673   3.104008   1.097737   1.770510
     7  O    2.424493   3.092569   2.901580   1.429326   2.009030
     8  H    2.566410   2.926767   3.122734   1.962763   2.818253
                    6          7          8
     6  H    0.000000
     7  O    2.083332   0.000000
     8  H    2.389824   0.964077   0.000000
 Stoichiometry    C2H5O(2)
 Framework group  C1[X(C2H5O)]
 Deg. of freedom    18
 Full point group                 C1      NOp   1
 Largest Abelian subgroup         C1      NOp   1
 Largest concise Abelian subgroup C1      NOp   1
                         Standard orientation:                         
 ---------------------------------------------------------------------
 Center     Atomic      Atomic             Coordinates (Angstroms)
 Number     Number       Type             X           Y           Z
 ---------------------------------------------------------------------
      1          6           0       -1.250592   -0.209321   -0.024749
      2          1           0       -1.756150   -0.516110    0.884370
      3          1           0       -1.571131   -0.657667   -0.957748
      4          6           0        0.025780    0.555731    0.029343
      5          1           0        0.101837    1.244456   -0.816577
      6          1           0        0.079882    1.149212    0.951233
      7          8           0        1.171775   -0.290734   -0.085396
      8          1           0        1.120232   -0.972473    0.594325
 ---------------------------------------------------------------------
 Rotational constants (GHZ):     36.4310900      9.8479244      8.7617196
 Standard basis: 6-31+G(d,p) (6D, 7F)
 There are    82 symmetry adapted basis functions of A   symmetry.
 Integral buffers will be    262144 words long.
 Raffenetti 2 integral format.
 Two-electron integral symmetry is turned on.
    82 basis functions,   131 primitive gaussians,    82 cartesian basis functions
    13 alpha electrons       12 beta electrons
       nuclear repulsion energy        74.8190785250 Hartrees.
 NAtoms=    8 NActive=    8 NUniq=    8 SFac= 7.50D-01 NAtFMM=   80 NAOKFM=F Big=F
 One-electron integrals computed using PRISM.
 NBasis=    82 RedAO= T  NBF=    82
 NBsUse=    82 1.00D-06 NBFU=    82
 Initial guess read from the read-write file.
 B after Tr=     0.000000    0.000000    0.000000
         Rot=    1.000000    0.000000    0.000000    0.000000 Ang=   0.00 deg.
 Initial guess orbital symmetries:
 Alpha Orbitals:
       Occupied  (A) (A) (A) (A) (A) (A) (A) (A) (A) (A) (A) (A)
                 (A)
       Virtual   (A) (A) (A) (A) (A) (A) (A) (A) (A) (A) (A) (A)
                 (A) (A) (A) (A) (A) (A) (A) (A) (A) (A) (A) (A)
                 (A) (A) (A) (A) (A) (A) (A) (A) (A) (A) (A) (A)
                 (A) (A) (A) (A) (A) (A) (A) (A) (A) (A) (A) (A)
                 (A) (A) (A) (A) (A) (A) (A) (A) (A) (A) (A) (A)
                 (A) (A) (A) (A) (A) (A) (A) (A) (A)
 Beta  Orbitals:
       Occupied  (A) (A) (A) (A) (A) (A) (A) (A) (A) (A) (A) (A)
       Virtual   (A) (A) (A) (A) (A) (A) (A) (A) (A) (A) (A) (A)
                 (A) (A) (A) (A) (A) (A) (A) (A) (A) (A) (A) (A)
                 (A) (A) (A) (A) (A) (A) (A) (A) (A) (A) (A) (A)
                 (A) (A) (A) (A) (A) (A) (A) (A) (A) (A) (A) (A)
                 (A) (A) (A) (A) (A) (A) (A) (A) (A) (A) (A) (A)
                 (A) (A) (A) (A) (A) (A) (A) (A) (A) (A)
 Initial guess <Sx>= 0.0000 <Sy>= 0.0000 <Sz>= 0.5000 <S**2>= 0.7555 S= 0.5028
 Harris functional with IExCor= 1009 diagonalized for initial guess.
 ExpMin= 4.38D-02 ExpMax= 5.48D+03 ExpMxC= 8.25D+02 IAcc=2 IRadAn=         0 AccDes= 0.00D+00
 HarFok:  IExCor= 1009 AccDes= 0.00D+00 IRadAn=         0 IDoV= 1
 ScaDFX=  1.000000  1.000000  1.000000  1.000000
[...]
 Red. masses --     1.1946                 1.2472                 1.2517
 Frc consts  --     1.2969                 1.4502                 1.5911
 IR Inten    --     5.4305                35.3917                11.7602
  Atom  AN      X      Y      Z        X      Y      Z        X      Y      Z
     1   6    -0.01  -0.03   0.02     0.01  -0.03   0.01    -0.11   0.06   0.00
     2   1    -0.11   0.13  -0.04    -0.16   0.24  -0.08     0.27  -0.53   0.26
     3   1     0.01  -0.04   0.00    -0.18   0.00   0.05     0.65  -0.02  -0.20
     4   6     0.07   0.04   0.05     0.12  -0.03  -0.04     0.07  -0.01  -0.01
     5   1     0.26   0.18  -0.02    -0.67  -0.11  -0.03    -0.14  -0.11   0.04
     6   1    -0.72  -0.10  -0.04    -0.48   0.06   0.06    -0.23  -0.09  -0.05
     7   8     0.02  -0.01  -0.06    -0.03   0.03   0.03    -0.01   0.01   0.00
     8   1    -0.51  -0.24   0.11     0.35   0.17  -0.07     0.06   0.04  -0.02
                    13                     14                     15
                     A                      A                      A
 Frequencies --  1498.2590              3032.5938              3064.7486
 Red. masses --     1.0821                 1.0564                 1.1039
 Frc consts  --     1.4312                 5.7240                 6.1090
 IR Inten    --     1.0767                44.6859                32.3909
  Atom  AN      X      Y      Z        X      Y      Z        X      Y      Z
     1   6     0.01  -0.01   0.00     0.00   0.00   0.00     0.00   0.00   0.00
     2   1    -0.04   0.08  -0.03    -0.01  -0.01   0.00    -0.02  -0.01   0.01
     3   1    -0.08  -0.01   0.01     0.00  -0.01   0.01     0.00  -0.01   0.01
     4   6    -0.01   0.08   0.01     0.01  -0.07   0.00     0.00  -0.01   0.09
     5   1    -0.01  -0.57   0.39    -0.03   0.35   0.60     0.04  -0.39  -0.60
     6   1     0.01  -0.52  -0.48    -0.02   0.45  -0.56    -0.03   0.45  -0.52
     7   8     0.00   0.01   0.00     0.00   0.00   0.00     0.00   0.00   0.00
     8   1     0.00   0.01   0.00     0.00   0.00  -0.01     0.00   0.00   0.01
                    16                     17                     18
                     A                      A                      A
 Frequencies --  3187.5891              3300.3170              3888.8905
 Red. masses --     1.0512                 1.1198                 1.0667
 Frc consts  --     6.2928                 7.1860                 9.5045
 IR Inten    --     5.3331                 7.2921                32.7931
  Atom  AN      X      Y      Z        X      Y      Z        X      Y      Z
     1   6    -0.05   0.03  -0.01    -0.05  -0.07   0.06     0.00   0.00   0.00
     2   1     0.59   0.26  -0.31     0.58   0.24  -0.30     0.00   0.00   0.00
     3   1     0.03  -0.58   0.39    -0.05   0.59  -0.39     0.00   0.00   0.00
     4   6     0.00   0.00   0.00     0.00   0.00   0.00     0.00   0.00   0.00
     5   1     0.00   0.00   0.00     0.00   0.00  -0.01     0.00   0.00  -0.01
     6   1     0.00   0.00   0.00     0.00   0.02  -0.02     0.00   0.00   0.00
     7   8     0.00   0.00   0.00     0.00   0.00   0.00     0.00   0.04   0.05
     8   1     0.00   0.00   0.00     0.00   0.00   0.00     0.03  -0.63  -0.77

 -------------------
 - Thermochemistry -
 -------------------
 Temperature   298.150 Kelvin.  Pressure   1.00000 Atm.
 Atom     1 has atomic number  6 and mass  12.00000
 Atom     2 has atomic number  1 and mass   1.00783
 Atom     3 has atomic number  1 and mass   1.00783
 Atom     4 has atomic number  6 and mass  12.00000
 Atom     5 has atomic number  1 and mass   1.00783
 Atom     6 has atomic number  1 and mass   1.00783
 Atom     7 has atomic number  8 and mass  15.99491
 Atom     8 has atomic number  1 and mass   1.00783
 Molecular mass:    45.03404 amu.
 Principal axes and moments of inertia in atomic units:
                           1         2         3
     Eigenvalues --    47.10411 181.78952 209.66232
           X            0.99989  -0.01006   0.01080
           Y            0.01014   0.99992  -0.00736
           Z           -0.01072   0.00747   0.99991
 This molecule is an asymmetric top.
 Rotational symmetry number  1.
 Rotational temperatures (Kelvin)      1.83877     0.47645     0.41311
 Rotational constants (GHZ):          38.31388     9.92764     8.60785
 Zero-point vibrational energy     173287.7 (Joules/Mol)
                                   41.41676 (Kcal/Mol)
 Warning -- explicit consideration of   4 degrees of freedom as
           vibrations may cause significant error
 Vibrational temperatures:    244.82   550.74   626.21   768.05  1190.04
          (Kelvin)           1404.45  1617.46  1643.54  1692.30  1953.05
                             2021.23  2113.28  2155.66  4363.22  4409.48
                             4586.22  4748.41  5595.24
 
 Zero-point correction=                           0.066002 (Hartree/Particle)
 Thermal correction to Energy=                    0.070447
 Thermal correction to Enthalpy=                  0.071391
 Thermal correction to Gibbs Free Energy=         0.039928
 Sum of electronic and zero-point Energies=           -154.235413
 Sum of electronic and thermal Energies=              -154.230967
 Sum of electronic and thermal Enthalpies=            -154.230023
 Sum of electronic and thermal Free Energies=         -154.261486
 
                     E (Thermal)             CV                S
                      KCal/Mol        Cal/Mol-Kelvin    Cal/Mol-Kelvin
 Total                   44.206             14.040             66.220
 Electronic               0.000              0.000              1.377
 Translational            0.889              2.981             37.340
 Rotational               0.889              2.981             22.111
 Vibrational             42.429              8.078              5.391
 Vibration     1          0.625              1.879              2.434
 Vibration     2          0.752              1.507              1.028
 Vibration     3          0.796              1.393              0.842
 Vibration     4          0.889              1.175              0.579
                       Q            Log10(Q)             Ln(Q)
 Total Bot       0.430925D-18        -18.365598        -42.288352
 Total V=0       0.984145D+12         11.993059         27.615039
 Vib (Bot)       0.119587D-29        -29.922315        -68.898677
 Vib (Bot)    1  0.118429D+01          0.073456          0.169139
 Vib (Bot)    2  0.471418D+00         -0.326594         -0.752010
 Vib (Bot)    3  0.398693D+00         -0.399362         -0.919565
 Vib (Bot)    4  0.298527D+00         -0.525017         -1.208896
 Vib (V=0)       0.273113D+01          0.436342          1.004714
 Vib (V=0)    1  0.178551D+01          0.251762          0.579703
 Vib (V=0)    2  0.118719D+01          0.074522          0.171592
 Vib (V=0)    3  0.113950D+01          0.056713          0.130586
 Vib (V=0)    4  0.108234D+01          0.034363          0.079124
 Electronic      0.200000D+01          0.301030          0.693147
 Translational   0.118786D+08          7.074767         16.290252
 Rotational      0.151677D+05          4.180920          9.626925
 ***** Axes restored to original set *****
 -------------------------------------------------------------------
 Center     Atomic                   Forces (Hartrees/Bohr)
 Number     Number              X              Y              Z
 -------------------------------------------------------------------
      1        6          -0.000008154   -0.000035462    0.000012983
      2        1          -0.000032694    0.000015724   -0.000010929
      3        1          -0.000019074    0.000063865   -0.000002504
      4        6          -0.000018727    0.000031400   -0.000004081
      5        1           0.000045812   -0.000007123    0.000016935
      6        1           0.000013620   -0.000021990   -0.000012708
      7        8           0.000013134   -0.000022652   -0.000003580
      8        1           0.000006083   -0.000023761    0.000003883
 -------------------------------------------------------------------
 Cartesian Forces:  Max     0.000063865 RMS     0.000023552

 GradGradGradGradGradGradGradGradGradGradGradGradGradGradGradGradGradGrad
 Berny optimization.
 Internal  Forces:  Max     0.000044872 RMS     0.000017225
 Search for a local minimum.
 Step number   1 out of a maximum of    2
 All quantities printed in internal units (Hartrees-Bohrs-Radians)
 Second derivative matrix not updated -- analytic derivatives used.
     Eigenvalues ---    0.00100   0.00472   0.00893   0.05909   0.06564
     Eigenvalues ---    0.09711   0.10084   0.10915   0.13559   0.16556
     Eigenvalues ---    0.23042   0.31939   0.32616   0.33293   0.37148
     Eigenvalues ---    0.37270   0.39991   0.543881000.000001000.00000
     Eigenvalues --- 1000.000001000.000001000.000001000.000001000.00000
     Eigenvalues --- 1000.00000
 Angle between quadratic step and forces=  49.73 degrees.
 Linear search not attempted -- first point.
 Iteration  1 RMS(Cart)=  0.00029309 RMS(Int)=  0.00000008
 Iteration  2 RMS(Cart)=  0.00000007 RMS(Int)=  0.00000001
 Variable       Old X    -DE/DX   Delta X   Delta X   Delta X     New X
                                 (Linear)    (Quad)   (Total)
    R1        2.04662  -0.00001   0.00000  -0.00005  -0.00005   2.04657
    R2        2.04876   0.00000   0.00000   0.00001   0.00001   2.04877
    R3        2.81022   0.00000   0.00000   0.00003   0.00003   2.81025
    R4        2.07705  -0.00001   0.00000  -0.00004  -0.00004   2.07702
    R5        2.07782   0.00000   0.00000   0.00001   0.00001   2.07783
    R6        2.68471  -0.00002   0.00000  -0.00002  -0.00002   2.68469
    R7        1.82199   0.00000   0.00000   0.00001   0.00001   1.82200
    A1        2.07380   0.00002   0.00000   0.00025   0.00025   2.07404
    A2        2.11233   0.00002   0.00000   0.00023   0.00023   2.11257
    A3        2.07758  -0.00004   0.00000  -0.00047  -0.00047   2.07712
    A4        1.94039   0.00001   0.00000   0.00010   0.00010   1.94050
    A5        1.92662   0.00002   0.00000   0.00011   0.00011   1.92673
    A6        1.96391  -0.00004   0.00000  -0.00027  -0.00027   1.96365
    A7        1.86412  -0.00001   0.00000  -0.00008  -0.00008   1.86404
    A8        1.82782   0.00003   0.00000   0.00022   0.00022   1.82803
    A9        1.93637   0.00000   0.00000  -0.00007  -0.00007   1.93630
   A10        1.88884  -0.00002   0.00000  -0.00017  -0.00017   1.88867
    D1       -1.60439   0.00000   0.00000   0.00003   0.00003  -1.60435
    D2        0.46112   0.00001   0.00000   0.00007   0.00007   0.46119
    D3        2.63476  -0.00001   0.00000  -0.00014  -0.00014   2.63463
    D4        1.32399   0.00000   0.00000   0.00012   0.00012   1.32411
    D5       -2.89370   0.00001   0.00000   0.00016   0.00016  -2.89354
    D6       -0.72005  -0.00001   0.00000  -0.00004  -0.00004  -0.72010
    D7       -0.93162   0.00000   0.00000  -0.00042  -0.00042  -0.93205
    D8       -3.04150   0.00000   0.00000  -0.00054  -0.00054  -3.04204
    D9        1.23665  -0.00001   0.00000  -0.00053  -0.00053   1.23612
         Item               Value     Threshold  Converged?
 Maximum Force            0.000045     0.000450     YES
 RMS     Force            0.000017     0.000300     YES
 Maximum Displacement     0.000737     0.001800     YES
 RMS     Displacement     0.000293     0.001200     YES
 Predicted change in Energy=-3.280015D-08
 Optimization completed.
    -- Stationary point found.
                           ----------------------------
                           !   Optimized Parameters   !
                           ! (Angstroms and Degrees)  !
 --------------------------                            --------------------------
 ! Name  Definition              Value          Derivative Info.                !
 --------------------------------------------------------------------------------
 ! R1    R(1,2)                  1.083          -DE/DX =    0.0                 !
 ! R2    R(1,3)                  1.0842         -DE/DX =    0.0                 !
 ! R3    R(1,4)                  1.4871         -DE/DX =    0.0                 !
 ! R4    R(4,5)                  1.0991         -DE/DX =    0.0                 !
 ! R5    R(4,6)                  1.0995         -DE/DX =    0.0                 !
 ! R6    R(4,7)                  1.4207         -DE/DX =    0.0                 !
 ! R7    R(7,8)                  0.9642         -DE/DX =    0.0                 !
 ! A1    A(2,1,3)              118.8198         -DE/DX =    0.0                 !
 ! A2    A(2,1,4)              121.0278         -DE/DX =    0.0                 !
 ! A3    A(3,1,4)              119.0368         -DE/DX =    0.0                 !
 ! A4    A(1,4,5)              111.1764         -DE/DX =    0.0                 !
 ! A5    A(1,4,6)              110.3873         -DE/DX =    0.0                 !
 ! A6    A(1,4,7)              112.5239         -DE/DX =    0.0                 !
 ! A7    A(5,4,6)              106.8064         -DE/DX =    0.0                 !
 ! A8    A(5,4,7)              104.7261         -DE/DX =    0.0                 !
 ! A9    A(6,4,7)              110.9458         -DE/DX =    0.0                 !
 ! A10   A(4,7,8)              108.2225         -DE/DX =    0.0                 !
 ! D1    D(2,1,4,5)            -91.9245         -DE/DX =    0.0                 !
 ! D2    D(2,1,4,6)             26.4201         -DE/DX =    0.0                 !
 ! D3    D(2,1,4,7)            150.9607         -DE/DX =    0.0                 !
 ! D4    D(3,1,4,5)             75.8588         -DE/DX =    0.0                 !
 ! D5    D(3,1,4,6)           -165.7965         -DE/DX =    0.0                 !
 ! D6    D(3,1,4,7)            -41.256          -DE/DX =    0.0                 !
 ! D7    D(1,4,7,8)            -53.378          -DE/DX =    0.0                 !
 ! D8    D(5,4,7,8)           -174.2653         -DE/DX =    0.0                 !
 ! D9    D(6,4,7,8)             70.8547         -DE/DX =    0.0                 !
 --------------------------------------------------------------------------------
 GradGradGradGradGradGradGradGradGradGradGradGradGradGradGradGradGradGrad

 1|1|UNPC-DESKTOP-319GPER|Freq|UM062X|6-31+G(d,p)|C2H5O1(2)|SAGAD|23-Ja
 n-2021|0||#N Geom=AllCheck Guess=TCheck SCRF=Check GenChk UM062X/6-31+
 G(d,p) Freq||2-Hydroxyethyl radical M062X||0,2|C,-0.4311094704,0.67606
 31166,0.6231365153|H,-0.2465276769,-0.1604115796,1.2858430744|H,-1.302
 336256,0.6496910318,-0.0215859165|C,0.3182645669,1.9518910241,0.772073
 3568|H,-0.2189305969,2.6539756762,1.4252074084|H,1.2969844005,1.769036
 9916,1.2386070285|O,0.464285402,2.6442787415,-0.4598466356|H,0.8513295
 508,2.0383529678,-1.1022220913||Version=IA32W-G09RevA.02|State=2-A|HF=
 -154.3014143|S2=0.755108|S2-1=0.|S2A=0.750021|RMSD=1.418e-009|RMSF=2.3
 55e-005|ZeroPoint=0.0660018|Thermal=0.070447|Dipole=0.1310646,-0.6613,
 0.2058517|DipoleDeriv=-0.1441136,0.0125604,0.2396879,0.028847,-0.05865
 99,-0.0667457,0.2167585,-0.1520373,-0.1863388,0.0689489,-0.0269267,-0.
 0575587,-0.0365962,-0.0146331,0.0801996,-0.0545206,0.1112752,0.0496654
 ,0.0063947,-0.0351754,-0.0975159,-0.0177644,0.036742,0.0429801,-0.1016
 003,0.0083281,0.070194,0.407749,0.0997711,-0.075419,0.042191,0.4603127
 ,-0.2049175,-0.0809826,-0.2664643,0.7009837,0.0177278,0.0388362,0.0600
 224,0.0256851,-0.0744207,-0.0787892,0.0524666,-0.0245037,-0.019722,-0.
 1380389,0.0160021,-0.1229285,0.0199252,0.0021244,0.0616304,-0.0674738,
 0.0445566,-0.0569331,-0.5556139,-0.1810512,0.0361097,-0.1612702,-0.540
 2144,0.2391398,0.0149274,0.2974141,-0.8330839,0.3369459,0.0759835,0.01
 7602,0.0989825,0.188749,-0.0734975,0.0204248,-0.0185686,0.2752347|Pola
 r=27.3872156,2.1239236,30.5350589,-0.0953442,-0.8170192,29.2372153|PG=
 C01 [X(C2H5O1)]|NImag=0||0.40087947,0.08406234,0.52124766,0.24948419,-
 0.15849150,0.35822781,-0.04772123,0.02770794,-0.05157635,0.04182603,0.
 02845924,-0.22737020,0.15176141,-0.03175167,0.23416674,-0.05454074,0.1
 5705483,-0.14803151,0.05353895,-0.16428320,0.14751605,-0.23566945,-0.0
 1345892,-0.16549977,0.00093678,-0.00202443,0.00040555,0.24195094,-0.01
 031533,-0.05164641,0.01057644,0.01734900,0.00465458,0.01190247,0.01474
 362,0.04419943,-0.15823763,0.00661621,-0.13812203,-0.01262409,-0.00244
 994,-0.00471728,0.17267408,-0.00604069,0.14129668,-0.11846310,-0.07657
 268,-0.03434821,0.00600592,0.00876587,0.00008724,-0.00682717,-0.022204
 91,-0.00409236,0.56352967,-0.07766737,-0.19328480,-0.01411730,-0.00846
 706,-0.00697896,-0.00520292,0.00330759,0.00406491,0.00307485,-0.030557
 10,0.50872568,-0.03211679,-0.00896208,-0.06973018,0.00746531,0.0166925
 2,0.00706004,-0.00783882,-0.01693707,-0.00187694,0.02589098,0.02769295
 ,0.50855730,0.00923459,-0.01094586,-0.00873214,-0.00040151,-0.00036401
 ,0.00042704,-0.00027282,0.00049412,0.00049410,-0.11149167,0.07703686,0
 .06925849,0.11697287,0.00565791,-0.02347520,-0.01256337,-0.00103452,-0
 .00096721,-0.00025096,-0.00065131,0.00036246,0.00067816,0.09141547,-0.
 15257160,-0.10585957,-0.08785621,0.16739115,-0.00081992,-0.00599753,0.
 00140503,0.00014845,-0.00098848,-0.00119168,-0.00019936,0.00002627,0.0
 0017863,0.06922310,-0.08810357,-0.12285394,-0.08308796,0.10067732,0.15
 439749,-0.01351738,0.00202498,-0.00716772,0.00050929,-0.00059203,0.000
 02907,-0.00050596,-0.00254914,0.00077508,-0.26081368,0.03579327,-0.086
 76655,-0.01514665,0.00294752,-0.00594608,0.27637853,-0.02708067,0.0031
 3550,-0.01472291,0.00084630,0.00088240,0.00046575,-0.00285012,-0.00443
 344,-0.00079677,0.03426278,-0.05438318,0.01549107,0.02060159,-0.001994
 79,0.00697257,-0.03799928,0.06277777,-0.00605785,-0.00262932,-0.000690
 62,0.00061284,-0.00049677,-0.00000988,-0.00084194,-0.00010716,0.001193
 76,-0.08469752,0.01313244,-0.08542930,0.01627613,-0.00289727,0.0086574
 6,0.10013868,-0.02289567,0.10326919,0.00512470,-0.01421503,0.01807460,
 -0.00110391,-0.00301138,0.00044790,0.00127809,0.00297565,0.00072870,-0
 .06992382,-0.00309573,0.02345207,0.00055302,-0.00929444,0.01916090,0.0
 1238281,0.01254038,-0.02369670,0.14169435,-0.00443524,-0.03027070,0.03
 744768,-0.00465348,-0.00428867,0.00030164,0.00156452,0.00270634,-0.001
 12052,0.00538194,-0.11547571,0.04999894,0.00236891,0.01185705,-0.01626
 709,0.00026801,-0.00559808,0.01525717,-0.13062729,0.38625848,0.0020557
 2,0.01285744,-0.00566447,0.00263199,0.00038223,-0.00053540,0.00128869,
 0.00026135,0.00204290,0.01202412,0.08737587,-0.20979451,0.00558404,0.0
 1606586,-0.03501206,-0.00063960,0.01664681,-0.02734173,-0.16810438,0.0
 9386134,0.52284006,0.00013242,0.00139723,-0.00023459,-0.00005136,0.000
 51842,-0.00039501,-0.00089040,-0.00049300,0.00028212,-0.00201616,0.003
 64954,0.00065532,0.00055218,-0.00118442,0.00152087,0.00071305,-0.00032
 097,-0.00173364,-0.09000524,0.13013263,0.14515941,0.09156551,0.0013191
 2,0.00166415,0.00010955,0.00000349,-0.00009868,0.00001238,-0.00063094,
 0.00009211,0.00003871,-0.01049136,0.00990366,0.02188323,-0.00133539,-0
 .00060187,0.00368051,0.00010666,-0.00038619,0.00063659,0.14472784,-0.2
 4518871,-0.22745088,-0.13369942,0.23461552,0.00023302,-0.00044804,0.00
 260596,-0.00019710,-0.00061777,-0.00009034,0.00001158,0.00031839,0.000
 00428,0.01591264,-0.02385232,-0.02593247,-0.00021970,0.00414985,-0.005
 58093,-0.00042289,-0.00116086,0.00035112,0.12993691,-0.17947915,-0.246
 53478,-0.14525447,0.20108991,0.27517716||0.00000815,0.00003546,-0.0000
 1298,0.00003269,-0.00001572,0.00001093,0.00001907,-0.00006386,0.000002
 50,0.00001873,-0.00003140,0.00000408,-0.00004581,0.00000712,-0.0000169
 4,-0.00001362,0.00002199,0.00001271,-0.00001313,0.00002265,0.00000358,
 -0.00000608,0.00002376,-0.00000388|||@


 ERROR IS A HARDY PLANT... IT FLOURISHETH IN EVERY SOIL.
            MARTIN FARQUHAR TUPPER
 Job cpu time:  0 days  0 hours  0 minutes 55.0 seconds.
 File lengths (MBytes):  RWF=     15 Int=      0 D2E=      0 Chk=      1 Scr=      1
 Normal termination of Gaussian 09 at Sat Jan 23 01:56:35 2021.
