 Entering Link 1 = C:\G09W\l1.exe PID=      6044.
  
 Copyright (c) 1988,1990,1992,1993,1995,1998,2003,2009, Gaussian, Inc.
                  All Rights Reserved.
  
 This is part of the Gaussian(R) 09 program.  It is based on
 the Gaussian(R) 03 system (copyright 2003, Gaussian, Inc.),
 the Gaussian(R) 98 system (copyright 1998, Gaussian, Inc.),
 the Gaussian(R) 94 system (copyright 1995, Gaussian, Inc.),
 the Gaussian 92(TM) system (copyright 1992, Gaussian, Inc.),
 the Gaussian 90(TM) system (copyright 1990, Gaussian, Inc.),
 the Gaussian 88(TM) system (copyright 1988, Gaussian, Inc.),
 the Gaussian 86(TM) system (copyright 1986, Carnegie Mellon
 University), and the Gaussian 82(TM) system (copyright 1983,
 Carnegie Mellon University). Gaussian is a federally registered
 trademark of Gaussian, Inc.
  
 This software contains proprietary and confidential information,
 including trade secrets, belonging to Gaussian, Inc.
  
 This software is provided under written license and may be
 used, copied, transmitted, or stored only in accord with that
 written license.
  
 The following legend is applicable only to US Government
 contracts under FAR:
  
                    RESTRICTED RIGHTS LEGEND
  
 Use, reproduction and disclosure by the US Government is
 subject to restrictions as set forth in subparagraphs (a)
 and (c) of the Commercial Computer Software - Restricted
 Rights clause in FAR 52.227-19.
  
 Gaussian, Inc.
 340 Quinnipiac St., Bldg. 40, Wallingford CT 06492
  
  
 ---------------------------------------------------------------
 Warning -- This program may not be used in any manner that
 competes with the business of Gaussian, Inc. or will provide
 assistance to any competitor of Gaussian, Inc.  The licensee
 of this program is prohibited from giving any competitor of
 Gaussian, Inc. access to this program.  By using this program,
 the user acknowledges that Gaussian, Inc. is engaged in the
 business of creating and licensing software in the field of
 computational chemistry and represents and warrants to the
 licensee that it is not a competitor of Gaussian, Inc. and that
 it will not use this program in any manner prohibited above.
 ---------------------------------------------------------------
  

 Cite this work as:
 Gaussian 09, Revision A.02,
 M. J. Frisch, G. W. Trucks, H. B. Schlegel, G. E. Scuseria, 
 M. A. Robb, J. R. Cheeseman, G. Scalmani, V. Barone, B. Mennucci, 
 G. A. Petersson, H. Nakatsuji, M. Caricato, X. Li, H. P. Hratchian, 
 A. F. Izmaylov, J. Bloino, G. Zheng, J. L. Sonnenberg, M. Hada, 
 M. Ehara, K. Toyota, R. Fukuda, J. Hasegawa, M. Ishida, T. Nakajima, 
 Y. Honda, O. Kitao, H. Nakai, T. Vreven, J. A. Montgomery, Jr., 
 J. E. Peralta, F. Ogliaro, M. Bearpark, J. J. Heyd, E. Brothers, 
 K. N. Kudin, V. N. Staroverov, R. Kobayashi, J. Normand, 
 K. Raghavachari, A. Rendell, J. C. Burant, S. S. Iyengar, J. Tomasi, 
 M. Cossi, N. Rega, J. M. Millam, M. Klene, J. E. Knox, J. B. Cross, 
 V. Bakken, C. Adamo, J. Jaramillo, R. Gomperts, R. E. Stratmann, 
 O. Yazyev, A. J. Austin, R. Cammi, C. Pomelli, J. W. Ochterski, 
 R. L. Martin, K. Morokuma, V. G. Zakrzewski, G. A. Voth, 
 P. Salvador, J. J. Dannenberg, S. Dapprich, A. D. Daniels, 
 O. Farkas, J. B. Foresman, J. V. Ortiz, J. Cioslowski, 
 and D. J. Fox, Gaussian, Inc., Wallingford CT, 2009.
 
 ******************************************
 Gaussian 09:  IA32W-G09RevA.02 11-Jun-2009
                17-Jan-2021 
 ******************************************
 %chk=D:\Documents\rayGit\FQ\quimicaComputacional\p3Eteno\estadoDeTransicion\hydr
 oxyethylRadicalB3lyp.chk
 %nprocshared=4
 Will use up to    4 processors via shared memory.
 %mem=1500MB
 ------------------------------------
 # opt freq=noraman 6-31+g(d,p) b3lyp
 ------------------------------------
 1/14=-1,18=20,19=15,26=3,38=1/1,3;
 2/9=110,12=2,17=6,18=5,40=1/2;
 3/5=1,6=6,7=111,11=2,16=1,25=1,30=1,71=1,74=-5/1,2,3;
 4//1;
 5/5=2,38=5/2;
 6/7=2,8=2,9=2,10=2,28=1/1;
 7//1,2,3,16;
 1/14=-1,18=20,19=15/3(2);
 2/9=110/2;
 99//99;
 2/9=110/2;
 3/5=1,6=6,7=111,11=2,16=1,25=1,30=1,71=1,74=-5/1,2,3;
 4/5=5,16=3/1;
 5/5=2,38=5/2;
 7//1,2,3,16;
 1/14=-1,18=20,19=15/3(-5);
 2/9=110/2;
 6/7=2,8=2,9=2,10=2,19=2,28=1/1;
 99/9=1/99;
 ----------------------------
 2-Hydroxyethyl radical b3lyp
 ----------------------------
 Symbolic Z-matrix:
 Charge =  0 Multiplicity = 2
 C                    -0.47616   0.7481    0.59177 
 H                     0.057    -0.17961   0.59177 
 H                    -1.54616   0.7481    0.59177 
 C                     0.25615   2.02258   0.74029 
 H                    -0.35014   2.72184   1.27726 
 H                     1.16479   1.85118   1.27871 
 O                     0.56093   2.55073  -0.55319 
 H                     1.06556   1.75995  -0.75718 
 

 GradGradGradGradGradGradGradGradGradGradGradGradGradGradGradGradGradGrad
 Berny optimization.
 Initialization pass.
                           ----------------------------
                           !    Initial Parameters    !
                           ! (Angstroms and Degrees)  !
 --------------------------                            --------------------------
 ! Name  Definition              Value          Derivative Info.                !
 --------------------------------------------------------------------------------
 ! R1    R(1,2)                  1.07           estimate D2E/DX2                !
 ! R2    R(1,3)                  1.07           estimate D2E/DX2                !
 ! R3    R(1,4)                  1.4774         estimate D2E/DX2                !
 ! R4    R(4,5)                  1.07           estimate D2E/DX2                !
 ! R5    R(4,6)                  1.07           estimate D2E/DX2                !
 ! R6    R(4,7)                  1.43           estimate D2E/DX2                !
 ! R7    R(7,8)                  0.96           estimate D2E/DX2                !
 ! A1    A(2,1,3)              119.8865         estimate D2E/DX2                !
 ! A2    A(2,1,4)              120.0628         estimate D2E/DX2                !
 ! A3    A(3,1,4)              119.7151         estimate D2E/DX2                !
 ! A4    A(1,4,5)              109.4712         estimate D2E/DX2                !
 ! A5    A(1,4,6)              109.4712         estimate D2E/DX2                !
 ! A6    A(1,4,7)              109.4712         estimate D2E/DX2                !
 ! A7    A(5,4,6)              109.4712         estimate D2E/DX2                !
 ! A8    A(5,4,7)              109.4712         estimate D2E/DX2                !
 ! A9    A(6,4,7)              109.4712         estimate D2E/DX2                !
 ! A10   A(4,7,8)               90.0            estimate D2E/DX2                !
 ! D1    D(2,1,4,5)           -146.6952         estimate D2E/DX2                !
 ! D2    D(2,1,4,6)            -26.6952         estimate D2E/DX2                !
 ! D3    D(2,1,4,7)             93.3048         estimate D2E/DX2                !
 ! D4    D(3,1,4,5)             26.6464         estimate D2E/DX2                !
 ! D5    D(3,1,4,6)            146.6464         estimate D2E/DX2                !
 ! D6    D(3,1,4,7)            -93.3536         estimate D2E/DX2                !
 ! D7    D(1,4,7,8)            -60.0            estimate D2E/DX2                !
 ! D8    D(5,4,7,8)            180.0            estimate D2E/DX2                !
 ! D9    D(6,4,7,8)             60.0            estimate D2E/DX2                !
 --------------------------------------------------------------------------------
 Trust Radius=3.00D-01 FncErr=1.00D-07 GrdErr=1.00D-06
 Number of steps in this run=  36 maximum allowed number of steps= 100.
 GradGradGradGradGradGradGradGradGradGradGradGradGradGradGradGradGradGrad

                          Input orientation:                          
 ---------------------------------------------------------------------
 Center     Atomic      Atomic             Coordinates (Angstroms)
 Number     Number       Type             X           Y           Z
 ---------------------------------------------------------------------
      1          6           0       -0.476164    0.748099    0.591772
      2          1           0        0.057000   -0.179606    0.591772
      3          1           0       -1.546164    0.748099    0.591772
      4          6           0        0.256154    2.022581    0.740285
      5          1           0       -0.350145    2.721836    1.277261
      6          1           0        1.164791    1.851183    1.278712
      7          8           0        0.560930    2.550734   -0.553185
      8          1           0        1.065558    1.759951   -0.757177
 ---------------------------------------------------------------------
                    Distance matrix (angstroms):
                    1          2          3          4          5
     1  C    0.000000
     2  H    1.070000   0.000000
     3  H    1.070000   1.852234   0.000000
     4  C    1.477379   2.216155   2.212399   0.000000
     5  H    2.093182   3.008991   2.407487   1.070000   0.000000
     6  H    2.093182   2.413129   3.006319   1.070000   1.747303
     7  O    2.374023   3.003270   3.000044   1.430000   2.051796
     8  H    2.284822   2.568800   3.108793   1.722353   2.658641
                    6          7          8
     6  H    0.000000
     7  O    2.051796   0.000000
     8  H    2.040346   0.960000   0.000000
 Stoichiometry    C2H5O(2)
 Framework group  C1[X(C2H5O)]
 Deg. of freedom    18
 Full point group                 C1      NOp   1
 Largest Abelian subgroup         C1      NOp   1
 Largest concise Abelian subgroup C1      NOp   1
                         Standard orientation:                         
 ---------------------------------------------------------------------
 Center     Atomic      Atomic             Coordinates (Angstroms)
 Number     Number       Type             X           Y           Z
 ---------------------------------------------------------------------
      1          6           0       -1.205097   -0.236333   -0.039999
      2          1           0       -1.654897   -0.656870    0.835060
      3          1           0       -1.711364   -0.295846   -0.980771
      4          6           0        0.038911    0.552461    0.073564
      5          1           0        0.039034    1.326629   -0.665058
      6          1           0        0.096277    0.989651    1.048487
      7          8           0        1.166194   -0.302961   -0.132318
      8          1           0        0.898516   -0.836641    0.619436
 ---------------------------------------------------------------------
 Rotational constants (GHZ):     36.8875768     10.2004514      9.1096112
 Standard basis: 6-31+G(d,p) (6D, 7F)
 There are    82 symmetry adapted basis functions of A   symmetry.
 Integral buffers will be    262144 words long.
 Raffenetti 2 integral format.
 Two-electron integral symmetry is turned on.
    82 basis functions,   131 primitive gaussians,    82 cartesian basis functions
    13 alpha electrons       12 beta electrons
       nuclear repulsion energy        75.9318939695 Hartrees.
 NAtoms=    8 NActive=    8 NUniq=    8 SFac= 7.50D-01 NAtFMM=   80 NAOKFM=F Big=F
 One-electron integrals computed using PRISM.
 NBasis=    82 RedAO= T  NBF=    82
 NBsUse=    82 1.00D-06 NBFU=    82
 Harris functional with IExCor=  402 diagonalized for initial guess.
 ExpMin= 4.38D-02 ExpMax= 5.48D+03 ExpMxC= 8.25D+02 IAcc=2 IRadAn=         0 AccDes= 0.00D+00
 HarFok:  IExCor=  402 AccDes= 0.00D+00 IRadAn=         0 IDoV= 1
 ScaDFX=  1.000000  1.000000  1.000000  1.000000
 FoFCou: FMM=F IPFlag=           0 FMFlag=      100000 FMFlg1=           0
         NFxFlg=           0 DoJE=T BraDBF=F KetDBF=T FulRan=T
         Omega=  0.000000  0.000000  1.000000  0.000000  0.000000 ICntrl=     500 IOpCl=  0
         NMat0=    1 NMatS0=    1 NMatT0=    0 NMatD0=    1 NMtDS0=    0 NMtDT0=    0
         I1Cent=           4 NGrid=           0.
 Petite list used in FoFCou.
 Initial guess orbital symmetries:
 Alpha Orbitals:
       Occupied  (A) (A) (A) (A) (A) (A) (A) (A) (A) (A) (A) (A)
                 (A)
       Virtual   (A) (A) (A) (A) (A) (A) (A) (A) (A) (A) (A) (A)
                 (A) (A) (A) (A) (A) (A) (A) (A) (A) (A) (A) (A)
                 (A) (A) (A) (A) (A) (A) (A) (A) (A) (A) (A) (A)
                 (A) (A) (A) (A) (A) (A) (A) (A) (A) (A) (A) (A)
                 (A) (A) (A) (A) (A) (A) (A) (A) (A) (A) (A) (A)
                 (A) (A) (A) (A) (A) (A) (A) (A) (A)
 Beta  Orbitals:
       Occupied  (A) (A) (A) (A) (A) (A) (A) (A) (A) (A) (A) (A)
       Virtual   (A) (A) (A) (A) (A) (A) (A) (A) (A) (A) (A) (A)
                 (A) (A) (A) (A) (A) (A) (A) (A) (A) (A) (A) (A)
                 (A) (A) (A) (A) (A) (A) (A) (A) (A) (A) (A) (A)
                 (A) (A) (A) (A) (A) (A) (A) (A) (A) (A) (A) (A)
                 (A) (A) (A) (A) (A) (A) (A) (A) (A) (A) (A) (A)
                 (A) (A) (A) (A) (A) (A) (A) (A) (A) (A)
 The electronic state of the initial guess is 2-A.
 Initial guess <Sx>= 0.0000 <Sy>= 0.0000 <Sz>= 0.5000 <S**2>= 0.7500 S= 0.5000
 Requested convergence on RMS density matrix=1.00D-08 within 128 cycles.
 Requested convergence on MAX density matrix=1.00D-06.
 Requested convergence on             energy=1.00D-06.
 No special actions if energy rises.
 Keep R1 and R2 ints in memory in canonical form, NReq=12587765.
 SCF Done:  E(UB3LYP) =  -154.370737160     A.U. after   13 cycles
             Convg  =    0.3194D-08             -V/T =  2.0078
 <Sx>= 0.0000 <Sy>= 0.0000 <Sz>= 0.5000 <S**2>= 0.7538 S= 0.5019
 <L.S>= 0.000000000000E+00
 Annihilation of the first spin contaminant:
 S**2 before annihilation     0.7538,   after     0.7500

 **********************************************************************

            Population analysis using the SCF density.

 **********************************************************************

 Orbital symmetries:
 Alpha Orbitals:
       Occupied  (A) (A) (A) (A) (A) (A) (A) (A) (A) (A) (A) (A)
                 (A)
       Virtual   (A) (A) (A) (A) (A) (A) (A) (A) (A) (A) (A) (A)
                 (A) (A) (A) (A) (A) (A) (A) (A) (A) (A) (A) (A)
                 (A) (A) (A) (A) (A) (A) (A) (A) (A) (A) (A) (A)
                 (A) (A) (A) (A) (A) (A) (A) (A) (A) (A) (A) (A)
                 (A) (A) (A) (A) (A) (A) (A) (A) (A) (A) (A) (A)
                 (A) (A) (A) (A) (A) (A) (A) (A) (A)
 Beta  Orbitals:
       Occupied  (A) (A) (A) (A) (A) (A) (A) (A) (A) (A) (A) (A)
       Virtual   (A) (A) (A) (A) (A) (A) (A) (A) (A) (A) (A) (A)
                 (A) (A) (A) (A) (A) (A) (A) (A) (A) (A) (A) (A)
                 (A) (A) (A) (A) (A) (A) (A) (A) (A) (A) (A) (A)
                 (A) (A) (A) (A) (A) (A) (A) (A) (A) (A) (A) (A)
                 (A) (A) (A) (A) (A) (A) (A) (A) (A) (A) (A) (A)
                 (A) (A) (A) (A) (A) (A) (A) (A) (A) (A)
 The electronic state is 2-A.
 Alpha  occ. eigenvalues --  -19.16588 -10.23727 -10.20929  -1.04709  -0.76153
 Alpha  occ. eigenvalues --   -0.62428  -0.52383  -0.46115  -0.45167  -0.41307
 Alpha  occ. eigenvalues --   -0.36022  -0.29172  -0.23453
 Alpha virt. eigenvalues --    0.00500   0.03058   0.03242   0.04586   0.07810
 Alpha virt. eigenvalues --    0.07933   0.08405   0.13834   0.14739   0.16526
 Alpha virt. eigenvalues --    0.19886   0.20561   0.21693   0.25104   0.26391
 Alpha virt. eigenvalues --    0.27876   0.30058   0.30870   0.36137   0.60550
 Alpha virt. eigenvalues --    0.63010   0.63995   0.66737   0.68248   0.80199
 Alpha virt. eigenvalues --    0.89669   0.93823   0.96007   0.99322   1.00625
 Alpha virt. eigenvalues --    1.03910   1.14959   1.18708   1.26879   1.34742
 Alpha virt. eigenvalues --    1.37146   1.40262   1.52539   1.56371   1.61261
 Alpha virt. eigenvalues --    1.76234   1.87349   1.89556   1.93643   1.94435
 Alpha virt. eigenvalues --    2.04014   2.12152   2.23692   2.27021   2.38527
 Alpha virt. eigenvalues --    2.41350   2.51712   2.53742   2.58181   2.62106
 Alpha virt. eigenvalues --    2.66476   2.67228   2.80052   2.85183   2.92291
 Alpha virt. eigenvalues --    2.99625   3.29882   3.41200   3.45549   3.52097
 Alpha virt. eigenvalues --    3.55788   4.17791   4.30575   4.55677
  Beta  occ. eigenvalues --  -19.16330 -10.23815 -10.19606  -1.04086  -0.74063
  Beta  occ. eigenvalues --   -0.60733  -0.52028  -0.45509  -0.44073  -0.40623
  Beta  occ. eigenvalues --   -0.35548  -0.28440
  Beta virt. eigenvalues --   -0.08988   0.00812   0.03211   0.03508   0.05093
  Beta virt. eigenvalues --    0.07822   0.08143   0.09305   0.14169   0.15158
  Beta virt. eigenvalues --    0.16702   0.20705   0.20780   0.22577   0.25636
  Beta virt. eigenvalues --    0.26519   0.28465   0.30325   0.31074   0.36511
  Beta virt. eigenvalues --    0.61110   0.63830   0.64291   0.68866   0.72703
  Beta virt. eigenvalues --    0.80686   0.89715   0.94847   0.96939   0.99666
  Beta virt. eigenvalues --    1.01397   1.04611   1.15428   1.19458   1.27324
  Beta virt. eigenvalues --    1.35490   1.38004   1.43516   1.53443   1.56581
  Beta virt. eigenvalues --    1.61824   1.78483   1.88416   1.91068   1.94146
  Beta virt. eigenvalues --    1.96177   2.05386   2.12293   2.23723   2.28206
  Beta virt. eigenvalues --    2.40259   2.41745   2.53341   2.54862   2.59654
  Beta virt. eigenvalues --    2.62360   2.66595   2.67505   2.80454   2.85382
  Beta virt. eigenvalues --    2.92675   2.99766   3.30143   3.41561   3.45839
  Beta virt. eigenvalues --    3.52609   3.56051   4.18145   4.33093   4.56364
          Condensed to atoms (all electrons):
              1          2          3          4          5          6
     1  C    5.364034   0.385853   0.386853   0.302139  -0.050456  -0.040039
     2  H    0.385853   0.529178  -0.030122  -0.029771   0.004464  -0.008550
     3  H    0.386853  -0.030122   0.510252  -0.025863  -0.007935   0.004860
     4  C    0.302139  -0.029771  -0.025863   5.023351   0.437016   0.387579
     5  H   -0.050456   0.004464  -0.007935   0.437016   0.564516  -0.038746
     6  H   -0.040039  -0.008550   0.004860   0.387579  -0.038746   0.621709
     7  O   -0.064843  -0.001675   0.006724   0.085472  -0.062973  -0.048193
     8  H   -0.006854   0.003006  -0.000644   0.001736   0.010760  -0.013478
              7          8
     1  C   -0.064843  -0.006854
     2  H   -0.001675   0.003006
     3  H    0.006724  -0.000644
     4  C    0.085472   0.001736
     5  H   -0.062973   0.010760
     6  H   -0.048193  -0.013478
     7  O    8.304926   0.222218
     8  H    0.222218   0.464954
 Mulliken atomic charges:
              1
     1  C   -0.276688
     2  H    0.147616
     3  H    0.155875
     4  C   -0.181660
     5  H    0.143353
     6  H    0.134858
     7  O   -0.441656
     8  H    0.318301
 Sum of Mulliken atomic charges =   0.00000
 Mulliken charges with hydrogens summed into heavy atoms:
              1
     1  C    0.026804
     4  C    0.096551
     7  O   -0.123355
 Sum of Mulliken charges with hydrogens summed into heavy atoms =   0.00000
          Atomic-Atomic Spin Densities.
              1          2          3          4          5          6
     1  C    1.191180   0.006312   0.005840  -0.032809  -0.008794  -0.006983
     2  H    0.006312  -0.045573   0.001193  -0.010940  -0.000171   0.000638
     3  H    0.005840   0.001193  -0.045604  -0.010111   0.000752  -0.000115
     4  C   -0.032809  -0.010940  -0.010111  -0.032926   0.011487   0.009486
     5  H   -0.008794  -0.000171   0.000752   0.011487   0.008784   0.001399
     6  H   -0.006983   0.000638  -0.000115   0.009486   0.001399   0.004535
     7  O   -0.052267   0.000874  -0.000233  -0.017756  -0.006337  -0.004707
     8  H    0.006646  -0.000159   0.000051   0.003506   0.000253   0.000608
              7          8
     1  C   -0.052267   0.006646
     2  H    0.000874  -0.000159
     3  H   -0.000233   0.000051
     4  C   -0.017756   0.003506
     5  H   -0.006337   0.000253
     6  H   -0.004707   0.000608
     7  O    0.135024  -0.003790
     8  H   -0.003790  -0.003166
 Mulliken atomic spin densities:
              1
     1  C    1.109124
     2  H   -0.047827
     3  H   -0.048227
     4  C   -0.080062
     5  H    0.007373
     6  H    0.004861
     7  O    0.050808
     8  H    0.003951
 Sum of Mulliken atomic spin densities =   1.00000
 Electronic spatial extent (au):  <R**2>=            175.7689
 Charge=              0.0000 electrons
 Dipole moment (field-independent basis, Debye):
    X=             -1.6426    Y=              0.2131    Z=              1.2936  Tot=              2.1017
 Quadrupole moment (field-independent basis, Debye-Ang):
   XX=            -22.7747   YY=            -19.1883   ZZ=            -18.1074
   XY=              0.3541   XZ=              1.5601   YZ=             -1.8074
 Traceless Quadrupole moment (field-independent basis, Debye-Ang):
   XX=             -2.7513   YY=              0.8352   ZZ=              1.9161
   XY=              0.3541   XZ=              1.5601   YZ=             -1.8074
 Octapole moment (field-independent basis, Debye-Ang**2):
  XXX=              0.4984  YYY=             -0.2083  ZZZ=              0.7677  XYY=              3.1476
  XXY=             -1.6375  XXZ=              0.7155  XZZ=              0.7179  YZZ=             -0.3836
  YYZ=              1.0963  XYZ=             -0.8949
 Hexadecapole moment (field-independent basis, Debye-Ang**3):
 XXXX=           -156.1299 YYYY=            -54.2059 ZZZZ=            -34.4070 XXXY=              1.1580
 XXXZ=              2.2678 YYYX=             -3.1461 YYYZ=             -2.9890 ZZZX=              1.5834
 ZZZY=             -1.8673 XXYY=            -33.4406 XXZZ=            -27.7737 YYZZ=            -13.9758
 XXYZ=             -2.1906 YYXZ=              0.6312 ZZXY=              0.0574
 N-N= 7.593189396952D+01 E-N=-7.631378283724D+02  KE= 2.290649666703D+02
                          Isotropic Fermi Contact Couplings
        Atom                 a.u.       MegaHertz       Gauss      10(-4) cm-1
     1  C(13)              0.10326     116.08391      41.42162      38.72142
     2  H(1)              -0.01404     -62.76674     -22.39673     -20.93673
     3  H(1)              -0.01436     -64.19787     -22.90740     -21.41410
     4  C(13)             -0.01876     -21.09153      -7.52598      -7.03538
     5  H(1)               0.00390      17.44760       6.22574       5.81989
     6  H(1)               0.00268      11.96407       4.26908       3.99078
     7  O(17)              0.04767     -28.89832     -10.31164      -9.63944
     8  H(1)              -0.00154      -6.87229      -2.45220      -2.29235
 --------------------------------------------------------
       Center         ----  Spin Dipole Couplings  ----
                      3XX-RR        3YY-RR        3ZZ-RR
 --------------------------------------------------------
     1   Atom       -0.067336      0.524239     -0.456902
     2   Atom       -0.027312      0.002224      0.025088
     3   Atom       -0.019797     -0.022583      0.042381
     4   Atom        0.011627     -0.000142     -0.011486
     5   Atom        0.004319      0.005252     -0.009571
     6   Atom        0.005788     -0.000849     -0.004939
     7   Atom        0.365432     -0.176810     -0.188622
     8   Atom        0.007335     -0.011114      0.003779
 --------------------------------------------------------
                        XY            XZ            YZ
 --------------------------------------------------------
     1   Atom       -0.682895     -0.156235      0.237398
     2   Atom       -0.007876     -0.053546     -0.038297
     3   Atom       -0.027140      0.051042      0.018883
     4   Atom        0.014688      0.001103      0.001838
     5   Atom        0.011442     -0.005055     -0.005877
     6   Atom        0.009417      0.008807      0.008732
     7   Atom       -0.006964      0.001181     -0.007723
     8   Atom       -0.002586      0.008854     -0.018230
 --------------------------------------------------------


 ---------------------------------------------------------------------------------
              Anisotropic Spin Dipole Couplings in Principal Axis System
 ---------------------------------------------------------------------------------

       Atom             a.u.   MegaHertz   Gauss  10(-4) cm-1        Axes

              Baa    -0.5158   -69.211   -24.696   -23.086  0.8408  0.5376  0.0636
     1 C(13)  Bbb    -0.5113   -68.613   -24.483   -22.887  0.0489 -0.1924  0.9801
              Bcc     1.0271   137.824    49.179    45.973 -0.5391  0.8210  0.1881
 
              Baa    -0.0715   -38.140   -13.609   -12.722  0.7428  0.3695  0.5584
     2 H(1)   Bbb     0.0003     0.179     0.064     0.060 -0.5284  0.8357  0.1499
              Bcc     0.0711    37.961    13.546    12.663 -0.4112 -0.4064  0.8159
 
              Baa    -0.0709   -37.837   -13.501   -12.621  0.7141  0.5633 -0.4156
     3 H(1)   Bbb    -0.0003    -0.139    -0.049    -0.046 -0.5092  0.8254  0.2440
              Bcc     0.0712    37.976    13.551    12.667  0.4805  0.0374  0.8762
 
              Baa    -0.0120    -1.613    -0.576    -0.538  0.1931 -0.3788  0.9051
     4 C(13)  Bbb    -0.0097    -1.296    -0.463    -0.432 -0.5298  0.7362  0.4212
              Bcc     0.0217     2.909     1.038     0.970  0.8259  0.5608  0.0585
 
              Baa    -0.0117    -6.268    -2.237    -2.091  0.1263  0.2471  0.9607
     5 H(1)   Bbb    -0.0066    -3.539    -1.263    -1.181  0.7368 -0.6718  0.0759
              Bcc     0.0184     9.807     3.499     3.271  0.6642  0.6983 -0.2669
 
              Baa    -0.0120    -6.397    -2.283    -2.134 -0.1202 -0.5475  0.8281
     6 H(1)   Bbb    -0.0068    -3.634    -1.297    -1.212  0.7005 -0.6379 -0.3200
              Bcc     0.0188    10.031     3.579     3.346  0.7034  0.5416  0.4602
 
              Baa    -0.1924    13.925     4.969     4.645  0.0036  0.4441  0.8959
     7 O(17)  Bbb    -0.1731    12.524     4.469     4.178  0.0126  0.8959 -0.4442
              Bcc     0.3655   -26.449    -9.438    -8.822  0.9999 -0.0129  0.0023
 
              Baa    -0.0236   -12.607    -4.498    -4.205 -0.0957  0.8143  0.5725
     8 H(1)   Bbb     0.0021     1.117     0.398     0.372  0.8421  0.3729 -0.3896
              Bcc     0.0215    11.490     4.100     3.833  0.5308 -0.4448  0.7214
 

 ---------------------------------------------------------------------------------

 Calling FoFJK, ICntrl=      2127 FMM=F ISym2X=0 I1Cent= 0 IOpClX= 1 NMat=1 NMatS=1 NMatT=0.
 ***** Axes restored to original set *****
 -------------------------------------------------------------------
 Center     Atomic                   Forces (Hartrees/Bohr)
 Number     Number              X              Y              Z
 -------------------------------------------------------------------
      1        6          -0.001396454    0.001772078    0.009059461
      2        1           0.003194266   -0.011848334   -0.001963150
      3        1          -0.010571695   -0.003232932   -0.003556347
      4        6          -0.021259641   -0.002010684    0.009915433
      5        1          -0.006469945    0.014997495    0.006656164
      6        1           0.017092473    0.001332855    0.012483896
      7        8           0.006692184   -0.005509767    0.003457720
      8        1           0.012718813    0.004499288   -0.036053177
 -------------------------------------------------------------------
 Cartesian Forces:  Max     0.036053177 RMS     0.011655836

 GradGradGradGradGradGradGradGradGradGradGradGradGradGradGradGradGradGrad
 Berny optimization.
 Internal  Forces:  Max     0.067096131 RMS     0.016640541
 Search for a local minimum.
 Step number   1 out of a maximum of   36
 All quantities printed in internal units (Hartrees-Bohrs-Radians)
 Mixed Optimization -- RFO/linear search
 Second derivative matrix not updated -- first step.
     Eigenvalues ---    0.01065   0.01099   0.01295   0.06618   0.07653
     Eigenvalues ---    0.11376   0.13914   0.16000   0.16000   0.16000
     Eigenvalues ---    0.22118   0.34871   0.37230   0.37230   0.37230
     Eigenvalues ---    0.37230   0.40989   0.554731000.000001000.00000
     Eigenvalues --- 1000.000001000.000001000.000001000.000001000.00000
     Eigenvalues --- 1000.00000
 RFO step:  Lambda=-3.11940895D-02 EMin= 1.06517995D-02
 Linear search not attempted -- first point.
 Maximum step size (   0.300) exceeded in Quadratic search.
    -- Step size scaled by   0.759
 Iteration  1 RMS(Cart)=  0.08505986 RMS(Int)=  0.01627104
 Iteration  2 RMS(Cart)=  0.02437622 RMS(Int)=  0.00090048
 Iteration  3 RMS(Cart)=  0.00084991 RMS(Int)=  0.00027280
 Iteration  4 RMS(Cart)=  0.00000095 RMS(Int)=  0.00027280
 Variable       Old X    -DE/DX   Delta X   Delta X   Delta X     New X
                                 (Linear)    (Quad)   (Total)
    R1        2.02201   0.01186   0.00000   0.02232   0.02232   2.04433
    R2        2.02201   0.01057   0.00000   0.01989   0.01989   2.04190
    R3        2.79184   0.01547   0.00000   0.03093   0.03093   2.82277
    R4        2.02201   0.01681   0.00000   0.03163   0.03163   2.05363
    R5        2.02201   0.02058   0.00000   0.03873   0.03873   2.06074
    R6        2.70231   0.03325   0.00000   0.05723   0.05723   2.75954
    R7        1.81414   0.01064   0.00000   0.01379   0.01379   1.82792
    A1        2.09241  -0.00460   0.00000  -0.01681  -0.01728   2.07513
    A2        2.09549   0.00219   0.00000   0.01015   0.00967   2.10517
    A3        2.08942   0.00275   0.00000   0.01238   0.01191   2.10133
    A4        1.91063   0.00182   0.00000   0.01023   0.01045   1.92109
    A5        1.91063   0.00119   0.00000   0.01605   0.01574   1.92637
    A6        1.91063   0.00957   0.00000   0.03176   0.03152   1.94216
    A7        1.91063  -0.00237   0.00000  -0.01939  -0.01966   1.89097
    A8        1.91063  -0.00803   0.00000  -0.03801  -0.03814   1.87249
    A9        1.91063  -0.00217   0.00000  -0.00065  -0.00133   1.90931
   A10        1.57080   0.06710   0.00000   0.26645   0.26645   1.83725
    D1       -2.56031  -0.00168   0.00000  -0.02379  -0.02373  -2.58405
    D2       -0.46592  -0.00274   0.00000  -0.03144  -0.03166  -0.49758
    D3        1.62848   0.00118   0.00000  -0.00296  -0.00281   1.62566
    D4        0.46507   0.00140   0.00000   0.03170   0.03177   0.49684
    D5        2.55946   0.00034   0.00000   0.02405   0.02385   2.58331
    D6       -1.62933   0.00427   0.00000   0.05254   0.05270  -1.57663
    D7       -1.04720  -0.00038   0.00000  -0.00042  -0.00068  -1.04788
    D8        3.14159  -0.00355   0.00000  -0.00913  -0.00865   3.13294
    D9        1.04720   0.00560   0.00000   0.03829   0.03807   1.08526
         Item               Value     Threshold  Converged?
 Maximum Force            0.067096     0.000450     NO 
 RMS     Force            0.016641     0.000300     NO 
 Maximum Displacement     0.396040     0.001800     NO 
 RMS     Displacement     0.106825     0.001200     NO 
 Predicted change in Energy=-1.609721D-02
 GradGradGradGradGradGradGradGradGradGradGradGradGradGradGradGradGradGrad

                          Input orientation:                          
 ---------------------------------------------------------------------
 Center     Atomic      Atomic             Coordinates (Angstroms)
 Number     Number       Type             X           Y           Z
 ---------------------------------------------------------------------
      1          6           0       -0.501580    0.718388    0.639225
      2          1           0        0.018167   -0.230268    0.654526
      3          1           0       -1.580789    0.721680    0.585956
      4          6           0        0.252752    2.001282    0.767436
      5          1           0       -0.356182    2.742528    1.278071
      6          1           0        1.164875    1.849224    1.345445
      7          8           0        0.594406    2.548335   -0.542694
      8          1           0        1.140312    1.871710   -0.966752
 ---------------------------------------------------------------------
                    Distance matrix (angstroms):
                    1          2          3          4          5
     1  C    0.000000
     2  H    1.081813   0.000000
     3  H    1.080528   1.862141   0.000000
     4  C    1.493745   2.246686   2.243254   0.000000
     5  H    2.127536   3.060468   2.462217   1.086735   0.000000
     6  H    2.134153   2.473175   3.063796   1.090498   1.765261
     7  O    2.438611   3.079939   3.056467   1.460286   2.063133
     8  H    2.570043   2.882024   3.337343   1.952423   2.834969
                    6          7          8
     6  H    0.000000
     7  O    2.092669   0.000000
     8  H    2.312436   0.967295   0.000000
 Stoichiometry    C2H5O(2)
 Framework group  C1[X(C2H5O)]
 Deg. of freedom    18
 Full point group                 C1      NOp   1
 Largest Abelian subgroup         C1      NOp   1
 Largest concise Abelian subgroup C1      NOp   1
                         Standard orientation:                         
 ---------------------------------------------------------------------
 Center     Atomic      Atomic             Coordinates (Angstroms)
 Number     Number       Type             X           Y           Z
 ---------------------------------------------------------------------
      1          6           0       -1.242394   -0.246184   -0.032901
      2          1           0       -1.699452   -0.674085    0.849323
      3          1           0       -1.738859   -0.360455   -0.985794
      4          6           0        0.013506    0.555456    0.073694
      5          1           0        0.028942    1.327821   -0.690640
      6          1           0        0.074510    1.037461    1.049980
      7          8           0        1.194076   -0.279668   -0.129429
      8          1           0        1.155581   -0.949032    0.567801
 ---------------------------------------------------------------------
 Rotational constants (GHZ):     36.2126167      9.6338970      8.6178129
 Standard basis: 6-31+G(d,p) (6D, 7F)
 There are    82 symmetry adapted basis functions of A   symmetry.
 Integral buffers will be    262144 words long.
 Raffenetti 2 integral format.
 Two-electron integral symmetry is turned on.
    82 basis functions,   131 primitive gaussians,    82 cartesian basis functions
    13 alpha electrons       12 beta electrons
       nuclear repulsion energy        74.2677420746 Hartrees.
 NAtoms=    8 NActive=    8 NUniq=    8 SFac= 7.50D-01 NAtFMM=   80 NAOKFM=F Big=F
 One-electron integrals computed using PRISM.
 NBasis=    82 RedAO= T  NBF=    82
 NBsUse=    82 1.00D-06 NBFU=    82
 Initial guess read from the read-write file.
 B after Tr=     0.000000    0.000000    0.000000
         Rot=    1.000000    0.000000    0.000000    0.000000 Ang=   0.00 deg.
 Initial guess orbital symmetries:
 Alpha Orbitals:
       Occupied  (A) (A) (A) (A) (A) (A) (A) (A) (A) (A) (A) (A)
                 (A)
       Virtual   (A) (A) (A) (A) (A) (A) (A) (A) (A) (A) (A) (A)
                 (A) (A) (A) (A) (A) (A) (A) (A) (A) (A) (A) (A)
                 (A) (A) (A) (A) (A) (A) (A) (A) (A) (A) (A) (A)
                 (A) (A) (A) (A) (A) (A) (A) (A) (A) (A) (A) (A)
                 (A) (A) (A) (A) (A) (A) (A) (A) (A) (A) (A) (A)
                 (A) (A) (A) (A) (A) (A) (A) (A) (A)
 Beta  Orbitals:
       Occupied  (A) (A) (A) (A) (A) (A) (A) (A) (A) (A) (A) (A)
       Virtual   (A) (A) (A) (A) (A) (A) (A) (A) (A) (A) (A) (A)
                 (A) (A) (A) (A) (A) (A) (A) (A) (A) (A) (A) (A)
                 (A) (A) (A) (A) (A) (A) (A) (A) (A) (A) (A) (A)
                 (A) (A) (A) (A) (A) (A) (A) (A) (A) (A) (A) (A)
                 (A) (A) (A) (A) (A) (A) (A) (A) (A) (A) (A) (A)
                 (A) (A) (A) (A) (A) (A) (A) (A) (A) (A)
 Initial guess <Sx>= 0.0000 <Sy>= 0.0000 <Sz>= 0.5000 <S**2>= 0.7539 S= 0.5019
 Harris functional with IExCor=  402 diagonalized for initial guess.
 ExpMin= 4.38D-02 ExpMax= 5.48D+03 ExpMxC= 8.25D+02 IAcc=2 IRadAn=         0 AccDes= 0.00D+00
 HarFok:  IExCor=  402 AccDes= 0.00D+00 IRadAn=         0 IDoV= 1
 ScaDFX=  1.000000  1.000000  1.000000  1.000000
 FoFCou: FMM=F IPFlag=           0 FMFlag=      100000 FMFlg1=           0
         NFxFlg=           0 DoJE=T BraDBF=F KetDBF=T FulRan=T
         Omega=  0.000000  0.000000  1.000000  0.000000  0.000000 ICntrl=     500 IOpCl=  0
         NMat0=    1 NMatS0=    1 NMatT0=    0 NMatD0=    1 NMtDS0=    0 NMtDT0=    0
         I1Cent=           4 NGrid=           0.
 Petite list used in FoFCou.
 Requested convergence on RMS density matrix=1.00D-08 within 128 cycles.
 Requested convergence on MAX density matrix=1.00D-06.
 Requested convergence on             energy=1.00D-06.
 No special actions if energy rises.
 Keep R1 and R2 ints in memory in canonical form, NReq=12587765.
 SCF Done:  E(UB3LYP) =  -154.383432969     A.U. after   12 cycles
             Convg  =    0.3833D-08             -V/T =  2.0095
 <Sx>= 0.0000 <Sy>= 0.0000 <Sz>= 0.5000 <S**2>= 0.7540 S= 0.5020
 <L.S>= 0.000000000000E+00
 Annihilation of the first spin contaminant:
 S**2 before annihilation     0.7540,   after     0.7500
 Calling FoFJK, ICntrl=      2127 FMM=F ISym2X=0 I1Cent= 0 IOpClX= 1 NMat=1 NMatS=1 NMatT=0.
 ***** Axes restored to original set *****
 -------------------------------------------------------------------
 Center     Atomic                   Forces (Hartrees/Bohr)
 Number     Number              X              Y              Z
 -------------------------------------------------------------------
      1        6           0.002645953    0.004526821    0.005951085
      2        1           0.000390795   -0.003189570   -0.001501346
      3        1          -0.002855177   -0.001213379   -0.002696736
      4        6          -0.002529244   -0.007641510   -0.007717096
      5        1          -0.000614089    0.006388174   -0.002181683
      6        1           0.004539948    0.000767744    0.002669043
      7        8          -0.001322351   -0.001610875    0.008758907
      8        1          -0.000255835    0.001972594   -0.003282174
 -------------------------------------------------------------------
 Cartesian Forces:  Max     0.008758907 RMS     0.004014505

 GradGradGradGradGradGradGradGradGradGradGradGradGradGradGradGradGradGrad
 Berny optimization.
 Using GEDIIS/GDIIS optimizer.
 Internal  Forces:  Max     0.006915975 RMS     0.003039226
 Search for a local minimum.
 Step number   2 out of a maximum of   36
 All quantities printed in internal units (Hartrees-Bohrs-Radians)
 Mixed Optimization -- RFO/linear search
 Update second derivatives using D2CorX and points    1    2
 DE= -1.27D-02 DEPred=-1.61D-02 R= 7.89D-01
 SS=  1.41D+00  RLast= 3.00D-01 DXNew= 5.0454D-01 8.9997D-01
 Trust test= 7.89D-01 RLast= 3.00D-01 DXMaxT set to 5.05D-01
 Use linear search instead of GDIIS.
     Eigenvalues ---    0.01065   0.01074   0.01295   0.06292   0.07511
     Eigenvalues ---    0.11460   0.13940   0.15972   0.16000   0.20574
     Eigenvalues ---    0.21972   0.35184   0.36667   0.37230   0.37230
     Eigenvalues ---    0.37236   0.45595   0.557621000.000001000.00000
     Eigenvalues --- 1000.000001000.000001000.000001000.000001000.00000
     Eigenvalues --- 1000.00000
 RFO step:  Lambda=-2.10271410D-03 EMin= 1.06538939D-02
 Quartic linear search produced a step of  0.16752.
 Iteration  1 RMS(Cart)=  0.04658170 RMS(Int)=  0.00382387
 Iteration  2 RMS(Cart)=  0.00286201 RMS(Int)=  0.00222911
 Iteration  3 RMS(Cart)=  0.00000411 RMS(Int)=  0.00222911
 Iteration  4 RMS(Cart)=  0.00000001 RMS(Int)=  0.00222911
 Variable       Old X    -DE/DX   Delta X   Delta X   Delta X     New X
                                 (Linear)    (Quad)   (Total)
    R1        2.04433   0.00296   0.00374   0.00534   0.00908   2.05341
    R2        2.04190   0.00298   0.00333   0.00582   0.00916   2.05106
    R3        2.82277  -0.00035   0.00518  -0.00652  -0.00134   2.82143
    R4        2.05363   0.00367   0.00530   0.00594   0.01124   2.06487
    R5        2.06074   0.00511   0.00649   0.00916   0.01565   2.07640
    R6        2.75954  -0.00515   0.00959  -0.02450  -0.01492   2.74462
    R7        1.82792  -0.00009   0.00231  -0.00259  -0.00028   1.82764
    A1        2.07513  -0.00183  -0.00290  -0.00674  -0.01619   2.05894
    A2        2.10517   0.00094   0.00162   0.00854   0.00368   2.10885
    A3        2.10133   0.00102   0.00199   0.00877   0.00428   2.10561
    A4        1.92109   0.00316   0.00175   0.02276   0.02449   1.94557
    A5        1.92637   0.00033   0.00264   0.01714   0.01926   1.94563
    A6        1.94216   0.00371   0.00528   0.01286   0.01796   1.96011
    A7        1.89097  -0.00012  -0.00329   0.00326  -0.00077   1.89020
    A8        1.87249  -0.00670  -0.00639  -0.06265  -0.06904   1.80345
    A9        1.90931  -0.00066  -0.00022   0.00429   0.00344   1.91275
   A10        1.83725   0.00692   0.04464   0.00411   0.04875   1.88599
    D1       -2.58405  -0.00287  -0.00398  -0.10354  -0.10742  -2.69147
    D2       -0.49758  -0.00081  -0.00530  -0.07427  -0.07933  -0.57691
    D3        1.62566   0.00110  -0.00047  -0.04836  -0.04833   1.57733
    D4        0.49684  -0.00054   0.00532   0.10138   0.10625   0.60309
    D5        2.58331   0.00153   0.00399   0.13066   0.13434   2.71765
    D6       -1.57663   0.00343   0.00883   0.15657   0.16534  -1.41129
    D7       -1.04788   0.00018  -0.00011   0.01655   0.01630  -1.03158
    D8        3.13294  -0.00162  -0.00145   0.02085   0.01983  -3.13042
    D9        1.08526   0.00261   0.00638   0.04960   0.05569   1.14095
         Item               Value     Threshold  Converged?
 Maximum Force            0.006916     0.000450     NO 
 RMS     Force            0.003039     0.000300     NO 
 Maximum Displacement     0.133395     0.001800     NO 
 RMS     Displacement     0.046426     0.001200     NO 
 Predicted change in Energy=-1.143144D-03
 GradGradGradGradGradGradGradGradGradGradGradGradGradGradGradGradGradGrad

                          Input orientation:                          
 ---------------------------------------------------------------------
 Center     Atomic      Atomic             Coordinates (Angstroms)
 Number     Number       Type             X           Y           Z
 ---------------------------------------------------------------------
      1          6           0       -0.503397    0.708565    0.692162
      2          1           0        0.011951   -0.247370    0.655478
      3          1           0       -1.574243    0.716664    0.515367
      4          6           0        0.261691    1.987060    0.788301
      5          1           0       -0.333281    2.775027    1.256350
      6          1           0        1.185230    1.860436    1.369990
      7          8           0        0.580051    2.538476   -0.517084
      8          1           0        1.103958    1.884020   -0.999350
 ---------------------------------------------------------------------
                    Distance matrix (angstroms):
                    1          2          3          4          5
     1  C    0.000000
     2  H    1.086618   0.000000
     3  H    1.085373   1.861451   0.000000
     4  C    1.493034   2.252263   2.249234   0.000000
     5  H    2.148840   3.100825   2.515135   1.092683   0.000000
     6  H    2.153536   2.515940   3.106973   1.098781   1.776307
     7  O    2.446367   3.075480   3.004320   1.452392   2.008781
     8  H    2.612756   2.910972   3.290873   1.978819   2.819172
                    6          7          8
     6  H    0.000000
     7  O    2.094523   0.000000
     8  H    2.370851   0.967146   0.000000
 Stoichiometry    C2H5O(2)
 Framework group  C1[X(C2H5O)]
 Deg. of freedom    18
 Full point group                 C1      NOp   1
 Largest Abelian subgroup         C1      NOp   1
 Largest concise Abelian subgroup C1      NOp   1
                         Standard orientation:                         
 ---------------------------------------------------------------------
 Center     Atomic      Atomic             Coordinates (Angstroms)
 Number     Number       Type             X           Y           Z
 ---------------------------------------------------------------------
      1          6           0       -1.258432   -0.218639   -0.025608
      2          1           0       -1.707655   -0.651741    0.863977
      3          1           0       -1.681874   -0.482294   -0.989567
      4          6           0        0.015388    0.555452    0.059927
      5          1           0        0.100830    1.276563   -0.756561
      6          1           0        0.091866    1.100421    1.010969
      7          8           0        1.185375   -0.287380   -0.113877
      8          1           0        1.172100   -0.964785    0.576281
 ---------------------------------------------------------------------
 Rotational constants (GHZ):     36.2417866      9.6254256      8.6102013
 Standard basis: 6-31+G(d,p) (6D, 7F)
 There are    82 symmetry adapted basis functions of A   symmetry.
 Integral buffers will be    262144 words long.
 Raffenetti 2 integral format.
 Two-electron integral symmetry is turned on.
    82 basis functions,   131 primitive gaussians,    82 cartesian basis functions
    13 alpha electrons       12 beta electrons
       nuclear repulsion energy        74.2557390767 Hartrees.
 NAtoms=    8 NActive=    8 NUniq=    8 SFac= 7.50D-01 NAtFMM=   80 NAOKFM=F Big=F
 One-electron integrals computed using PRISM.
 NBasis=    82 RedAO= T  NBF=    82
 NBsUse=    82 1.00D-06 NBFU=    82
 Initial guess read from the read-write file.
 B after Tr=     0.000000    0.000000    0.000000
         Rot=    1.000000    0.000000    0.000000    0.000000 Ang=   0.00 deg.
 Initial guess orbital symmetries:
 Alpha Orbitals:
       Occupied  (A) (A) (A) (A) (A) (A) (A) (A) (A) (A) (A) (A)
                 (A)
       Virtual   (A) (A) (A) (A) (A) (A) (A) (A) (A) (A) (A) (A)
                 (A) (A) (A) (A) (A) (A) (A) (A) (A) (A) (A) (A)
                 (A) (A) (A) (A) (A) (A) (A) (A) (A) (A) (A) (A)
                 (A) (A) (A) (A) (A) (A) (A) (A) (A) (A) (A) (A)
                 (A) (A) (A) (A) (A) (A) (A) (A) (A) (A) (A) (A)
                 (A) (A) (A) (A) (A) (A) (A) (A) (A)
 Beta  Orbitals:
       Occupied  (A) (A) (A) (A) (A) (A) (A) (A) (A) (A) (A) (A)
       Virtual   (A) (A) (A) (A) (A) (A) (A) (A) (A) (A) (A) (A)
                 (A) (A) (A) (A) (A) (A) (A) (A) (A) (A) (A) (A)
                 (A) (A) (A) (A) (A) (A) (A) (A) (A) (A) (A) (A)
                 (A) (A) (A) (A) (A) (A) (A) (A) (A) (A) (A) (A)
                 (A) (A) (A) (A) (A) (A) (A) (A) (A) (A) (A) (A)
                 (A) (A) (A) (A) (A) (A) (A) (A) (A) (A)
 Initial guess <Sx>= 0.0000 <Sy>= 0.0000 <Sz>= 0.5000 <S**2>= 0.7540 S= 0.5020
 Harris functional with IExCor=  402 diagonalized for initial guess.
 ExpMin= 4.38D-02 ExpMax= 5.48D+03 ExpMxC= 8.25D+02 IAcc=2 IRadAn=         0 AccDes= 0.00D+00
 HarFok:  IExCor=  402 AccDes= 0.00D+00 IRadAn=         0 IDoV= 1
 ScaDFX=  1.000000  1.000000  1.000000  1.000000
 FoFCou: FMM=F IPFlag=           0 FMFlag=      100000 FMFlg1=           0
         NFxFlg=           0 DoJE=T BraDBF=F KetDBF=T FulRan=T
         Omega=  0.000000  0.000000  1.000000  0.000000  0.000000 ICntrl=     500 IOpCl=  0
         NMat0=    1 NMatS0=    1 NMatT0=    0 NMatD0=    1 NMtDS0=    0 NMtDT0=    0
         I1Cent=           4 NGrid=           0.
 Petite list used in FoFCou.
 Requested convergence on RMS density matrix=1.00D-08 within 128 cycles.
 Requested convergence on MAX density matrix=1.00D-06.
 Requested convergence on             energy=1.00D-06.
 No special actions if energy rises.
 Keep R1 and R2 ints in memory in canonical form, NReq=12587911.
 SCF Done:  E(UB3LYP) =  -154.384637776     A.U. after   12 cycles
             Convg  =    0.2862D-08             -V/T =  2.0097
 <Sx>= 0.0000 <Sy>= 0.0000 <Sz>= 0.5000 <S**2>= 0.7540 S= 0.5020
 <L.S>= 0.000000000000E+00
 Annihilation of the first spin contaminant:
 S**2 before annihilation     0.7540,   after     0.7500
 Calling FoFJK, ICntrl=      2127 FMM=F ISym2X=0 I1Cent= 0 IOpClX= 1 NMat=1 NMatS=1 NMatT=0.
 ***** Axes restored to original set *****
 -------------------------------------------------------------------
 Center     Atomic                   Forces (Hartrees/Bohr)
 Number     Number              X              Y              Z
 -------------------------------------------------------------------
      1        6           0.001785229    0.001919705    0.001072044
      2        1          -0.000212070    0.000006239    0.000237898
      3        1           0.000283676    0.000127412   -0.000771199
      4        6          -0.001180538    0.000480200   -0.002244405
      5        1          -0.000384040   -0.000683377    0.001524888
      6        1          -0.000408467   -0.000553981   -0.000095397
      7        8           0.000377365   -0.001378988    0.000782543
      8        1          -0.000261156    0.000082790   -0.000506372
 -------------------------------------------------------------------
 Cartesian Forces:  Max     0.002244405 RMS     0.000954959

 GradGradGradGradGradGradGradGradGradGradGradGradGradGradGradGradGradGrad
 Berny optimization.
 Using GEDIIS/GDIIS optimizer.
 Internal  Forces:  Max     0.002744709 RMS     0.000772873
 Search for a local minimum.
 Step number   3 out of a maximum of   36
 All quantities printed in internal units (Hartrees-Bohrs-Radians)
 Mixed Optimization -- En-DIIS/RFO-DIIS
 Update second derivatives using D2CorX and points    1    2    3
 DE= -1.20D-03 DEPred=-1.14D-03 R= 1.05D+00
 SS=  1.41D+00  RLast= 3.00D-01 DXNew= 8.4853D-01 9.0053D-01
 Trust test= 1.05D+00 RLast= 3.00D-01 DXMaxT set to 8.49D-01
 Use linear search instead of GDIIS.
     Eigenvalues ---    0.00944   0.01120   0.01287   0.06312   0.07584
     Eigenvalues ---    0.12556   0.13967   0.15885   0.16039   0.18461
     Eigenvalues ---    0.22340   0.35270   0.37047   0.37230   0.37232
     Eigenvalues ---    0.37427   0.45817   0.557651000.000001000.00000
     Eigenvalues --- 1000.000001000.000001000.000001000.000001000.00000
     Eigenvalues --- 1000.00000
 RFO step:  Lambda=-1.59001042D-04 EMin= 9.44378280D-03
 Quartic linear search produced a step of  0.00190.
 Iteration  1 RMS(Cart)=  0.01801099 RMS(Int)=  0.00033165
 Iteration  2 RMS(Cart)=  0.00027404 RMS(Int)=  0.00008448
 Iteration  3 RMS(Cart)=  0.00000006 RMS(Int)=  0.00008448
 Variable       Old X    -DE/DX   Delta X   Delta X   Delta X     New X
                                 (Linear)    (Quad)   (Total)
    R1        2.05341  -0.00011   0.00002   0.00019   0.00020   2.05361
    R2        2.05106  -0.00015   0.00002   0.00009   0.00011   2.05116
    R3        2.82143  -0.00274   0.00000  -0.00798  -0.00798   2.81344
    R4        2.06487   0.00037   0.00002   0.00159   0.00161   2.06648
    R5        2.07640  -0.00033   0.00003  -0.00003   0.00000   2.07639
    R6        2.74462  -0.00071  -0.00003  -0.00269  -0.00272   2.74190
    R7        1.82764   0.00005   0.00000   0.00006   0.00006   1.82770
    A1        2.05894  -0.00003  -0.00003  -0.00260  -0.00288   2.05606
    A2        2.10885   0.00032   0.00001   0.00073   0.00050   2.10934
    A3        2.10561  -0.00033   0.00001  -0.00333  -0.00357   2.10204
    A4        1.94557  -0.00054   0.00005  -0.00190  -0.00187   1.94371
    A5        1.94563  -0.00060   0.00004  -0.00708  -0.00706   1.93857
    A6        1.96011  -0.00073   0.00003  -0.00151  -0.00148   1.95863
    A7        1.89020  -0.00001   0.00000  -0.00150  -0.00154   1.88866
    A8        1.80345   0.00148  -0.00013   0.01076   0.01062   1.81407
    A9        1.91275   0.00057   0.00001   0.00255   0.00254   1.91529
   A10        1.88599   0.00080   0.00009   0.00740   0.00749   1.89349
    D1       -2.69147   0.00076  -0.00020   0.01612   0.01592  -2.67555
    D2       -0.57691  -0.00005  -0.00015   0.00793   0.00780  -0.56911
    D3        1.57733  -0.00029  -0.00009   0.00484   0.00476   1.58209
    D4        0.60309   0.00109   0.00020   0.05664   0.05682   0.65991
    D5        2.71765   0.00028   0.00026   0.04845   0.04869   2.76635
    D6       -1.41129   0.00004   0.00031   0.04535   0.04566  -1.36564
    D7       -1.03158   0.00047   0.00003   0.02241   0.02245  -1.00913
    D8       -3.13042   0.00059   0.00004   0.01887   0.01892  -3.11150
    D9        1.14095  -0.00040   0.00011   0.01406   0.01415   1.15510
         Item               Value     Threshold  Converged?
 Maximum Force            0.002745     0.000450     NO 
 RMS     Force            0.000773     0.000300     NO 
 Maximum Displacement     0.062380     0.001800     NO 
 RMS     Displacement     0.018060     0.001200     NO 
 Predicted change in Energy=-8.005686D-05
 GradGradGradGradGradGradGradGradGradGradGradGradGradGradGradGradGradGrad

                          Input orientation:                          
 ---------------------------------------------------------------------
 Center     Atomic      Atomic             Coordinates (Angstroms)
 Number     Number       Type             X           Y           Z
 ---------------------------------------------------------------------
      1          6           0       -0.499681    0.713201    0.700050
      2          1           0        0.015902   -0.242945    0.669500
      3          1           0       -1.563017    0.722208    0.482356
      4          6           0        0.262219    1.988982    0.791966
      5          1           0       -0.330969    2.773760    1.269533
      6          1           0        1.186340    1.856372    1.371389
      7          8           0        0.577301    2.535312   -0.514752
      8          1           0        1.083865    1.875988   -1.008830
 ---------------------------------------------------------------------
                    Distance matrix (angstroms):
                    1          2          3          4          5
     1  C    0.000000
     2  H    1.086726   0.000000
     3  H    1.085429   1.859981   0.000000
     4  C    1.488810   2.248814   2.243226   0.000000
     5  H    2.144453   3.095298   2.519217   1.093535   0.000000
     6  H    2.144808   2.503938   3.104138   1.098780   1.776008
     7  O    2.440435   3.071861   2.977001   1.450953   2.016305
     8  H    2.603836   2.906409   3.249743   1.982608   2.828195
                    6          7          8
     6  H    0.000000
     7  O    2.095093   0.000000
     8  H    2.382505   0.967175   0.000000
 Stoichiometry    C2H5O(2)
 Framework group  C1[X(C2H5O)]
 Deg. of freedom    18
 Full point group                 C1      NOp   1
 Largest Abelian subgroup         C1      NOp   1
 Largest concise Abelian subgroup C1      NOp   1
                         Standard orientation:                         
 ---------------------------------------------------------------------
 Center     Atomic      Atomic             Coordinates (Angstroms)
 Number     Number       Type             X           Y           Z
 ---------------------------------------------------------------------
      1          6           0       -1.255019   -0.216616   -0.025236
      2          1           0       -1.708475   -0.636044    0.868873
      3          1           0       -1.651075   -0.526900   -0.987015
      4          6           0        0.014263    0.557512    0.053543
      5          1           0        0.093802    1.276752   -0.766327
      6          1           0        0.082698    1.108596    1.001667
      7          8           0        1.183002   -0.287049   -0.107802
      8          1           0        1.163565   -0.971388    0.575375
 ---------------------------------------------------------------------
 Rotational constants (GHZ):     36.1379176      9.6884493      8.6474841
 Standard basis: 6-31+G(d,p) (6D, 7F)
 There are    82 symmetry adapted basis functions of A   symmetry.
 Integral buffers will be    262144 words long.
 Raffenetti 2 integral format.
 Two-electron integral symmetry is turned on.
    82 basis functions,   131 primitive gaussians,    82 cartesian basis functions
    13 alpha electrons       12 beta electrons
       nuclear repulsion energy        74.3559118013 Hartrees.
 NAtoms=    8 NActive=    8 NUniq=    8 SFac= 7.50D-01 NAtFMM=   80 NAOKFM=F Big=F
 One-electron integrals computed using PRISM.
 NBasis=    82 RedAO= T  NBF=    82
 NBsUse=    82 1.00D-06 NBFU=    82
 Initial guess read from the read-write file.
 B after Tr=     0.000000    0.000000    0.000000
         Rot=    1.000000    0.000000    0.000000    0.000000 Ang=   0.00 deg.
 Initial guess orbital symmetries:
 Alpha Orbitals:
       Occupied  (A) (A) (A) (A) (A) (A) (A) (A) (A) (A) (A) (A)
                 (A)
       Virtual   (A) (A) (A) (A) (A) (A) (A) (A) (A) (A) (A) (A)
                 (A) (A) (A) (A) (A) (A) (A) (A) (A) (A) (A) (A)
                 (A) (A) (A) (A) (A) (A) (A) (A) (A) (A) (A) (A)
                 (A) (A) (A) (A) (A) (A) (A) (A) (A) (A) (A) (A)
                 (A) (A) (A) (A) (A) (A) (A) (A) (A) (A) (A) (A)
                 (A) (A) (A) (A) (A) (A) (A) (A) (A)
 Beta  Orbitals:
       Occupied  (A) (A) (A) (A) (A) (A) (A) (A) (A) (A) (A) (A)
       Virtual   (A) (A) (A) (A) (A) (A) (A) (A) (A) (A) (A) (A)
                 (A) (A) (A) (A) (A) (A) (A) (A) (A) (A) (A) (A)
                 (A) (A) (A) (A) (A) (A) (A) (A) (A) (A) (A) (A)
                 (A) (A) (A) (A) (A) (A) (A) (A) (A) (A) (A) (A)
                 (A) (A) (A) (A) (A) (A) (A) (A) (A) (A) (A) (A)
                 (A) (A) (A) (A) (A) (A) (A) (A) (A) (A)
 Initial guess <Sx>= 0.0000 <Sy>= 0.0000 <Sz>= 0.5000 <S**2>= 0.7540 S= 0.5020
 Harris functional with IExCor=  402 diagonalized for initial guess.
 ExpMin= 4.38D-02 ExpMax= 5.48D+03 ExpMxC= 8.25D+02 IAcc=2 IRadAn=         0 AccDes= 0.00D+00
 HarFok:  IExCor=  402 AccDes= 0.00D+00 IRadAn=         0 IDoV= 1
 ScaDFX=  1.000000  1.000000  1.000000  1.000000
 FoFCou: FMM=F IPFlag=           0 FMFlag=      100000 FMFlg1=           0
         NFxFlg=           0 DoJE=T BraDBF=F KetDBF=T FulRan=T
         Omega=  0.000000  0.000000  1.000000  0.000000  0.000000 ICntrl=     500 IOpCl=  0
         NMat0=    1 NMatS0=    1 NMatT0=    0 NMatD0=    1 NMtDS0=    0 NMtDT0=    0
         I1Cent=           4 NGrid=           0.
 Petite list used in FoFCou.
 Requested convergence on RMS density matrix=1.00D-08 within 128 cycles.
 Requested convergence on MAX density matrix=1.00D-06.
 Requested convergence on             energy=1.00D-06.
 No special actions if energy rises.
 Keep R1 and R2 ints in memory in canonical form, NReq=12587765.
 SCF Done:  E(UB3LYP) =  -154.384745046     A.U. after   11 cycles
             Convg  =    0.3248D-08             -V/T =  2.0096
 <Sx>= 0.0000 <Sy>= 0.0000 <Sz>= 0.5000 <S**2>= 0.7540 S= 0.5020
 <L.S>= 0.000000000000E+00
 Annihilation of the first spin contaminant:
 S**2 before annihilation     0.7540,   after     0.7500
 Calling FoFJK, ICntrl=      2127 FMM=F ISym2X=0 I1Cent= 0 IOpClX= 1 NMat=1 NMatS=1 NMatT=0.
 ***** Axes restored to original set *****
 -------------------------------------------------------------------
 Center     Atomic                   Forces (Hartrees/Bohr)
 Number     Number              X              Y              Z
 -------------------------------------------------------------------
      1        6           0.000157804   -0.000145241   -0.000218405
      2        1          -0.000195364    0.000003664    0.000548839
      3        1           0.000064943    0.000031630   -0.000420222
      4        6           0.000489896    0.000321190   -0.000761698
      5        1           0.000104467   -0.000288431    0.000287347
      6        1          -0.000109917    0.000102906   -0.000191818
      7        8          -0.000212228    0.000247826    0.000495818
      8        1          -0.000299600   -0.000273544    0.000260140
 -------------------------------------------------------------------
 Cartesian Forces:  Max     0.000761698 RMS     0.000313511

 GradGradGradGradGradGradGradGradGradGradGradGradGradGradGradGradGradGrad
 Berny optimization.
 Using GEDIIS/GDIIS optimizer.
 Internal  Forces:  Max     0.000799851 RMS     0.000277103
 Search for a local minimum.
 Step number   4 out of a maximum of   36
 All quantities printed in internal units (Hartrees-Bohrs-Radians)
 Mixed Optimization -- En-DIIS/RFO-DIIS
 Swaping is turned off.
 Update second derivatives using D2CorX and points    1    2    3    4
 DE= -1.07D-04 DEPred=-8.01D-05 R= 1.34D+00
 SS=  1.41D+00  RLast= 9.70D-02 DXNew= 1.4270D+00 2.9104D-01
 Trust test= 1.34D+00 RLast= 9.70D-02 DXMaxT set to 8.49D-01
     Eigenvalues ---    0.00450   0.01267   0.01344   0.06480   0.07583
     Eigenvalues ---    0.12472   0.14080   0.15826   0.15995   0.20915
     Eigenvalues ---    0.22526   0.36632   0.37105   0.37225   0.37230
     Eigenvalues ---    0.38888   0.45535   0.557831000.000001000.00000
     Eigenvalues --- 1000.000001000.000001000.000001000.000001000.00000
     Eigenvalues --- 1000.00000
 En-DIIS/RFO-DIIS IScMMF=        0 using points:     4    3
 RFO step:  Lambda=-1.02312161D-05.
 DIIS coeffs:      1.50792     -0.50792
 Iteration  1 RMS(Cart)=  0.02873343 RMS(Int)=  0.00066372
 Iteration  2 RMS(Cart)=  0.00064799 RMS(Int)=  0.00006125
 Iteration  3 RMS(Cart)=  0.00000029 RMS(Int)=  0.00006125
 Variable       Old X    -DE/DX   Delta X   Delta X   Delta X     New X
                                  (DIIS)     (GDIIS)  (Total)
    R1        2.05361  -0.00011   0.00010   0.00009   0.00020   2.05381
    R2        2.05116   0.00002   0.00005   0.00060   0.00065   2.05182
    R3        2.81344   0.00009  -0.00405   0.00051  -0.00354   2.80990
    R4        2.06648  -0.00014   0.00082   0.00018   0.00099   2.06748
    R5        2.07639  -0.00020   0.00000   0.00011   0.00010   2.07650
    R6        2.74190  -0.00080  -0.00138  -0.00287  -0.00425   2.73765
    R7        1.82770  -0.00011   0.00003  -0.00016  -0.00013   1.82757
    A1        2.05606  -0.00006  -0.00146  -0.00127  -0.00291   2.05315
    A2        2.10934   0.00023   0.00025   0.00251   0.00258   2.11193
    A3        2.10204  -0.00016  -0.00181  -0.00123  -0.00322   2.09882
    A4        1.94371  -0.00008  -0.00095  -0.00066  -0.00162   1.94209
    A5        1.93857   0.00008  -0.00358   0.00169  -0.00190   1.93667
    A6        1.95863  -0.00018  -0.00075   0.00007  -0.00069   1.95794
    A7        1.88866  -0.00009  -0.00078  -0.00199  -0.00280   1.88587
    A8        1.81407   0.00014   0.00539  -0.00154   0.00385   1.81792
    A9        1.91529   0.00013   0.00129   0.00218   0.00347   1.91875
   A10        1.89349  -0.00071   0.00381  -0.00131   0.00249   1.89598
    D1       -2.67555   0.00037   0.00809   0.04167   0.04976  -2.62579
    D2       -0.56911   0.00026   0.00396   0.03984   0.04382  -0.52529
    D3        1.58209   0.00036   0.00242   0.04399   0.04642   1.62852
    D4        0.65991   0.00028   0.02886   0.04177   0.07061   0.73052
    D5        2.76635   0.00018   0.02473   0.03995   0.06468   2.83102
    D6       -1.36564   0.00027   0.02319   0.04409   0.06728  -1.29836
    D7       -1.00913   0.00010   0.01140   0.01781   0.02922  -0.97991
    D8       -3.11150   0.00020   0.00961   0.01953   0.02915  -3.08235
    D9        1.15510   0.00017   0.00719   0.02164   0.02882   1.18391
         Item               Value     Threshold  Converged?
 Maximum Force            0.000800     0.000450     NO 
 RMS     Force            0.000277     0.000300     YES
 Maximum Displacement     0.097701     0.001800     NO 
 RMS     Displacement     0.028768     0.001200     NO 
 Predicted change in Energy=-5.658653D-05
 GradGradGradGradGradGradGradGradGradGradGradGradGradGradGradGradGradGrad

                          Input orientation:                          
 ---------------------------------------------------------------------
 Center     Atomic      Atomic             Coordinates (Angstroms)
 Number     Number       Type             X           Y           Z
 ---------------------------------------------------------------------
      1          6           0       -0.496101    0.716038    0.702845
      2          1           0        0.013798   -0.243745    0.707444
      3          1           0       -1.547151    0.726670    0.430655
      4          6           0        0.266691    1.989042    0.795484
      5          1           0       -0.322943    2.770452    1.284055
      6          1           0        1.192783    1.851453    1.370691
      7          8           0        0.572688    2.539499   -0.509163
      8          1           0        1.052194    1.873468   -1.020800
 ---------------------------------------------------------------------
                    Distance matrix (angstroms):
                    1          2          3          4          5
     1  C    0.000000
     2  H    1.086830   0.000000
     3  H    1.085775   1.858731   0.000000
     4  C    1.486934   2.248787   2.239800   0.000000
     5  H    2.142057   3.087273   2.530617   1.094062   0.000000
     6  H    2.141848   2.493944   3.107417   1.098835   1.774679
     7  O    2.436448   3.088516   2.943352   1.448703   2.017703
     8  H    2.589944   2.923642   3.190370   1.982236   2.829830
                    6          7          8
     6  H    0.000000
     7  O    2.095656   0.000000
     8  H    2.395721   0.967107   0.000000
 Stoichiometry    C2H5O(2)
 Framework group  C1[X(C2H5O)]
 Deg. of freedom    18
 Full point group                 C1      NOp   1
 Largest Abelian subgroup         C1      NOp   1
 Largest concise Abelian subgroup C1      NOp   1
                         Standard orientation:                         
 ---------------------------------------------------------------------
 Center     Atomic      Atomic             Coordinates (Angstroms)
 Number     Number       Type             X           Y           Z
 ---------------------------------------------------------------------
      1          6           0       -1.252686   -0.215315   -0.024761
      2          1           0       -1.734544   -0.577868    0.879433
      3          1           0       -1.609970   -0.600461   -0.974981
      4          6           0        0.014838    0.559330    0.040692
      5          1           0        0.094730    1.261140   -0.794802
      6          1           0        0.076528    1.134030    0.975226
      7          8           0        1.181629   -0.288437   -0.095810
      8          1           0        1.147316   -0.973436    0.586021
 ---------------------------------------------------------------------
 Rotational constants (GHZ):     36.1045471      9.7350132      8.6703035
 Standard basis: 6-31+G(d,p) (6D, 7F)
 There are    82 symmetry adapted basis functions of A   symmetry.
 Integral buffers will be    262144 words long.
 Raffenetti 2 integral format.
 Two-electron integral symmetry is turned on.
    82 basis functions,   131 primitive gaussians,    82 cartesian basis functions
    13 alpha electrons       12 beta electrons
       nuclear repulsion energy        74.4345843444 Hartrees.
 NAtoms=    8 NActive=    8 NUniq=    8 SFac= 7.50D-01 NAtFMM=   80 NAOKFM=F Big=F
 One-electron integrals computed using PRISM.
 NBasis=    82 RedAO= T  NBF=    82
 NBsUse=    82 1.00D-06 NBFU=    82
 Initial guess read from the read-write file.
 B after Tr=     0.000000    0.000000    0.000000
         Rot=    1.000000    0.000000    0.000000    0.000000 Ang=   0.00 deg.
 Initial guess orbital symmetries:
 Alpha Orbitals:
       Occupied  (A) (A) (A) (A) (A) (A) (A) (A) (A) (A) (A) (A)
                 (A)
       Virtual   (A) (A) (A) (A) (A) (A) (A) (A) (A) (A) (A) (A)
                 (A) (A) (A) (A) (A) (A) (A) (A) (A) (A) (A) (A)
                 (A) (A) (A) (A) (A) (A) (A) (A) (A) (A) (A) (A)
                 (A) (A) (A) (A) (A) (A) (A) (A) (A) (A) (A) (A)
                 (A) (A) (A) (A) (A) (A) (A) (A) (A) (A) (A) (A)
                 (A) (A) (A) (A) (A) (A) (A) (A) (A)
 Beta  Orbitals:
       Occupied  (A) (A) (A) (A) (A) (A) (A) (A) (A) (A) (A) (A)
       Virtual   (A) (A) (A) (A) (A) (A) (A) (A) (A) (A) (A) (A)
                 (A) (A) (A) (A) (A) (A) (A) (A) (A) (A) (A) (A)
                 (A) (A) (A) (A) (A) (A) (A) (A) (A) (A) (A) (A)
                 (A) (A) (A) (A) (A) (A) (A) (A) (A) (A) (A) (A)
                 (A) (A) (A) (A) (A) (A) (A) (A) (A) (A) (A) (A)
                 (A) (A) (A) (A) (A) (A) (A) (A) (A) (A)
 Initial guess <Sx>= 0.0000 <Sy>= 0.0000 <Sz>= 0.5000 <S**2>= 0.7540 S= 0.5020
 Harris functional with IExCor=  402 diagonalized for initial guess.
 ExpMin= 4.38D-02 ExpMax= 5.48D+03 ExpMxC= 8.25D+02 IAcc=2 IRadAn=         0 AccDes= 0.00D+00
 HarFok:  IExCor=  402 AccDes= 0.00D+00 IRadAn=         0 IDoV= 1
 ScaDFX=  1.000000  1.000000  1.000000  1.000000
 FoFCou: FMM=F IPFlag=           0 FMFlag=      100000 FMFlg1=           0
         NFxFlg=           0 DoJE=T BraDBF=F KetDBF=T FulRan=T
         Omega=  0.000000  0.000000  1.000000  0.000000  0.000000 ICntrl=     500 IOpCl=  0
         NMat0=    1 NMatS0=    1 NMatT0=    0 NMatD0=    1 NMtDS0=    0 NMtDT0=    0
         I1Cent=           4 NGrid=           0.
 Petite list used in FoFCou.
 Requested convergence on RMS density matrix=1.00D-08 within 128 cycles.
 Requested convergence on MAX density matrix=1.00D-06.
 Requested convergence on             energy=1.00D-06.
 No special actions if energy rises.
 Keep R1 and R2 ints in memory in canonical form, NReq=12587765.
 SCF Done:  E(UB3LYP) =  -154.384840029     A.U. after   10 cycles
             Convg  =    0.8766D-08             -V/T =  2.0096
 <Sx>= 0.0000 <Sy>= 0.0000 <Sz>= 0.5000 <S**2>= 0.7540 S= 0.5020
 <L.S>= 0.000000000000E+00
 Annihilation of the first spin contaminant:
 S**2 before annihilation     0.7540,   after     0.7500
 Calling FoFJK, ICntrl=      2127 FMM=F ISym2X=0 I1Cent= 0 IOpClX= 1 NMat=1 NMatS=1 NMatT=0.
 ***** Axes restored to original set *****
 -------------------------------------------------------------------
 Center     Atomic                   Forces (Hartrees/Bohr)
 Number     Number              X              Y              Z
 -------------------------------------------------------------------
      1        6          -0.000571927   -0.001443770   -0.001048081
      2        1          -0.000159641    0.000121331    0.000778702
      3        1           0.000070292    0.000167598   -0.000102761
      4        6           0.000940144    0.000284087    0.000557809
      5        1           0.000185075   -0.000020081   -0.000170427
      6        1           0.000012574    0.000234070   -0.000396616
      7        8          -0.000304466    0.001080824   -0.000107205
      8        1          -0.000172050   -0.000424058    0.000488579
 -------------------------------------------------------------------
 Cartesian Forces:  Max     0.001443770 RMS     0.000557988

 GradGradGradGradGradGradGradGradGradGradGradGradGradGradGradGradGradGrad
 Berny optimization.
 Using GEDIIS/GDIIS optimizer.
 Internal  Forces:  Max     0.001351083 RMS     0.000419719
 Search for a local minimum.
 Step number   5 out of a maximum of   36
 All quantities printed in internal units (Hartrees-Bohrs-Radians)
 Mixed Optimization -- En-DIIS/RFO-DIIS
 Swaping is turned off.
 Update second derivatives using D2CorX and points    2    3    4    5
 DE= -9.50D-05 DEPred=-5.66D-05 R= 1.68D+00
 SS=  1.41D+00  RLast= 1.51D-01 DXNew= 1.4270D+00 4.5383D-01
 Trust test= 1.68D+00 RLast= 1.51D-01 DXMaxT set to 8.49D-01
     Eigenvalues ---    0.00132   0.01268   0.01627   0.06513   0.07804
     Eigenvalues ---    0.12774   0.14061   0.15813   0.16085   0.21179
     Eigenvalues ---    0.24374   0.36726   0.37212   0.37226   0.37267
     Eigenvalues ---    0.45138   0.50251   0.557711000.000001000.00000
     Eigenvalues --- 1000.000001000.000001000.000001000.000001000.00000
     Eigenvalues --- 1000.00000
 En-DIIS/RFO-DIIS IScMMF=        0 using points:     5    4    3
 RFO step:  Lambda=-1.59760513D-05.
 DIIS coeffs:      3.68073     -3.35214      0.67142
 Iteration  1 RMS(Cart)=  0.09217643 RMS(Int)=  0.00655678
 Iteration  2 RMS(Cart)=  0.00678160 RMS(Int)=  0.00006167
 Iteration  3 RMS(Cart)=  0.00002989 RMS(Int)=  0.00005334
 Iteration  4 RMS(Cart)=  0.00000000 RMS(Int)=  0.00005334
 Variable       Old X    -DE/DX   Delta X   Delta X   Delta X     New X
                                  (DIIS)     (GDIIS)  (Total)
    R1        2.05381  -0.00018   0.00039  -0.00058  -0.00019   2.05362
    R2        2.05182  -0.00004   0.00168  -0.00042   0.00126   2.05308
    R3        2.80990   0.00135  -0.00414   0.00035  -0.00379   2.80610
    R4        2.06748  -0.00019   0.00158   0.00165   0.00323   2.07071
    R5        2.07650  -0.00023   0.00028  -0.00072  -0.00044   2.07606
    R6        2.73765  -0.00019  -0.00957   0.00017  -0.00940   2.72825
    R7        1.82757  -0.00005  -0.00039   0.00038  -0.00001   1.82756
    A1        2.05315   0.00013  -0.00587   0.00389  -0.00183   2.05132
    A2        2.11193   0.00018   0.00660   0.00516   0.01191   2.12383
    A3        2.09882  -0.00024  -0.00624  -0.00337  -0.00946   2.08936
    A4        1.94209   0.00010  -0.00309   0.00008  -0.00301   1.93908
    A5        1.93667   0.00025  -0.00036  -0.00263  -0.00300   1.93367
    A6        1.95794   0.00014  -0.00085   0.00041  -0.00043   1.95751
    A7        1.88587  -0.00001  -0.00646   0.00106  -0.00541   1.88045
    A8        1.81792  -0.00038   0.00318   0.00220   0.00538   1.82330
    A9        1.91875  -0.00015   0.00758  -0.00079   0.00680   1.92556
   A10        1.89598  -0.00119   0.00165  -0.00088   0.00078   1.89676
    D1       -2.62579   0.00027   0.12270   0.07573   0.19842  -2.42737
    D2       -0.52529   0.00050   0.11223   0.07535   0.18758  -0.33771
    D3        1.62852   0.00059   0.12125   0.07267   0.19390   1.82241
    D4        0.73052  -0.00012   0.15114   0.04409   0.19524   0.92576
    D5        2.83102   0.00011   0.14068   0.04370   0.18440   3.01543
    D6       -1.29836   0.00020   0.14970   0.04102   0.19072  -1.10764
    D7       -0.97991  -0.00004   0.06325   0.01912   0.08235  -0.89756
    D8       -3.08235   0.00000   0.06543   0.01743   0.08286  -2.99949
    D9        1.18391   0.00027   0.06775   0.01542   0.08318   1.26709
         Item               Value     Threshold  Converged?
 Maximum Force            0.001351     0.000450     NO 
 RMS     Force            0.000420     0.000300     NO 
 Maximum Displacement     0.288447     0.001800     NO 
 RMS     Displacement     0.092266     0.001200     NO 
 Predicted change in Energy=-1.097458D-04
 GradGradGradGradGradGradGradGradGradGradGradGradGradGradGradGradGradGrad

                          Input orientation:                          
 ---------------------------------------------------------------------
 Center     Atomic      Atomic             Coordinates (Angstroms)
 Number     Number       Type             X           Y           Z
 ---------------------------------------------------------------------
      1          6           0       -0.485980    0.719747    0.697740
      2          1           0       -0.013932   -0.247678    0.846885
      3          1           0       -1.488018    0.730240    0.278015
      4          6           0        0.281761    1.986553    0.801580
      5          1           0       -0.296249    2.756356    1.325050
      6          1           0        1.215608    1.831995    1.359227
      7          8           0        0.560020    2.562267   -0.492823
      8          1           0        0.958750    1.883398   -1.054461
 ---------------------------------------------------------------------
                    Distance matrix (angstroms):
                    1          2          3          4          5
     1  C    0.000000
     2  H    1.086731   0.000000
     3  H    1.086443   1.858188   0.000000
     4  C    1.484927   2.254169   2.232612   0.000000
     5  H    2.139461   3.054925   2.573274   1.095770   0.000000
     6  H    2.137770   2.469676   3.113273   1.098603   1.772378
     7  O    2.430316   3.165443   2.853940   1.443729   2.018794
     8  H    2.551771   3.017070   3.015284   1.978343   2.828277
                    6          7          8
     6  H    0.000000
     7  O    2.095992   0.000000
     8  H    2.427860   0.967102   0.000000
 Stoichiometry    C2H5O(2)
 Framework group  C1[X(C2H5O)]
 Deg. of freedom    18
 Full point group                 C1      NOp   1
 Largest Abelian subgroup         C1      NOp   1
 Largest concise Abelian subgroup C1      NOp   1
                         Standard orientation:                         
 ---------------------------------------------------------------------
 Center     Atomic      Atomic             Coordinates (Angstroms)
 Number     Number       Type             X           Y           Z
 ---------------------------------------------------------------------
      1          6           0       -1.246865   -0.219614   -0.024179
      2          1           0       -1.841521   -0.374942    0.872059
      3          1           0       -1.494280   -0.812836   -0.900097
      4          6           0        0.015961    0.561106    0.003238
      5          1           0        0.099371    1.207439   -0.877676
      6          1           0        0.058704    1.202383    0.894229
      7          8           0        1.182234   -0.287495   -0.060298
      8          1           0        1.105276   -0.971029    0.619515
 ---------------------------------------------------------------------
 Rotational constants (GHZ):     36.2507261      9.8196561      8.6830314
 Standard basis: 6-31+G(d,p) (6D, 7F)
 There are    82 symmetry adapted basis functions of A   symmetry.
 Integral buffers will be    262144 words long.
 Raffenetti 2 integral format.
 Two-electron integral symmetry is turned on.
    82 basis functions,   131 primitive gaussians,    82 cartesian basis functions
    13 alpha electrons       12 beta electrons
       nuclear repulsion energy        74.5725873799 Hartrees.
 NAtoms=    8 NActive=    8 NUniq=    8 SFac= 7.50D-01 NAtFMM=   80 NAOKFM=F Big=F
 One-electron integrals computed using PRISM.
 NBasis=    82 RedAO= T  NBF=    82
 NBsUse=    82 1.00D-06 NBFU=    82
 Initial guess read from the read-write file.
 B after Tr=     0.000000    0.000000    0.000000
         Rot=    1.000000    0.000000    0.000000    0.000000 Ang=   0.00 deg.
 Initial guess orbital symmetries:
 Alpha Orbitals:
       Occupied  (A) (A) (A) (A) (A) (A) (A) (A) (A) (A) (A) (A)
                 (A)
       Virtual   (A) (A) (A) (A) (A) (A) (A) (A) (A) (A) (A) (A)
                 (A) (A) (A) (A) (A) (A) (A) (A) (A) (A) (A) (A)
                 (A) (A) (A) (A) (A) (A) (A) (A) (A) (A) (A) (A)
                 (A) (A) (A) (A) (A) (A) (A) (A) (A) (A) (A) (A)
                 (A) (A) (A) (A) (A) (A) (A) (A) (A) (A) (A) (A)
                 (A) (A) (A) (A) (A) (A) (A) (A) (A)
 Beta  Orbitals:
       Occupied  (A) (A) (A) (A) (A) (A) (A) (A) (A) (A) (A) (A)
       Virtual   (A) (A) (A) (A) (A) (A) (A) (A) (A) (A) (A) (A)
                 (A) (A) (A) (A) (A) (A) (A) (A) (A) (A) (A) (A)
                 (A) (A) (A) (A) (A) (A) (A) (A) (A) (A) (A) (A)
                 (A) (A) (A) (A) (A) (A) (A) (A) (A) (A) (A) (A)
                 (A) (A) (A) (A) (A) (A) (A) (A) (A) (A) (A) (A)
                 (A) (A) (A) (A) (A) (A) (A) (A) (A) (A)
 Initial guess <Sx>= 0.0000 <Sy>= 0.0000 <Sz>= 0.5000 <S**2>= 0.7540 S= 0.5020
 Harris functional with IExCor=  402 diagonalized for initial guess.
 ExpMin= 4.38D-02 ExpMax= 5.48D+03 ExpMxC= 8.25D+02 IAcc=2 IRadAn=         0 AccDes= 0.00D+00
 HarFok:  IExCor=  402 AccDes= 0.00D+00 IRadAn=         0 IDoV= 1
 ScaDFX=  1.000000  1.000000  1.000000  1.000000
[...]
                     A                      A                      A
 Frequencies --   549.6176               822.6834               953.0555
 Red. masses --     1.3808                 1.2988                 2.9477
 Frc consts  --     0.2457                 0.5179                 1.5775
 IR Inten    --    60.5137                 1.6858                68.9399
  Atom  AN      X      Y      Z        X      Y      Z        X      Y      Z
     1   6     0.10   0.08   0.11     0.09   0.06   0.01     0.16  -0.09  -0.10
     2   1    -0.13  -0.20  -0.47     0.33  -0.40   0.10     0.38  -0.25   0.15
     3   1    -0.07  -0.43  -0.65    -0.44   0.06   0.08     0.03   0.00   0.08
     4   6     0.00  -0.04   0.00     0.02   0.02  -0.09     0.05   0.22   0.13
     5   1    -0.12   0.11  -0.10     0.11  -0.41   0.19    -0.16   0.57  -0.14
     6   1     0.06  -0.15  -0.10    -0.19   0.36   0.23    -0.05  -0.21  -0.23
     7   8    -0.05   0.01  -0.01    -0.06  -0.02   0.02    -0.19  -0.11  -0.01
     8   1    -0.07  -0.06   0.05    -0.19  -0.14   0.10     0.31   0.10  -0.16
                     7                      8                      9
                     A                      A                      A
 Frequencies --  1081.6501              1122.2226              1172.3521
 Red. masses --     3.6695                 1.8181                 1.1109
 Frc consts  --     2.5295                 1.3490                 0.8996
 IR Inten    --    50.7515                 1.0444                30.2010
  Atom  AN      X      Y      Z        X      Y      Z        X      Y      Z
     1   6    -0.20   0.12   0.02    -0.02   0.13  -0.07     0.00  -0.01   0.06
     2   1    -0.34   0.33  -0.05     0.20  -0.26   0.06    -0.10   0.09  -0.05
     3   1    -0.20   0.11  -0.03    -0.56   0.22   0.13     0.10  -0.08  -0.06
     4   6     0.37   0.02  -0.02     0.02  -0.18   0.12    -0.02   0.00  -0.05
     5   1     0.32  -0.03   0.01     0.19   0.21  -0.11     0.68  -0.05   0.03
     6   1     0.61   0.00  -0.02    -0.17  -0.48  -0.14    -0.31   0.05   0.00
     7   8    -0.15  -0.12   0.01     0.01   0.05  -0.02    -0.04  -0.01   0.01
     8   1    -0.13  -0.09  -0.03     0.21   0.12  -0.07     0.54   0.24  -0.17
                    10                     11                     12
                     A                      A                      A
 Frequencies --  1350.2937              1394.6064              1461.4435
 Red. masses --     1.1835                 1.2300                 1.2092
 Frc consts  --     1.2713                 1.4095                 1.5217
 IR Inten    --     5.5502                31.4815                 6.7336
  Atom  AN      X      Y      Z        X      Y      Z        X      Y      Z
     1   6    -0.01  -0.03   0.02     0.00   0.03  -0.01    -0.11   0.06   0.00
     2   1    -0.11   0.13  -0.03     0.13  -0.19   0.06     0.29  -0.54   0.26
     3   1     0.01  -0.04   0.00     0.12   0.01  -0.04     0.65  -0.03  -0.22
     4   6     0.06   0.04   0.05    -0.12   0.04   0.04     0.05  -0.01  -0.01
     5   1     0.26   0.17   0.00     0.67   0.13   0.03    -0.09  -0.08   0.03
     6   1    -0.71  -0.11  -0.04     0.53  -0.05  -0.05    -0.19  -0.07  -0.04
     7   8     0.03   0.00  -0.06     0.02  -0.03  -0.03     0.00   0.01   0.00
     8   1    -0.52  -0.24   0.12    -0.35  -0.17   0.07     0.03   0.02  -0.01
                    13                     14                     15
                     A                      A                      A
 Frequencies --  1488.4354              2990.6691              3017.1594
 Red. masses --     1.0776                 1.0555                 1.1041
 Frc consts  --     1.4066                 5.5620                 5.9219
 IR Inten    --     1.7793                47.5378                33.1279
  Atom  AN      X      Y      Z        X      Y      Z        X      Y      Z
     1   6     0.01   0.00   0.00     0.00   0.00   0.00     0.00   0.00   0.00
     2   1    -0.03   0.06  -0.02    -0.01  -0.01   0.00    -0.02  -0.01   0.01
     3   1    -0.06  -0.01   0.00     0.00  -0.01   0.01     0.00  -0.01   0.01
     4   6    -0.01   0.08   0.01     0.01  -0.07   0.00     0.00  -0.01   0.09
     5   1    -0.02  -0.58   0.39    -0.04   0.35   0.60     0.05  -0.39  -0.60
     6   1     0.02  -0.52  -0.48    -0.02   0.45  -0.56    -0.03   0.45  -0.52
     7   8     0.01   0.01   0.00     0.00   0.00   0.00     0.00   0.00   0.00
     8   1     0.01   0.01   0.00     0.00   0.00  -0.01     0.00   0.00   0.01
                    16                     17                     18
                     A                      A                      A
 Frequencies --  3155.9265              3265.8169              3811.1391
 Red. masses --     1.0510                 1.1192                 1.0665
 Frc consts  --     6.1676                 7.0328                 9.1272
 IR Inten    --     7.1346                 9.8586                20.7864
  Atom  AN      X      Y      Z        X      Y      Z        X      Y      Z
     1   6     0.05  -0.03   0.00    -0.05  -0.07   0.06     0.00   0.00   0.00
     2   1    -0.56  -0.23   0.33     0.59   0.24  -0.34     0.00   0.00   0.00
     3   1    -0.04   0.60  -0.40    -0.05   0.57  -0.37     0.00   0.00   0.00
     4   6     0.00   0.00   0.00     0.00   0.00   0.00     0.00   0.00   0.00
     5   1     0.00   0.00   0.00     0.00  -0.01  -0.01     0.00   0.00  -0.01
     6   1     0.00   0.00   0.00     0.00   0.02  -0.03     0.00   0.00   0.00
     7   8     0.00   0.00   0.00     0.00   0.00   0.00     0.00   0.04   0.05
     8   1     0.00   0.00   0.00     0.00   0.00   0.00     0.03  -0.62  -0.78

 -------------------
 - Thermochemistry -
 -------------------
 Temperature   298.150 Kelvin.  Pressure   1.00000 Atm.
 Atom     1 has atomic number  6 and mass  12.00000
 Atom     2 has atomic number  1 and mass   1.00783
 Atom     3 has atomic number  1 and mass   1.00783
 Atom     4 has atomic number  6 and mass  12.00000
 Atom     5 has atomic number  1 and mass   1.00783
 Atom     6 has atomic number  1 and mass   1.00783
 Atom     7 has atomic number  8 and mass  15.99491
 Atom     8 has atomic number  1 and mass   1.00783
 Molecular mass:    45.03404 amu.
 Principal axes and moments of inertia in atomic units:
                           1         2         3
     Eigenvalues --    47.21492 184.41037 212.02367
           X            0.99989  -0.01133   0.00919
           Y            0.01139   0.99992  -0.00628
           Z           -0.00912   0.00638   0.99994
 This molecule is an asymmetric top.
 Rotational symmetry number  1.
 Rotational temperatures (Kelvin)      1.83446     0.46968     0.40851
 Rotational constants (GHZ):          38.22396     9.78655     8.51198
 Zero-point vibrational energy     170936.7 (Joules/Mol)
                                   40.85486 (Kcal/Mol)
 Warning -- explicit consideration of   4 degrees of freedom as
           vibrations may cause significant error
 Vibrational temperatures:    254.52   489.97   609.85   790.78  1183.66
          (Kelvin)           1371.23  1556.25  1614.63  1686.75  1942.77
                             2006.53  2102.69  2141.52  4302.90  4341.01
                             4540.67  4698.78  5483.37
 
 Zero-point correction=                           0.065106 (Hartree/Particle)
 Thermal correction to Energy=                    0.069598
 Thermal correction to Enthalpy=                  0.070542
 Thermal correction to Gibbs Free Energy=         0.038997
 Sum of electronic and zero-point Energies=           -154.320662
 Sum of electronic and thermal Energies=              -154.316171
 Sum of electronic and thermal Enthalpies=            -154.315227
 Sum of electronic and thermal Free Energies=         -154.346771
 
                     E (Thermal)             CV                S
                      KCal/Mol        Cal/Mol-Kelvin    Cal/Mol-Kelvin
 Total                   43.673             14.210             66.391
 Electronic               0.000              0.000              1.377
 Translational            0.889              2.981             37.340
 Rotational               0.889              2.981             22.139
 Vibrational             41.896              8.248              5.534
 Vibration     1          0.628              1.871              2.361
 Vibration     2          0.720              1.594              1.210
 Vibration     3          0.786              1.418              0.879
 Vibration     4          0.905              1.141              0.545
                       Q            Log10(Q)             Ln(Q)
 Total Bot       0.115479D-17        -17.937498        -41.302616
 Total V=0       0.102161D+13         12.009283         27.652397
 Vib (Bot)       0.316034D-29        -29.500266        -67.926872
 Vib (Bot)    1  0.113662D+01          0.055614          0.128055
 Vib (Bot)    2  0.545062D+00         -0.263554         -0.606856
 Vib (Bot)    3  0.413025D+00         -0.384023         -0.884246
 Vib (Bot)    4  0.285635D+00         -0.544188         -1.253040
 Vib (V=0)       0.279586D+01          0.446516          1.028141
 Vib (V=0)    1  0.174173D+01          0.240981          0.554879
 Vib (V=0)    2  0.123966D+01          0.093302          0.214835
 Vib (V=0)    3  0.114853D+01          0.060142          0.138482
 Vib (V=0)    4  0.107584D+01          0.031746          0.073098
 Electronic      0.200000D+01          0.301030          0.693147
 Translational   0.118786D+08          7.074767         16.290252
 Rotational      0.153805D+05          4.186971          9.640857
 ***** Axes restored to original set *****
 -------------------------------------------------------------------
 Center     Atomic                   Forces (Hartrees/Bohr)
 Number     Number              X              Y              Z
 -------------------------------------------------------------------
      1        6           0.000015979   -0.000040138   -0.000022046
      2        1          -0.000005693    0.000019575    0.000011540
      3        1          -0.000005320    0.000022781    0.000007527
      4        6           0.000003271   -0.000003964   -0.000028245
      5        1           0.000004285    0.000009023    0.000008669
      6        1           0.000006875   -0.000000347    0.000001247
      7        8          -0.000018271   -0.000005303    0.000018310
      8        1          -0.000001124   -0.000001627    0.000002999
 -------------------------------------------------------------------
 Cartesian Forces:  Max     0.000040138 RMS     0.000014809

 GradGradGradGradGradGradGradGradGradGradGradGradGradGradGradGradGradGrad
 Berny optimization.
 Internal  Forces:  Max     0.000025719 RMS     0.000009727
 Search for a local minimum.
 Step number   1 out of a maximum of    2
 All quantities printed in internal units (Hartrees-Bohrs-Radians)
 Second derivative matrix not updated -- analytic derivatives used.
     Eigenvalues ---    0.00110   0.00395   0.00909   0.05795   0.06602
     Eigenvalues ---    0.09658   0.10010   0.10741   0.13391   0.16339
     Eigenvalues ---    0.22189   0.30584   0.31391   0.31833   0.36373
     Eigenvalues ---    0.36520   0.37133   0.522581000.000001000.00000
     Eigenvalues --- 1000.000001000.000001000.000001000.000001000.00000
     Eigenvalues --- 1000.00000
 Angle between quadratic step and forces=  70.54 degrees.
 Linear search not attempted -- first point.
 Iteration  1 RMS(Cart)=  0.00172369 RMS(Int)=  0.00000320
 Iteration  2 RMS(Cart)=  0.00000285 RMS(Int)=  0.00000055
 Iteration  3 RMS(Cart)=  0.00000000 RMS(Int)=  0.00000055
 Variable       Old X    -DE/DX   Delta X   Delta X   Delta X     New X
                                 (Linear)    (Quad)   (Total)
    R1        2.05083  -0.00001   0.00000  -0.00001  -0.00001   2.05082
    R2        2.05212   0.00000   0.00000   0.00000   0.00000   2.05213
    R3        2.81039   0.00000   0.00000  -0.00001  -0.00001   2.81038
    R4        2.08020   0.00001   0.00000   0.00009   0.00009   2.08029
    R5        2.08034   0.00001   0.00000   0.00008   0.00008   2.08041
    R6        2.70915  -0.00003   0.00000  -0.00025  -0.00025   2.70891
    R7        1.82721   0.00000   0.00000  -0.00001  -0.00001   1.82721
    A1        2.07225   0.00002   0.00000   0.00013   0.00013   2.07238
    A2        2.11530   0.00000   0.00000  -0.00032  -0.00032   2.11497
    A3        2.08735  -0.00002   0.00000  -0.00021  -0.00021   2.08714
    A4        1.94168   0.00000   0.00000  -0.00004  -0.00004   1.94165
    A5        1.92909   0.00001   0.00000   0.00000   0.00000   1.92909
    A6        1.97329  -0.00001   0.00000   0.00007   0.00007   1.97336
    A7        1.86138   0.00000   0.00000  -0.00023  -0.00023   1.86116
    A8        1.81901   0.00000   0.00000   0.00008   0.00008   1.81909
    A9        1.93356   0.00000   0.00000   0.00011   0.00011   1.93366
   A10        1.88652  -0.00001   0.00000  -0.00001  -0.00001   1.88651
    D1       -1.67314   0.00001   0.00000   0.00563   0.00563  -1.66751
    D2        0.39135   0.00001   0.00000   0.00532   0.00532   0.39667
    D3        2.57018   0.00002   0.00000   0.00551   0.00551   2.57569
    D4        1.32868  -0.00001   0.00000   0.00232   0.00232   1.33100
    D5       -2.89001  -0.00001   0.00000   0.00201   0.00201  -2.88800
    D6       -0.71118   0.00000   0.00000   0.00220   0.00220  -0.70898
    D7       -0.94083   0.00000   0.00000  -0.00105  -0.00105  -0.94188
    D8       -3.05179   0.00000   0.00000  -0.00110  -0.00110  -3.05289
    D9        1.23557   0.00000   0.00000  -0.00092  -0.00092   1.23465
         Item               Value     Threshold  Converged?
 Maximum Force            0.000026     0.000450     YES
 RMS     Force            0.000010     0.000300     YES
 Maximum Displacement     0.004784     0.001800     NO 
 RMS     Displacement     0.001724     0.001200     NO 
 Predicted change in Energy=-8.589236D-08
 GradGradGradGradGradGradGradGradGradGradGradGradGradGradGradGradGradGrad

 1|1|UNPC-DESKTOP-319GPER|Freq|UB3LYP|6-31+G(d,p)|C2H5O1(2)|SAGAD|17-Ja
 n-2021|0||#N Geom=AllCheck Guess=TCheck SCRF=Check GenChk UB3LYP/6-31+
 G(d,p) Freq||2-Hydroxyethyl radical b3lyp||0,2|C,-0.4476587325,0.68199
 70368,0.6383446596|H,-0.2315490462,-0.173808857,1.2697437373|H,-1.3179
 284594,0.6457331931,-0.0101733638|C,0.3145939997,1.9517282865,0.774367
 7312|H,-0.2165593755,2.6688561354,1.4188469234|H,1.2916353519,1.766757
 0576,1.2466858566|O,0.4741765228,2.6469022737,-0.4692325418|H,0.865249
 6592,2.0347128439,-1.1073702624||Version=IA32W-G09RevA.02|State=2-A|HF
 =-154.3857688|S2=0.753729|S2-1=0.|S2A=0.750009|RMSD=1.509e-009|RMSF=1.
 481e-005|ZeroPoint=0.0651064|Thermal=0.0695976|Dipole=0.1425864,-0.651
 2806,0.2106989|DipoleDeriv=-0.1366984,0.0094239,0.2545362,0.03354,-0.0
 328938,-0.0706119,0.2372853,-0.1501964,-0.2004314,0.0693314,-0.0152937
 ,-0.0690474,-0.0355138,-0.0322079,0.0899839,-0.0597605,0.1097356,0.060
 5652,0.0033329,-0.035868,-0.0992838,-0.0213809,0.0321163,0.039506,-0.1
 121831,0.0076078,0.0673598,0.3910947,0.0934998,-0.0736119,0.048141,0.4
 528828,-0.2128145,-0.0961101,-0.2788167,0.7009834,0.025423,0.0400162,0
 .058115,0.0247073,-0.0770833,-0.0804881,0.057815,-0.0228276,-0.0182668
 ,-0.1378025,0.0170214,-0.1309374,0.0198726,0.006104,0.0678525,-0.07413
 85,0.0509891,-0.0641876,-0.5366565,-0.1849735,0.0326236,-0.171852,-0.5
 136709,0.2480389,0.0155003,0.307761,-0.79668,0.3219755,0.0761739,0.027
 6057,0.1024858,0.1647527,-0.0814668,0.0315916,-0.0242529,0.2506574|Pol
 ar=28.1608139,2.7464792,32.0600348,-0.4740382,-1.1068833,30.1182845|PG
 =C01 [X(C2H5O1)]|NImag=0||0.39796584,0.07126918,0.51430042,0.24617527,
 -0.14847031,0.33950146,-0.05215156,0.03741292,-0.05454812,0.04650764,0
 .03695694,-0.23157933,0.14469584,-0.04029808,0.23886596,-0.05635223,0.
 14780427,-0.13313381,0.05671086,-0.15624355,0.13222494,-0.22865823,-0.
 01490703,-0.16045746,0.00030642,-0.00239160,-0.00069712,0.23551772,-0.
 01254363,-0.05230562,0.00736004,0.01733248,0.00447529,0.01267114,0.016
 74269,0.04513480,-0.15585554,0.00381709,-0.13611405,-0.01200407,-0.002
 50670,-0.00428001,0.16925334,-0.00369571,0.13835907,-0.11777533,-0.071
 99949,-0.03189018,0.00618339,0.00902367,-0.00051097,-0.00680904,-0.021
 82965,-0.00397736,0.54890567,-0.06878396,-0.18125058,-0.01339196,-0.01
 003443,-0.00750115,-0.00438564,0.00289165,0.00405790,0.00395139,-0.036
 15631,0.48333172,-0.03007489,-0.00837515,-0.06895684,0.00592013,0.0162
 3095,0.00786740,-0.00789349,-0.01702517,-0.00178960,0.03051191,0.04019
 087,0.46616373,0.00952004,-0.01119575,-0.00868437,-0.00049293,-0.00042
 386,0.00054252,-0.00034275,0.00053118,0.00066598,-0.10736198,0.0753698
 0,0.06412230,0.11297138,0.00458840,-0.02402062,-0.01163021,-0.00096972
 ,-0.00124527,-0.00046761,-0.00066516,0.00029777,0.00058260,0.08955706,
 -0.15147647,-0.10251576,-0.08622389,0.16799373,-0.00107827,-0.00611470
 ,0.00193716,0.00030330,-0.00105969,-0.00142224,-0.00029110,0.00004780,
 0.00020820,0.06439464,-0.08522419,-0.11513184,-0.07826085,0.09757024,0
 .14705585,-0.01379651,0.00202388,-0.00748534,0.00070567,-0.00057566,0.
 00010927,-0.00060281,-0.00260090,0.00082738,-0.25211940,0.03451957,-0.
 08420850,-0.01521101,0.00336186,-0.00583007,0.26770344,-0.02695207,0.0
 0271122,-0.01426924,0.00082281,0.00097261,0.00029041,-0.00289853,-0.00
 431357,-0.00080823,0.03416577,-0.05424560,0.01530336,0.02063875,-0.002
 28099,0.00679567,-0.03704946,0.06282870,-0.00613918,-0.00268270,-0.000
 32769,0.00084948,-0.00054452,-0.00007844,-0.00091572,-0.00005716,0.001
 30403,-0.08275417,0.01284343,-0.08446096,0.01548262,-0.00290227,0.0086
 4330,0.09739201,-0.02258224,0.10174834,0.00454330,-0.01409690,0.017262
 51,-0.00096905,-0.00285063,0.00050603,0.00142176,0.00280570,0.00081548
 ,-0.06853720,-0.00145981,0.02105762,0.00033499,-0.00848283,0.01896942,
 0.01243053,0.01159659,-0.02227015,0.13804332,-0.00577004,-0.02973146,0
 .03550288,-0.00426411,-0.00397220,0.00026135,0.00179463,0.00259649,-0.
 00145138,0.00765701,-0.10198468,0.03466093,0.00266022,0.01106593,-0.01
 547006,0.00028906,-0.00536290,0.01528788,-0.12951307,0.36634210,0.0032
 8370,0.01429136,-0.00579505,0.00286293,0.00003562,-0.00097931,0.000951
 43,0.00040845,0.00232566,0.00843588,0.06989305,-0.17828408,0.00618631,
 0.01530323,-0.03538687,-0.00034941,0.01644683,-0.02724904,-0.16095861,
 0.10119767,0.47806641,0.00035244,0.00149319,-0.00037232,-0.00008959,0.
 00055921,-0.00030836,-0.00083308,-0.00043786,0.00027478,-0.00248612,0.
 00365349,0.00056491,0.00058227,-0.00116572,0.00179293,0.00089010,-0.00
 032387,-0.00164489,-0.08726765,0.12714630,0.13958778,0.08885164,0.0012
 3517,0.00187598,0.00020295,-0.00000187,-0.00001590,0.00006962,-0.00056
 665,0.00005694,0.00011095,-0.01041806,0.00906888,0.02152998,-0.0013564
 5,-0.00033408,0.00345494,0.00003165,-0.00030947,0.00063757,0.14200094,
 -0.23895326,-0.21757620,-0.13092474,0.22861089,0.00004114,-0.00026985,
 0.00288883,-0.00009452,-0.00060794,-0.00019853,0.00005011,0.00029061,-
 0.00001330,0.01579025,-0.02387694,-0.02540781,-0.00005450,0.00405977,-
 0.00590356,-0.00045535,-0.00117657,0.00042045,0.12461771,-0.16998928,-
 0.23269773,-0.13989485,0.19157020,0.26091165||-0.00001598,0.00004014,0
 .00002205,0.00000569,-0.00001958,-0.00001154,0.00000532,-0.00002278,-0
 .00000753,-0.00000327,0.00000396,0.00002824,-0.00000428,-0.00000902,-0
 .00000867,-0.00000687,0.00000035,-0.00000125,0.00001827,0.00000530,-0.
 00001831,0.00000112,0.00000163,-0.00000300|||@


 THE RARE EARTHS PERPLEX US IN OUR RESEARCHES,
 BAFFLE US IN OUR SPECULATIONS, AND HAUNT US IN OUR
 VERY DREAMS.  THEY STRETCH LIKE AN UNKNOWN BEFORE US,
 MOCKING, MYSTIFYING, AND MURMURING STRANGE REVELATIONS
 AND POSSIBILITIES.  -- SIR WILLIAM CROOKE, 1832-1919
 Job cpu time:  0 days  0 hours  0 minutes 30.0 seconds.
 File lengths (MBytes):  RWF=     15 Int=      0 D2E=      0 Chk=      1 Scr=      1
 Normal termination of Gaussian 09 at Sun Jan 17 12:56:59 2021.
