 Entering Link 1 = C:\G09W\l1.exe PID=      6956.
  
 Copyright (c) 1988,1990,1992,1993,1995,1998,2003,2009, Gaussian, Inc.
                  All Rights Reserved.
  
 This is part of the Gaussian(R) 09 program.  It is based on
 the Gaussian(R) 03 system (copyright 2003, Gaussian, Inc.),
 the Gaussian(R) 98 system (copyright 1998, Gaussian, Inc.),
 the Gaussian(R) 94 system (copyright 1995, Gaussian, Inc.),
 the Gaussian 92(TM) system (copyright 1992, Gaussian, Inc.),
 the Gaussian 90(TM) system (copyright 1990, Gaussian, Inc.),
 the Gaussian 88(TM) system (copyright 1988, Gaussian, Inc.),
 the Gaussian 86(TM) system (copyright 1986, Carnegie Mellon
 University), and the Gaussian 82(TM) system (copyright 1983,
 Carnegie Mellon University). Gaussian is a federally registered
 trademark of Gaussian, Inc.
  
 This software contains proprietary and confidential information,
 including trade secrets, belonging to Gaussian, Inc.
  
 This software is provided under written license and may be
 used, copied, transmitted, or stored only in accord with that
 written license.
  
 The following legend is applicable only to US Government
 contracts under FAR:
  
                    RESTRICTED RIGHTS LEGEND
  
 Use, reproduction and disclosure by the US Government is
 subject to restrictions as set forth in subparagraphs (a)
 and (c) of the Commercial Computer Software - Restricted
 Rights clause in FAR 52.227-19.
  
 Gaussian, Inc.
 340 Quinnipiac St., Bldg. 40, Wallingford CT 06492
  
  
 ---------------------------------------------------------------
 Warning -- This program may not be used in any manner that
 competes with the business of Gaussian, Inc. or will provide
 assistance to any competitor of Gaussian, Inc.  The licensee
 of this program is prohibited from giving any competitor of
 Gaussian, Inc. access to this program.  By using this program,
 the user acknowledges that Gaussian, Inc. is engaged in the
 business of creating and licensing software in the field of
 computational chemistry and represents and warrants to the
 licensee that it is not a competitor of Gaussian, Inc. and that
 it will not use this program in any manner prohibited above.
 ---------------------------------------------------------------
  

 Cite this work as:
 Gaussian 09, Revision A.02,
 M. J. Frisch, G. W. Trucks, H. B. Schlegel, G. E. Scuseria, 
 M. A. Robb, J. R. Cheeseman, G. Scalmani, V. Barone, B. Mennucci, 
 G. A. Petersson, H. Nakatsuji, M. Caricato, X. Li, H. P. Hratchian, 
 A. F. Izmaylov, J. Bloino, G. Zheng, J. L. Sonnenberg, M. Hada, 
 M. Ehara, K. Toyota, R. Fukuda, J. Hasegawa, M. Ishida, T. Nakajima, 
 Y. Honda, O. Kitao, H. Nakai, T. Vreven, J. A. Montgomery, Jr., 
 J. E. Peralta, F. Ogliaro, M. Bearpark, J. J. Heyd, E. Brothers, 
 K. N. Kudin, V. N. Staroverov, R. Kobayashi, J. Normand, 
 K. Raghavachari, A. Rendell, J. C. Burant, S. S. Iyengar, J. Tomasi, 
 M. Cossi, N. Rega, J. M. Millam, M. Klene, J. E. Knox, J. B. Cross, 
 V. Bakken, C. Adamo, J. Jaramillo, R. Gomperts, R. E. Stratmann, 
 O. Yazyev, A. J. Austin, R. Cammi, C. Pomelli, J. W. Ochterski, 
 R. L. Martin, K. Morokuma, V. G. Zakrzewski, G. A. Voth, 
 P. Salvador, J. J. Dannenberg, S. Dapprich, A. D. Daniels, 
 O. Farkas, J. B. Foresman, J. V. Ortiz, J. Cioslowski, 
 and D. J. Fox, Gaussian, Inc., Wallingford CT, 2009.
 
 ******************************************
 Gaussian 09:  IA32W-G09RevA.02 11-Jun-2009
                17-Jan-2021 
 ******************************************
 %chk=D:\Documents\rayGit\FQ\quimicaComputacional\p3Eteno\estadoDeTransicion\hydr
 oxyethylRadicalHF.chk
 %nprocshared=4
 Will use up to    4 processors via shared memory.
 %mem=1500MB
 ---------------------------------
 # opt freq=noraman 6-31+g(d,p) hf
 ---------------------------------
 1/18=20,19=15,38=1/1,3;
 2/9=110,12=2,17=6,18=5,40=1/2;
 3/5=1,6=6,7=111,11=9,16=1,25=1,30=1,71=1/1,2,3;
 4//1;
 5/5=2,38=5/2;
 6/7=2,8=2,9=2,10=2,28=1/1;
 7//1,2,3,16;
 1/18=20,19=15/3(2);
 2/9=110/2;
 99//99;
 2/9=110/2;
 3/5=1,6=6,7=111,11=9,16=1,25=1,30=1,71=1/1,2,3;
 4/5=5,16=3/1;
 5/5=2,38=5/2;
 7//1,2,3,16;
 1/18=20,19=15/3(-5);
 2/9=110/2;
 6/7=2,8=2,9=2,10=2,19=2,28=1/1;
 99/9=1/99;
 -------------------------
 2-Hydroxyethyl radical hf
 -------------------------
 Symbolic Z-matrix:
 Charge =  0 Multiplicity = 2
 C                    -0.47616   0.7481    0.59177 
 H                     0.057    -0.17961   0.59177 
 H                    -1.54616   0.7481    0.59177 
 C                     0.25615   2.02258   0.74029 
 H                    -0.35014   2.72184   1.27726 
 H                     1.16479   1.85118   1.27871 
 O                     0.56093   2.55073  -0.55319 
 H                     1.06556   1.75995  -0.75718 
 

 GradGradGradGradGradGradGradGradGradGradGradGradGradGradGradGradGradGrad
 Berny optimization.
 Initialization pass.
                           ----------------------------
                           !    Initial Parameters    !
                           ! (Angstroms and Degrees)  !
 --------------------------                            --------------------------
 ! Name  Definition              Value          Derivative Info.                !
 --------------------------------------------------------------------------------
 ! R1    R(1,2)                  1.07           estimate D2E/DX2                !
 ! R2    R(1,3)                  1.07           estimate D2E/DX2                !
 ! R3    R(1,4)                  1.4774         estimate D2E/DX2                !
 ! R4    R(4,5)                  1.07           estimate D2E/DX2                !
 ! R5    R(4,6)                  1.07           estimate D2E/DX2                !
 ! R6    R(4,7)                  1.43           estimate D2E/DX2                !
 ! R7    R(7,8)                  0.96           estimate D2E/DX2                !
 ! A1    A(2,1,3)              119.8865         estimate D2E/DX2                !
 ! A2    A(2,1,4)              120.0628         estimate D2E/DX2                !
 ! A3    A(3,1,4)              119.7151         estimate D2E/DX2                !
 ! A4    A(1,4,5)              109.4712         estimate D2E/DX2                !
 ! A5    A(1,4,6)              109.4712         estimate D2E/DX2                !
 ! A6    A(1,4,7)              109.4712         estimate D2E/DX2                !
 ! A7    A(5,4,6)              109.4712         estimate D2E/DX2                !
 ! A8    A(5,4,7)              109.4712         estimate D2E/DX2                !
 ! A9    A(6,4,7)              109.4712         estimate D2E/DX2                !
 ! A10   A(4,7,8)               90.0            estimate D2E/DX2                !
 ! D1    D(2,1,4,5)           -146.6952         estimate D2E/DX2                !
 ! D2    D(2,1,4,6)            -26.6952         estimate D2E/DX2                !
 ! D3    D(2,1,4,7)             93.3048         estimate D2E/DX2                !
 ! D4    D(3,1,4,5)             26.6464         estimate D2E/DX2                !
 ! D5    D(3,1,4,6)            146.6464         estimate D2E/DX2                !
 ! D6    D(3,1,4,7)            -93.3536         estimate D2E/DX2                !
 ! D7    D(1,4,7,8)            -60.0            estimate D2E/DX2                !
 ! D8    D(5,4,7,8)            180.0            estimate D2E/DX2                !
 ! D9    D(6,4,7,8)             60.0            estimate D2E/DX2                !
 --------------------------------------------------------------------------------
 Trust Radius=3.00D-01 FncErr=1.00D-07 GrdErr=1.00D-07
 Number of steps in this run=  36 maximum allowed number of steps= 100.
 GradGradGradGradGradGradGradGradGradGradGradGradGradGradGradGradGradGrad

                          Input orientation:                          
 ---------------------------------------------------------------------
 Center     Atomic      Atomic             Coordinates (Angstroms)
 Number     Number       Type             X           Y           Z
 ---------------------------------------------------------------------
      1          6           0       -0.476164    0.748099    0.591772
      2          1           0        0.057000   -0.179606    0.591772
      3          1           0       -1.546164    0.748099    0.591772
      4          6           0        0.256154    2.022581    0.740285
      5          1           0       -0.350145    2.721836    1.277261
      6          1           0        1.164791    1.851183    1.278712
      7          8           0        0.560930    2.550734   -0.553185
      8          1           0        1.065558    1.759951   -0.757177
 ---------------------------------------------------------------------
                    Distance matrix (angstroms):
                    1          2          3          4          5
     1  C    0.000000
     2  H    1.070000   0.000000
     3  H    1.070000   1.852234   0.000000
     4  C    1.477379   2.216155   2.212399   0.000000
     5  H    2.093182   3.008991   2.407487   1.070000   0.000000
     6  H    2.093182   2.413129   3.006319   1.070000   1.747303
     7  O    2.374023   3.003270   3.000044   1.430000   2.051796
     8  H    2.284822   2.568800   3.108793   1.722353   2.658641
                    6          7          8
     6  H    0.000000
     7  O    2.051796   0.000000
     8  H    2.040346   0.960000   0.000000
 Stoichiometry    C2H5O(2)
 Framework group  C1[X(C2H5O)]
 Deg. of freedom    18
 Full point group                 C1      NOp   1
 Largest Abelian subgroup         C1      NOp   1
 Largest concise Abelian subgroup C1      NOp   1
                         Standard orientation:                         
 ---------------------------------------------------------------------
 Center     Atomic      Atomic             Coordinates (Angstroms)
 Number     Number       Type             X           Y           Z
 ---------------------------------------------------------------------
      1          6           0       -1.205097   -0.236333   -0.039999
      2          1           0       -1.654897   -0.656870    0.835060
      3          1           0       -1.711364   -0.295846   -0.980771
      4          6           0        0.038911    0.552461    0.073564
      5          1           0        0.039034    1.326629   -0.665058
      6          1           0        0.096277    0.989651    1.048487
      7          8           0        1.166194   -0.302961   -0.132318
      8          1           0        0.898516   -0.836641    0.619436
 ---------------------------------------------------------------------
 Rotational constants (GHZ):     36.8875768     10.2004514      9.1096112
 Standard basis: 6-31+G(d,p) (6D, 7F)
 There are    82 symmetry adapted basis functions of A   symmetry.
 Integral buffers will be    262144 words long.
 Raffenetti 2 integral format.
 Two-electron integral symmetry is turned on.
    82 basis functions,   131 primitive gaussians,    82 cartesian basis functions
    13 alpha electrons       12 beta electrons
       nuclear repulsion energy        75.9318939695 Hartrees.
 NAtoms=    8 NActive=    8 NUniq=    8 SFac= 7.50D-01 NAtFMM=   80 NAOKFM=F Big=F
 One-electron integrals computed using PRISM.
 NBasis=    82 RedAO= T  NBF=    82
 NBsUse=    82 1.00D-06 NBFU=    82
 Harris functional with IExCor=  205 diagonalized for initial guess.
 ExpMin= 4.38D-02 ExpMax= 5.48D+03 ExpMxC= 8.25D+02 IAcc=2 IRadAn=         0 AccDes= 0.00D+00
 HarFok:  IExCor=  205 AccDes= 0.00D+00 IRadAn=         0 IDoV= 1
 ScaDFX=  1.000000  1.000000  1.000000  1.000000
 FoFCou: FMM=F IPFlag=           0 FMFlag=      100000 FMFlg1=           0
         NFxFlg=           0 DoJE=T BraDBF=F KetDBF=T FulRan=T
         Omega=  0.000000  0.000000  1.000000  0.000000  0.000000 ICntrl=     500 IOpCl=  0
         NMat0=    1 NMatS0=    1 NMatT0=    0 NMatD0=    1 NMtDS0=    0 NMtDT0=    0
         I1Cent=           4 NGrid=           0.
 Petite list used in FoFCou.
 Initial guess orbital symmetries:
 Alpha Orbitals:
       Occupied  (A) (A) (A) (A) (A) (A) (A) (A) (A) (A) (A) (A)
                 (A)
       Virtual   (A) (A) (A) (A) (A) (A) (A) (A) (A) (A) (A) (A)
                 (A) (A) (A) (A) (A) (A) (A) (A) (A) (A) (A) (A)
                 (A) (A) (A) (A) (A) (A) (A) (A) (A) (A) (A) (A)
                 (A) (A) (A) (A) (A) (A) (A) (A) (A) (A) (A) (A)
                 (A) (A) (A) (A) (A) (A) (A) (A) (A) (A) (A) (A)
                 (A) (A) (A) (A) (A) (A) (A) (A) (A)
 Beta  Orbitals:
       Occupied  (A) (A) (A) (A) (A) (A) (A) (A) (A) (A) (A) (A)
       Virtual   (A) (A) (A) (A) (A) (A) (A) (A) (A) (A) (A) (A)
                 (A) (A) (A) (A) (A) (A) (A) (A) (A) (A) (A) (A)
                 (A) (A) (A) (A) (A) (A) (A) (A) (A) (A) (A) (A)
                 (A) (A) (A) (A) (A) (A) (A) (A) (A) (A) (A) (A)
                 (A) (A) (A) (A) (A) (A) (A) (A) (A) (A) (A) (A)
                 (A) (A) (A) (A) (A) (A) (A) (A) (A) (A)
 The electronic state of the initial guess is 2-A.
 Initial guess <Sx>= 0.0000 <Sy>= 0.0000 <Sz>= 0.5000 <S**2>= 0.7500 S= 0.5000
 Requested convergence on RMS density matrix=1.00D-08 within 128 cycles.
 Requested convergence on MAX density matrix=1.00D-06.
 Requested convergence on             energy=1.00D-06.
 No special actions if energy rises.
 Keep R1 and R2 ints in memory in canonical form, NReq=12443148.
 SCF Done:  E(UHF) =  -153.446789866     A.U. after   15 cycles
             Convg  =    0.8565D-08             -V/T =  2.0008
 <Sx>= 0.0000 <Sy>= 0.0000 <Sz>= 0.5000 <S**2>= 0.7621 S= 0.5060
 <L.S>= 0.000000000000E+00
 Annihilation of the first spin contaminant:
 S**2 before annihilation     0.7621,   after     0.7501

 **********************************************************************

            Population analysis using the SCF density.

 **********************************************************************

 Orbital symmetries:
 Alpha Orbitals:
       Occupied  (A) (A) (A) (A) (A) (A) (A) (A) (A) (A) (A) (A)
                 (A)
       Virtual   (A) (A) (A) (A) (A) (A) (A) (A) (A) (A) (A) (A)
                 (A) (A) (A) (A) (A) (A) (A) (A) (A) (A) (A) (A)
                 (A) (A) (A) (A) (A) (A) (A) (A) (A) (A) (A) (A)
                 (A) (A) (A) (A) (A) (A) (A) (A) (A) (A) (A) (A)
                 (A) (A) (A) (A) (A) (A) (A) (A) (A) (A) (A) (A)
                 (A) (A) (A) (A) (A) (A) (A) (A) (A)
 Beta  Orbitals:
       Occupied  (A) (A) (A) (A) (A) (A) (A) (A) (A) (A) (A) (A)
       Virtual   (A) (A) (A) (A) (A) (A) (A) (A) (A) (A) (A) (A)
                 (A) (A) (A) (A) (A) (A) (A) (A) (A) (A) (A) (A)
                 (A) (A) (A) (A) (A) (A) (A) (A) (A) (A) (A) (A)
                 (A) (A) (A) (A) (A) (A) (A) (A) (A) (A) (A) (A)
                 (A) (A) (A) (A) (A) (A) (A) (A) (A) (A) (A) (A)
                 (A) (A) (A) (A) (A) (A) (A) (A) (A) (A)
 The electronic state is 2-A.
 Alpha  occ. eigenvalues --  -20.57548 -11.27790 -11.24411  -1.37978  -1.03395
 Alpha  occ. eigenvalues --   -0.84844  -0.70741  -0.63401  -0.61728  -0.57745
 Alpha  occ. eigenvalues --   -0.51171  -0.45931  -0.38168
 Alpha virt. eigenvalues --    0.08297   0.09337   0.10098   0.11346   0.13793
 Alpha virt. eigenvalues --    0.14368   0.14704   0.20789   0.26145   0.28316
 Alpha virt. eigenvalues --    0.32520   0.33703   0.35907   0.37381   0.41349
 Alpha virt. eigenvalues --    0.44228   0.45352   0.46529   0.50248   0.80761
 Alpha virt. eigenvalues --    0.84542   0.86862   0.88585   0.93034   1.04257
 Alpha virt. eigenvalues --    1.14988   1.16931   1.21689   1.25161   1.26385
 Alpha virt. eigenvalues --    1.29379   1.42142   1.46838   1.53955   1.59506
 Alpha virt. eigenvalues --    1.64133   1.66578   1.80750   1.83658   1.88642
 Alpha virt. eigenvalues --    2.06216   2.18039   2.20831   2.24792   2.25592
 Alpha virt. eigenvalues --    2.36444   2.44304   2.55053   2.59235   2.70723
 Alpha virt. eigenvalues --    2.74680   2.84511   2.86471   2.91489   2.95418
 Alpha virt. eigenvalues --    2.99911   3.00744   3.15005   3.20110   3.27509
 Alpha virt. eigenvalues --    3.34552   3.66690   3.79420   3.83621   3.90717
 Alpha virt. eigenvalues --    3.94472   4.60562   4.73264   4.98241
  Beta  occ. eigenvalues --  -20.57190 -11.28103 -11.22095  -1.36879  -0.98681
  Beta  occ. eigenvalues --   -0.80861  -0.70218  -0.62123  -0.59817  -0.56565
  Beta  occ. eigenvalues --   -0.50448  -0.44935
  Beta virt. eigenvalues --    0.06270   0.08764   0.09463   0.10682   0.12811
  Beta virt. eigenvalues --    0.13970   0.14919   0.20392   0.21456   0.26555
  Beta virt. eigenvalues --    0.28732   0.33798   0.34426   0.37712   0.37942
  Beta virt. eigenvalues --    0.42161   0.44622   0.46103   0.47484   0.51383
  Beta virt. eigenvalues --    0.81530   0.85308   0.87982   0.94329   0.99923
  Beta virt. eigenvalues --    1.05001   1.15102   1.19153   1.23343   1.25387
  Beta virt. eigenvalues --    1.27072   1.30123   1.43188   1.47992   1.54475
  Beta virt. eigenvalues --    1.60487   1.65293   1.72062   1.82160   1.83899
  Beta virt. eigenvalues --    1.89328   2.09340   2.19319   2.22642   2.25502
  Beta virt. eigenvalues --    2.27987   2.37554   2.44393   2.55086   2.60450
  Beta virt. eigenvalues --    2.72379   2.75165   2.86239   2.87782   2.92917
  Beta virt. eigenvalues --    2.95624   3.00048   3.00952   3.15491   3.20266
  Beta virt. eigenvalues --    3.27904   3.34699   3.66925   3.79800   3.83845
  Beta virt. eigenvalues --    3.91293   3.94693   4.60886   4.75477   4.98674
          Condensed to atoms (all electrons):
              1          2          3          4          5          6
     1  C    5.315707   0.379306   0.385632   0.336830  -0.031456  -0.037861
     2  H    0.379306   0.518233  -0.021958  -0.017021   0.003071  -0.004751
     3  H    0.385632  -0.021958   0.496720  -0.014683  -0.004663   0.003380
     4  C    0.336830  -0.017021  -0.014683   4.820252   0.430853   0.408336
     5  H   -0.031456   0.003071  -0.004663   0.430853   0.550924  -0.031095
     6  H   -0.037861  -0.004751   0.003380   0.408336  -0.031095   0.597762
     7  O   -0.067894   0.000720   0.003277   0.112921  -0.057776  -0.044121
     8  H   -0.008400   0.001364  -0.000064  -0.015147   0.009481  -0.011944
              7          8
     1  C   -0.067894  -0.008400
     2  H    0.000720   0.001364
     3  H    0.003277  -0.000064
     4  C    0.112921  -0.015147
     5  H   -0.057776   0.009481
     6  H   -0.044121  -0.011944
     7  O    8.346718   0.252925
     8  H    0.252925   0.435159
 Mulliken atomic charges:
              1
     1  C   -0.271865
     2  H    0.141036
     3  H    0.152357
     4  C   -0.062341
     5  H    0.130662
     6  H    0.120294
     7  O   -0.546770
     8  H    0.336627
 Sum of Mulliken atomic charges =   0.00000
 Mulliken charges with hydrogens summed into heavy atoms:
              1
     1  C    0.021528
     4  C    0.188615
     7  O   -0.210143
 Sum of Mulliken charges with hydrogens summed into heavy atoms =   0.00000
          Atomic-Atomic Spin Densities.
              1          2          3          4          5          6
     1  C    1.439416   0.014211   0.012877  -0.042679  -0.011844  -0.012125
     2  H    0.014211  -0.091403   0.000618  -0.025706  -0.000148   0.001034
     3  H    0.012877   0.000618  -0.091017  -0.024664   0.001097  -0.000098
     4  C   -0.042679  -0.025706  -0.024664  -0.150577   0.014043   0.014597
     5  H   -0.011844  -0.000148   0.001097   0.014043   0.013307   0.001113
     6  H   -0.012125   0.001034  -0.000098   0.014597   0.001113   0.010298
     7  O   -0.047127   0.000966   0.000269  -0.005229  -0.006325  -0.005728
     8  H    0.003803  -0.000072   0.000028   0.002901   0.000156   0.000341
              7          8
     1  C   -0.047127   0.003803
     2  H    0.000966  -0.000072
     3  H    0.000269   0.000028
     4  C   -0.005229   0.002901
     5  H   -0.006325   0.000156
     6  H   -0.005728   0.000341
     7  O    0.106860  -0.002380
     8  H   -0.002380  -0.004737
 Mulliken atomic spin densities:
              1
     1  C    1.356531
     2  H   -0.100499
     3  H   -0.100891
     4  C   -0.217315
     5  H    0.011398
     6  H    0.009432
     7  O    0.041305
     8  H    0.000039
 Sum of Mulliken atomic spin densities =   1.00000
 Electronic spatial extent (au):  <R**2>=            175.3844
 Charge=              0.0000 electrons
 Dipole moment (field-independent basis, Debye):
    X=             -1.8835    Y=              0.2521    Z=              1.3892  Tot=              2.3539
 Quadrupole moment (field-independent basis, Debye-Ang):
   XX=            -22.8724   YY=            -18.8101   ZZ=            -17.8708
   XY=              0.3716   XZ=              1.6337   YZ=             -1.8051
 Traceless Quadrupole moment (field-independent basis, Debye-Ang):
   XX=             -3.0213   YY=              1.0410   ZZ=              1.9803
   XY=              0.3716   XZ=              1.6337   YZ=             -1.8051
 Octapole moment (field-independent basis, Debye-Ang**2):
  XXX=             -0.1351  YYY=             -0.4564  ZZZ=              0.8789  XYY=              2.9721
  XXY=             -1.4007  XXZ=              0.8494  XZZ=              0.6976  YZZ=             -0.5044
  YYZ=              1.1872  XYZ=             -0.9567
 Hexadecapole moment (field-independent basis, Debye-Ang**3):
 XXXX=           -152.8756 YYYY=            -50.8454 ZZZZ=            -32.3709 XXXY=              1.1623
 XXXZ=              2.4339 YYYX=             -3.1661 YYYZ=             -2.8638 ZZZX=              1.6646
 ZZZY=             -1.7122 XXYY=            -32.2520 XXZZ=            -26.7574 YYZZ=            -12.9634
 XXYZ=             -2.1369 YYXZ=              0.6497 ZZXY=              0.0129
 N-N= 7.593189396952D+01 E-N=-7.631016571903D+02  KE= 2.292825153448D+02
                          Isotropic Fermi Contact Couplings
        Atom                 a.u.       MegaHertz       Gauss      10(-4) cm-1
     1  C(13)              0.18943     212.95458      75.98749      71.03400
     2  H(1)              -0.02821    -126.09007     -44.99207     -42.05912
     3  H(1)              -0.02862    -127.93913     -45.65186     -42.67590
     4  C(13)             -0.04787     -53.81634     -19.20301     -17.95120
     5  H(1)               0.00513      22.91633       8.17712       7.64407
     6  H(1)               0.00424      18.96957       6.76882       6.32757
     7  O(17)              0.04712     -28.56411     -10.19238      -9.52796
     8  H(1)              -0.00219      -9.80617      -3.49908      -3.27099
 --------------------------------------------------------
       Center         ----  Spin Dipole Couplings  ----
                      3XX-RR        3YY-RR        3ZZ-RR
 --------------------------------------------------------
     1   Atom       -0.087906      0.548873     -0.460967
     2   Atom       -0.031403      0.001590      0.029813
     3   Atom       -0.023029     -0.025544      0.048573
     4   Atom       -0.004276     -0.001841      0.006117
     5   Atom        0.006777      0.004181     -0.010958
     6   Atom        0.008132      0.000452     -0.008584
     7   Atom        0.272106     -0.122639     -0.149466
     8   Atom        0.010175     -0.011402      0.001227
 --------------------------------------------------------
                        XY            XZ            YZ
 --------------------------------------------------------
     1   Atom       -0.683496     -0.155098      0.242290
     2   Atom       -0.007041     -0.060234     -0.042773
     3   Atom       -0.028909      0.058049      0.020380
     4   Atom        0.005896      0.000818     -0.001276
     5   Atom        0.012690     -0.005836     -0.002493
     6   Atom        0.010220      0.009520      0.006537
     7   Atom       -0.051510     -0.017025     -0.005870
     8   Atom       -0.001964      0.009118     -0.015029
 --------------------------------------------------------


 ---------------------------------------------------------------------------------
              Anisotropic Spin Dipole Couplings in Principal Axis System
 ---------------------------------------------------------------------------------

       Atom             a.u.   MegaHertz   Gauss  10(-4) cm-1        Axes

              Baa    -0.5236   -70.259   -25.070   -23.436  0.8485  0.5242  0.0734
     1 C(13)  Bbb    -0.5161   -69.252   -24.711   -23.100  0.0379 -0.1985  0.9794
              Bcc     1.0396   139.511    49.781    46.536 -0.5279  0.8282  0.1883
 
              Baa    -0.0793   -42.313   -15.098   -14.114  0.7506  0.3588  0.5549
     2 H(1)   Bbb    -0.0019    -1.030    -0.368    -0.344 -0.5167  0.8422  0.1544
              Bcc     0.0812    43.343    15.466    14.458 -0.4120 -0.4026  0.8174
 
              Baa    -0.0787   -42.007   -14.989   -14.012  0.7217  0.5522 -0.4175
     3 H(1)   Bbb    -0.0024    -1.272    -0.454    -0.424 -0.5003  0.8328  0.2368
              Bcc     0.0811    43.278    15.443    14.436  0.4785  0.0379  0.8773
 
              Baa    -0.0092    -1.236    -0.441    -0.412  0.7696 -0.6316 -0.0936
     4 C(13)  Bbb     0.0029     0.389     0.139     0.130  0.6383  0.7573  0.1379
              Bcc     0.0063     0.848     0.303     0.283 -0.0162 -0.1659  0.9860
 
              Baa    -0.0129    -6.870    -2.451    -2.291  0.3601 -0.1329  0.9234
     5 H(1)   Bbb    -0.0066    -3.496    -1.247    -1.166 -0.5707  0.7516  0.3307
              Bcc     0.0194    10.366     3.699     3.458  0.7380  0.6461 -0.1948
 
              Baa    -0.0133    -7.079    -2.526    -2.361 -0.3126 -0.2087  0.9267
     6 H(1)   Bbb    -0.0066    -3.535    -1.261    -1.179 -0.5669  0.8238 -0.0057
              Bcc     0.0199    10.614     3.787     3.540  0.7622  0.5271  0.3758
 
              Baa    -0.1528    11.055     3.945     3.688  0.0760  0.3142  0.9463
     7 O(17)  Bbb    -0.1265     9.156     3.267     3.054  0.1079  0.9409 -0.3210
              Bcc     0.2793   -20.212    -7.212    -6.742  0.9913 -0.1265 -0.0376
 
              Baa    -0.0218   -11.621    -4.147    -3.876 -0.1141  0.8104  0.5746
     8 H(1)   Bbb     0.0023     1.203     0.429     0.401  0.7143  0.4689 -0.5195
              Bcc     0.0195    10.418     3.718     3.475  0.6904 -0.3512  0.6324
 

 ---------------------------------------------------------------------------------

 Calling FoFJK, ICntrl=      2127 FMM=F ISym2X=0 I1Cent= 0 IOpClX= 1 NMat=1 NMatS=1 NMatT=0.
 ***** Axes restored to original set *****
 -------------------------------------------------------------------
 Center     Atomic                   Forces (Hartrees/Bohr)
 Number     Number              X              Y              Z
 -------------------------------------------------------------------
      1        6          -0.006758713   -0.006722440    0.009065803
      2        1          -0.000566673   -0.005935222   -0.001807754
      3        1          -0.003314184   -0.003567175   -0.002955916
      4        6          -0.017216949    0.013020335   -0.000797679
      5        1          -0.001640325    0.010133350    0.003118607
      6        1           0.010716513    0.003376283    0.007563447
      7        8           0.017866719   -0.038010469    0.020918949
      8        1           0.000913610    0.027705338   -0.035105457
 -------------------------------------------------------------------
 Cartesian Forces:  Max     0.038010469 RMS     0.014736423

 GradGradGradGradGradGradGradGradGradGradGradGradGradGradGradGradGradGrad
 Berny optimization.
 Internal  Forces:  Max     0.076522324 RMS     0.016718984
 Search for a local minimum.
 Step number   1 out of a maximum of   36
 All quantities printed in internal units (Hartrees-Bohrs-Radians)
 Mixed Optimization -- RFO/linear search
 Second derivative matrix not updated -- first step.
     Eigenvalues ---    0.01065   0.01099   0.01295   0.06618   0.07653
     Eigenvalues ---    0.11376   0.13914   0.16000   0.16000   0.16000
     Eigenvalues ---    0.22118   0.34871   0.37230   0.37230   0.37230
     Eigenvalues ---    0.37230   0.40989   0.554731000.000001000.00000
     Eigenvalues --- 1000.000001000.000001000.000001000.000001000.00000
     Eigenvalues --- 1000.00000
 RFO step:  Lambda=-3.46967146D-02 EMin= 1.06517995D-02
 Linear search not attempted -- first point.
 Maximum step size (   0.300) exceeded in Quadratic search.
    -- Step size scaled by   0.713
 Iteration  1 RMS(Cart)=  0.08053656 RMS(Int)=  0.01799191
 Iteration  2 RMS(Cart)=  0.02653245 RMS(Int)=  0.00109284
 Iteration  3 RMS(Cart)=  0.00103214 RMS(Int)=  0.00027577
 Iteration  4 RMS(Cart)=  0.00000139 RMS(Int)=  0.00027577
 Iteration  5 RMS(Cart)=  0.00000000 RMS(Int)=  0.00027577
 Variable       Old X    -DE/DX   Delta X   Delta X   Delta X     New X
                                 (Linear)    (Quad)   (Total)
    R1        2.02201   0.00486   0.00000   0.00852   0.00852   2.03052
    R2        2.02201   0.00331   0.00000   0.00580   0.00580   2.02781
    R3        2.79184   0.01884   0.00000   0.03502   0.03502   2.82686
    R4        2.02201   0.00912   0.00000   0.01596   0.01596   2.03797
    R5        2.02201   0.01237   0.00000   0.02165   0.02165   2.04366
    R6        2.70231   0.01303   0.00000   0.02089   0.02089   2.72319
    R7        1.81414  -0.01488   0.00000  -0.01799  -0.01799   1.79614
    A1        2.09241  -0.00499   0.00000  -0.01721  -0.01748   2.07493
    A2        2.09549   0.00239   0.00000   0.00981   0.00954   2.10503
    A3        2.08942   0.00290   0.00000   0.01166   0.01139   2.10082
    A4        1.91063   0.00119   0.00000   0.00930   0.00953   1.92016
    A5        1.91063   0.00135   0.00000   0.01605   0.01583   1.92646
    A6        1.91063   0.01300   0.00000   0.03932   0.03908   1.94971
    A7        1.91063  -0.00239   0.00000  -0.01952  -0.01990   1.89073
    A8        1.91063  -0.00864   0.00000  -0.03501  -0.03528   1.87536
    A9        1.91063  -0.00450   0.00000  -0.01013  -0.01088   1.89975
   A10        1.57080   0.07652   0.00000   0.28011   0.28011   1.85091
    D1       -2.56031  -0.00115   0.00000  -0.01684  -0.01673  -2.57705
    D2       -0.46592  -0.00253   0.00000  -0.02522  -0.02548  -0.49140
    D3        1.62848   0.00074   0.00000  -0.00373  -0.00359   1.62488
    D4        0.46507   0.00147   0.00000   0.02411   0.02423   0.48930
    D5        2.55946   0.00009   0.00000   0.01573   0.01548   2.57494
    D6       -1.62933   0.00337   0.00000   0.03723   0.03737  -1.59196
    D7       -1.04720  -0.00072   0.00000  -0.00505  -0.00526  -1.05245
    D8        3.14159  -0.00485   0.00000  -0.01907  -0.01843   3.12316
    D9        1.04720   0.00613   0.00000   0.03248   0.03205   1.07925
         Item               Value     Threshold  Converged?
 Maximum Force            0.076522     0.000450     NO 
 RMS     Force            0.016719     0.000300     NO 
 Maximum Displacement     0.370383     0.001800     NO 
 RMS     Displacement     0.104830     0.001200     NO 
 Predicted change in Energy=-1.747578D-02
 GradGradGradGradGradGradGradGradGradGradGradGradGradGradGradGradGradGrad

                          Input orientation:                          
 ---------------------------------------------------------------------
 Center     Atomic      Atomic             Coordinates (Angstroms)
 Number     Number       Type             X           Y           Z
 ---------------------------------------------------------------------
      1          6           0       -0.504036    0.715791    0.636051
      2          1           0        0.011370   -0.226802    0.657045
      3          1           0       -1.576291    0.719450    0.594383
      4          6           0        0.252380    2.000440    0.759567
      5          1           0       -0.350361    2.736347    1.267694
      6          1           0        1.158757    1.850409    1.330114
      7          8           0        0.598513    2.541398   -0.530467
      8          1           0        1.141629    1.885844   -0.953175
 ---------------------------------------------------------------------
                    Distance matrix (angstroms):
                    1          2          3          4          5
     1  C    0.000000
     2  H    1.074507   0.000000
     3  H    1.073071   1.849320   0.000000
     4  C    1.495909   2.242588   2.238808   0.000000
     5  H    2.122554   3.046965   2.454410   1.078448   0.000000
     6  H    2.129310   2.466642   3.049731   1.081458   1.751062
     7  O    2.430888   3.068852   3.051976   1.441052   2.042487
     8  H    2.569606   2.886792   3.338039   1.933230   2.807428
                    6          7          8
     6  H    0.000000
     7  O    2.062305   0.000000
     8  H    2.283628   0.950478   0.000000
 Stoichiometry    C2H5O(2)
 Framework group  C1[X(C2H5O)]
 Deg. of freedom    18
 Full point group                 C1      NOp   1
 Largest Abelian subgroup         C1      NOp   1
 Largest concise Abelian subgroup C1      NOp   1
                         Standard orientation:                         
 ---------------------------------------------------------------------
 Center     Atomic      Atomic             Coordinates (Angstroms)
 Number     Number       Type             X           Y           Z
 ---------------------------------------------------------------------
      1          6           0       -1.243642   -0.241376   -0.032639
      2          1           0       -1.699720   -0.665906    0.842765
      3          1           0       -1.746985   -0.333588   -0.975838
      4          6           0        0.022678    0.547691    0.074828
      5          1           0        0.040044    1.321889   -0.675749
      6          1           0        0.093670    1.015223    1.047416
      7          8           0        1.184994   -0.279119   -0.130206
      8          1           0        1.158824   -0.942558    0.549920
 ---------------------------------------------------------------------
 Rotational constants (GHZ):     37.0379069      9.6958308      8.6918686
 Standard basis: 6-31+G(d,p) (6D, 7F)
 There are    82 symmetry adapted basis functions of A   symmetry.
 Integral buffers will be    262144 words long.
 Raffenetti 2 integral format.
 Two-electron integral symmetry is turned on.
    82 basis functions,   131 primitive gaussians,    82 cartesian basis functions
    13 alpha electrons       12 beta electrons
       nuclear repulsion energy        74.7769033608 Hartrees.
 NAtoms=    8 NActive=    8 NUniq=    8 SFac= 7.50D-01 NAtFMM=   80 NAOKFM=F Big=F
 One-electron integrals computed using PRISM.
 NBasis=    82 RedAO= T  NBF=    82
 NBsUse=    82 1.00D-06 NBFU=    82
 Initial guess read from the read-write file.
 B after Tr=     0.000000    0.000000    0.000000
         Rot=    1.000000    0.000000    0.000000    0.000000 Ang=   0.00 deg.
 Initial guess orbital symmetries:
 Alpha Orbitals:
       Occupied  (A) (A) (A) (A) (A) (A) (A) (A) (A) (A) (A) (A)
                 (A)
       Virtual   (A) (A) (A) (A) (A) (A) (A) (A) (A) (A) (A) (A)
                 (A) (A) (A) (A) (A) (A) (A) (A) (A) (A) (A) (A)
                 (A) (A) (A) (A) (A) (A) (A) (A) (A) (A) (A) (A)
                 (A) (A) (A) (A) (A) (A) (A) (A) (A) (A) (A) (A)
                 (A) (A) (A) (A) (A) (A) (A) (A) (A) (A) (A) (A)
                 (A) (A) (A) (A) (A) (A) (A) (A) (A)
 Beta  Orbitals:
       Occupied  (A) (A) (A) (A) (A) (A) (A) (A) (A) (A) (A) (A)
       Virtual   (A) (A) (A) (A) (A) (A) (A) (A) (A) (A) (A) (A)
                 (A) (A) (A) (A) (A) (A) (A) (A) (A) (A) (A) (A)
                 (A) (A) (A) (A) (A) (A) (A) (A) (A) (A) (A) (A)
                 (A) (A) (A) (A) (A) (A) (A) (A) (A) (A) (A) (A)
                 (A) (A) (A) (A) (A) (A) (A) (A) (A) (A) (A) (A)
                 (A) (A) (A) (A) (A) (A) (A) (A) (A) (A)
 Initial guess <Sx>= 0.0000 <Sy>= 0.0000 <Sz>= 0.5000 <S**2>= 0.7623 S= 0.5061
 Harris functional with IExCor=  205 diagonalized for initial guess.
 ExpMin= 4.38D-02 ExpMax= 5.48D+03 ExpMxC= 8.25D+02 IAcc=2 IRadAn=         0 AccDes= 0.00D+00
 HarFok:  IExCor=  205 AccDes= 0.00D+00 IRadAn=         0 IDoV= 1
 ScaDFX=  1.000000  1.000000  1.000000  1.000000
 FoFCou: FMM=F IPFlag=           0 FMFlag=      100000 FMFlg1=           0
         NFxFlg=           0 DoJE=T BraDBF=F KetDBF=T FulRan=T
         Omega=  0.000000  0.000000  1.000000  0.000000  0.000000 ICntrl=     500 IOpCl=  0
         NMat0=    1 NMatS0=    1 NMatT0=    0 NMatD0=    1 NMtDS0=    0 NMtDT0=    0
         I1Cent=           4 NGrid=           0.
 Petite list used in FoFCou.
 Requested convergence on RMS density matrix=1.00D-08 within 128 cycles.
 Requested convergence on MAX density matrix=1.00D-06.
 Requested convergence on             energy=1.00D-06.
 No special actions if energy rises.
 Keep R1 and R2 ints in memory in canonical form, NReq=12443148.
 SCF Done:  E(UHF) =  -153.460459796     A.U. after   13 cycles
             Convg  =    0.7032D-08             -V/T =  2.0019
 <Sx>= 0.0000 <Sy>= 0.0000 <Sz>= 0.5000 <S**2>= 0.7623 S= 0.5062
 <L.S>= 0.000000000000E+00
 Annihilation of the first spin contaminant:
 S**2 before annihilation     0.7623,   after     0.7501
 Calling FoFJK, ICntrl=      2127 FMM=F ISym2X=0 I1Cent= 0 IOpClX= 1 NMat=1 NMatS=1 NMatT=0.
 ***** Axes restored to original set *****
 -------------------------------------------------------------------
 Center     Atomic                   Forces (Hartrees/Bohr)
 Number     Number              X              Y              Z
 -------------------------------------------------------------------
      1        6           0.000587449    0.001127765    0.005805455
      2        1          -0.000528972   -0.001522356   -0.001473356
      3        1          -0.001016001   -0.001222397   -0.002292740
      4        6           0.001525959    0.000856192   -0.016065448
      5        1           0.000511982    0.004666942   -0.002755329
      6        1           0.002488617    0.000569243    0.002439313
      7        8           0.000689258   -0.013103543    0.015738983
      8        1          -0.004258291    0.008628156   -0.001396878
 -------------------------------------------------------------------
 Cartesian Forces:  Max     0.016065448 RMS     0.006005402

 GradGradGradGradGradGradGradGradGradGradGradGradGradGradGradGradGradGrad
 Berny optimization.
 Using GEDIIS/GDIIS optimizer.
 Internal  Forces:  Max     0.015376376 RMS     0.004499915
 Search for a local minimum.
 Step number   2 out of a maximum of   36
 All quantities printed in internal units (Hartrees-Bohrs-Radians)
 Mixed Optimization -- RFO/linear search
 Update second derivatives using D2CorX and points    1    2
 DE= -1.37D-02 DEPred=-1.75D-02 R= 7.82D-01
 SS=  1.41D+00  RLast= 3.00D-01 DXNew= 5.0454D-01 8.9997D-01
 Trust test= 7.82D-01 RLast= 3.00D-01 DXMaxT set to 5.05D-01
 Use linear search instead of GDIIS.
     Eigenvalues ---    0.01065   0.01078   0.01295   0.06244   0.07498
     Eigenvalues ---    0.11626   0.13947   0.15981   0.16000   0.21269
     Eigenvalues ---    0.21961   0.34983   0.37038   0.37230   0.37230
     Eigenvalues ---    0.37236   0.46594   0.550681000.000001000.00000
     Eigenvalues --- 1000.000001000.000001000.000001000.000001000.00000
     Eigenvalues --- 1000.00000
 RFO step:  Lambda=-2.60375761D-03 EMin= 1.06526682D-02
 Quartic linear search produced a step of  0.21494.
 Iteration  1 RMS(Cart)=  0.04460926 RMS(Int)=  0.00315555
 Iteration  2 RMS(Cart)=  0.00244475 RMS(Int)=  0.00175773
 Iteration  3 RMS(Cart)=  0.00000221 RMS(Int)=  0.00175773
 Iteration  4 RMS(Cart)=  0.00000000 RMS(Int)=  0.00175773
 Variable       Old X    -DE/DX   Delta X   Delta X   Delta X     New X
                                 (Linear)    (Quad)   (Total)
    R1        2.03052   0.00105   0.00183   0.00144   0.00327   2.03380
    R2        2.02781   0.00110   0.00125   0.00222   0.00347   2.03128
    R3        2.82686   0.00170   0.00753  -0.00219   0.00533   2.83219
    R4        2.03797   0.00160   0.00343   0.00150   0.00493   2.04290
    R5        2.04366   0.00329   0.00465   0.00566   0.01032   2.05398
    R6        2.72319  -0.01538   0.00449  -0.05001  -0.04552   2.67767
    R7        1.79614  -0.00776  -0.00387  -0.01275  -0.01662   1.77952
    A1        2.07493  -0.00181  -0.00376  -0.00562  -0.01452   2.06042
    A2        2.10503   0.00094   0.00205   0.00853   0.00547   2.11051
    A3        2.10082   0.00101   0.00245   0.00866   0.00600   2.10682
    A4        1.92016   0.00264   0.00205   0.01746   0.01963   1.93979
    A5        1.92646  -0.00038   0.00340   0.01064   0.01349   1.93995
    A6        1.94971   0.00420   0.00840   0.01371   0.02181   1.97153
    A7        1.89073  -0.00022  -0.00428   0.00083  -0.00385   1.88688
    A8        1.87536  -0.00650  -0.00758  -0.05972  -0.06728   1.80807
    A9        1.89975  -0.00004  -0.00234   0.01502   0.01196   1.91171
   A10        1.85091   0.01049   0.06021   0.01303   0.07324   1.92415
    D1       -2.57705  -0.00245  -0.00360  -0.09495  -0.09846  -2.67551
    D2       -0.49140  -0.00129  -0.00548  -0.07619  -0.08164  -0.57304
    D3        1.62488   0.00125  -0.00077  -0.04047  -0.04086   1.58402
    D4        0.48930  -0.00033   0.00521   0.08594   0.09091   0.58021
    D5        2.57494   0.00084   0.00333   0.10471   0.10773   2.68268
    D6       -1.59196   0.00337   0.00803   0.14043   0.14851  -1.44344
    D7       -1.05245   0.00000  -0.00113   0.00306   0.00164  -1.05081
    D8        3.12316  -0.00157  -0.00396   0.01209   0.00850   3.13166
    D9        1.07925   0.00225   0.00689   0.03570   0.04251   1.12175
         Item               Value     Threshold  Converged?
 Maximum Force            0.015376     0.000450     NO 
 RMS     Force            0.004500     0.000300     NO 
 Maximum Displacement     0.107901     0.001800     NO 
 RMS     Displacement     0.044493     0.001200     NO 
 Predicted change in Energy=-1.521416D-03
 GradGradGradGradGradGradGradGradGradGradGradGradGradGradGradGradGradGrad

                          Input orientation:                          
 ---------------------------------------------------------------------
 Center     Atomic      Atomic             Coordinates (Angstroms)
 Number     Number       Type             X           Y           Z
 ---------------------------------------------------------------------
      1          6           0       -0.507066    0.704082    0.684780
      2          1           0       -0.000770   -0.245388    0.663328
      3          1           0       -1.571770    0.712684    0.537285
      4          6           0        0.264008    1.986297    0.771749
      5          1           0       -0.324972    2.764732    1.236316
      6          1           0        1.173508    1.858351    1.352978
      7          8           0        0.585528    2.525202   -0.498681
      8          1           0        1.113495    1.916917   -0.986542
 ---------------------------------------------------------------------
                    Distance matrix (angstroms):
                    1          2          3          4          5
     1  C    0.000000
     2  H    1.076239   0.000000
     3  H    1.074906   1.844405   0.000000
     4  C    1.498731   2.249952   2.246585   0.000000
     5  H    2.140942   3.081274   2.500810   1.081055   0.000000
     6  H    2.145497   2.506046   3.084552   1.086917   1.755158
     7  O    2.431218   3.061075   3.002063   1.416963   1.973980
     8  H    2.624977   2.939255   3.314042   1.953977   2.780121
                    6          7          8
     6  H    0.000000
     7  O    2.054033   0.000000
     8  H    2.341022   0.941684   0.000000
 Stoichiometry    C2H5O(2)
 Framework group  C1[X(C2H5O)]
 Deg. of freedom    18
 Full point group                 C1      NOp   1
 Largest Abelian subgroup         C1      NOp   1
 Largest concise Abelian subgroup C1      NOp   1
                         Standard orientation:                         
 ---------------------------------------------------------------------
 Center     Atomic      Atomic             Coordinates (Angstroms)
 Number     Number       Type             X           Y           Z
 ---------------------------------------------------------------------
      1          6           0       -1.259423   -0.212648   -0.024029
      2          1           0       -1.712997   -0.634363    0.856151
      3          1           0       -1.702602   -0.435955   -0.977522
      4          6           0        0.032724    0.541820    0.061586
      5          1           0        0.116921    1.263056   -0.739295
      6          1           0        0.114200    1.074220    1.005673
      7          8           0        1.168980   -0.286144   -0.114997
      8          1           0        1.192831   -0.952836    0.549623
 ---------------------------------------------------------------------
 Rotational constants (GHZ):     37.5853617      9.7238147      8.7335101
 Standard basis: 6-31+G(d,p) (6D, 7F)
 There are    82 symmetry adapted basis functions of A   symmetry.
 Integral buffers will be    262144 words long.
 Raffenetti 2 integral format.
 Two-electron integral symmetry is turned on.
    82 basis functions,   131 primitive gaussians,    82 cartesian basis functions
    13 alpha electrons       12 beta electrons
       nuclear repulsion energy        75.0735713758 Hartrees.
 NAtoms=    8 NActive=    8 NUniq=    8 SFac= 7.50D-01 NAtFMM=   80 NAOKFM=F Big=F
 One-electron integrals computed using PRISM.
 NBasis=    82 RedAO= T  NBF=    82
 NBsUse=    82 1.00D-06 NBFU=    82
 Initial guess read from the read-write file.
 B after Tr=     0.000000    0.000000    0.000000
         Rot=    1.000000    0.000000    0.000000    0.000000 Ang=   0.00 deg.
 Initial guess orbital symmetries:
 Alpha Orbitals:
       Occupied  (A) (A) (A) (A) (A) (A) (A) (A) (A) (A) (A) (A)
                 (A)
       Virtual   (A) (A) (A) (A) (A) (A) (A) (A) (A) (A) (A) (A)
                 (A) (A) (A) (A) (A) (A) (A) (A) (A) (A) (A) (A)
                 (A) (A) (A) (A) (A) (A) (A) (A) (A) (A) (A) (A)
                 (A) (A) (A) (A) (A) (A) (A) (A) (A) (A) (A) (A)
                 (A) (A) (A) (A) (A) (A) (A) (A) (A) (A) (A) (A)
                 (A) (A) (A) (A) (A) (A) (A) (A) (A)
 Beta  Orbitals:
       Occupied  (A) (A) (A) (A) (A) (A) (A) (A) (A) (A) (A) (A)
       Virtual   (A) (A) (A) (A) (A) (A) (A) (A) (A) (A) (A) (A)
                 (A) (A) (A) (A) (A) (A) (A) (A) (A) (A) (A) (A)
                 (A) (A) (A) (A) (A) (A) (A) (A) (A) (A) (A) (A)
                 (A) (A) (A) (A) (A) (A) (A) (A) (A) (A) (A) (A)
                 (A) (A) (A) (A) (A) (A) (A) (A) (A) (A) (A) (A)
                 (A) (A) (A) (A) (A) (A) (A) (A) (A) (A)
 Initial guess <Sx>= 0.0000 <Sy>= 0.0000 <Sz>= 0.5000 <S**2>= 0.7624 S= 0.5062
 Harris functional with IExCor=  205 diagonalized for initial guess.
 ExpMin= 4.38D-02 ExpMax= 5.48D+03 ExpMxC= 8.25D+02 IAcc=2 IRadAn=         0 AccDes= 0.00D+00
 HarFok:  IExCor=  205 AccDes= 0.00D+00 IRadAn=         0 IDoV= 1
 ScaDFX=  1.000000  1.000000  1.000000  1.000000
 FoFCou: FMM=F IPFlag=           0 FMFlag=      100000 FMFlg1=           0
         NFxFlg=           0 DoJE=T BraDBF=F KetDBF=T FulRan=T
         Omega=  0.000000  0.000000  1.000000  0.000000  0.000000 ICntrl=     500 IOpCl=  0
         NMat0=    1 NMatS0=    1 NMatT0=    0 NMatD0=    1 NMtDS0=    0 NMtDT0=    0
         I1Cent=           4 NGrid=           0.
 Petite list used in FoFCou.
 Requested convergence on RMS density matrix=1.00D-08 within 128 cycles.
 Requested convergence on MAX density matrix=1.00D-06.
 Requested convergence on             energy=1.00D-06.
 No special actions if energy rises.
 Keep R1 and R2 ints in memory in canonical form, NReq=12443148.
 SCF Done:  E(UHF) =  -153.462007920     A.U. after   14 cycles
             Convg  =    0.3827D-08             -V/T =  2.0017
 <Sx>= 0.0000 <Sy>= 0.0000 <Sz>= 0.5000 <S**2>= 0.7621 S= 0.5060
 <L.S>= 0.000000000000E+00
 Annihilation of the first spin contaminant:
 S**2 before annihilation     0.7621,   after     0.7501
 Calling FoFJK, ICntrl=      2127 FMM=F ISym2X=0 I1Cent= 0 IOpClX= 1 NMat=1 NMatS=1 NMatT=0.
 ***** Axes restored to original set *****
 -------------------------------------------------------------------
 Center     Atomic                   Forces (Hartrees/Bohr)
 Number     Number              X              Y              Z
 -------------------------------------------------------------------
      1        6           0.001057388    0.000809835    0.002883013
      2        1           0.000079628    0.000082940   -0.000327465
      3        1           0.000202773    0.000347035   -0.001123459
      4        6          -0.000286099    0.004083333   -0.004904858
      5        1          -0.000930180   -0.001820106    0.003120642
      6        1          -0.000715520   -0.001303561    0.000500725
      7        8          -0.000401898   -0.001052450    0.001231961
      8        1           0.000993909   -0.001147026   -0.001380559
 -------------------------------------------------------------------
 Cartesian Forces:  Max     0.004904858 RMS     0.001777377

 GradGradGradGradGradGradGradGradGradGradGradGradGradGradGradGradGradGrad
 Berny optimization.
 Using GEDIIS/GDIIS optimizer.
 Internal  Forces:  Max     0.003349849 RMS     0.001216002
 Search for a local minimum.
 Step number   3 out of a maximum of   36
 All quantities printed in internal units (Hartrees-Bohrs-Radians)
 Mixed Optimization -- RFO/linear search
 Update second derivatives using D2CorX and points    1    2    3
 DE= -1.55D-03 DEPred=-1.52D-03 R= 1.02D+00
 SS=  1.41D+00  RLast= 2.75D-01 DXNew= 8.4853D-01 8.2561D-01
 Trust test= 1.02D+00 RLast= 2.75D-01 DXMaxT set to 8.26D-01
 Use linear search instead of GDIIS.
     Eigenvalues ---    0.00946   0.01073   0.01293   0.06292   0.07631
     Eigenvalues ---    0.12812   0.14731   0.15967   0.16087   0.18197
     Eigenvalues ---    0.22383   0.35553   0.36938   0.37230   0.37231
     Eigenvalues ---    0.37274   0.46913   0.560791000.000001000.00000
     Eigenvalues --- 1000.000001000.000001000.000001000.000001000.00000
     Eigenvalues --- 1000.00000
 RFO step:  Lambda=-3.94499454D-04 EMin= 9.46386530D-03
 Quartic linear search produced a step of -0.04412.
 Iteration  1 RMS(Cart)=  0.01951264 RMS(Int)=  0.00064185
 Iteration  2 RMS(Cart)=  0.00051694 RMS(Int)=  0.00034438
 Iteration  3 RMS(Cart)=  0.00000014 RMS(Int)=  0.00034438
 Variable       Old X    -DE/DX   Delta X   Delta X   Delta X     New X
                                 (Linear)    (Quad)   (Total)
    R1        2.03380  -0.00003  -0.00014   0.00040   0.00025   2.03405
    R2        2.03128  -0.00004  -0.00015   0.00039   0.00023   2.03151
    R3        2.83219  -0.00183  -0.00024  -0.00419  -0.00443   2.82776
    R4        2.04290   0.00054  -0.00022   0.00209   0.00187   2.04477
    R5        2.05398  -0.00018  -0.00046   0.00103   0.00058   2.05455
    R6        2.67767  -0.00057   0.00201  -0.00771  -0.00570   2.67197
    R7        1.77952   0.00201   0.00073   0.00108   0.00181   1.78134
    A1        2.06042   0.00028   0.00064  -0.00333  -0.00370   2.05672
    A2        2.11051   0.00009  -0.00024  -0.00156  -0.00278   2.10772
    A3        2.10682  -0.00046  -0.00026  -0.00478  -0.00603   2.10079
    A4        1.93979  -0.00183  -0.00087  -0.00867  -0.00965   1.93014
    A5        1.93995  -0.00140  -0.00060  -0.01500  -0.01565   1.92430
    A6        1.97153  -0.00089  -0.00096   0.00133   0.00038   1.97191
    A7        1.88688   0.00003   0.00017  -0.00473  -0.00479   1.88209
    A8        1.80807   0.00335   0.00297   0.02224   0.02519   1.83327
    A9        1.91171   0.00108  -0.00053   0.00711   0.00657   1.91829
   A10        1.92415   0.00063  -0.00323   0.01443   0.01120   1.93535
    D1       -2.67551   0.00133   0.00434  -0.01227  -0.00795  -2.68346
    D2       -0.57304  -0.00081   0.00360  -0.03427  -0.03055  -0.60359
    D3        1.58402  -0.00112   0.00180  -0.03540  -0.03352   1.55050
    D4        0.58021   0.00220  -0.00401   0.08890   0.08475   0.66496
    D5        2.68268   0.00006  -0.00475   0.06690   0.06216   2.74483
    D6       -1.44344  -0.00025  -0.00655   0.06578   0.05918  -1.38426
    D7       -1.05081   0.00046  -0.00007   0.01552   0.01552  -1.03530
    D8        3.13166   0.00102  -0.00038   0.01122   0.01086  -3.14066
    D9        1.12175  -0.00118  -0.00188   0.00231   0.00036   1.12211
         Item               Value     Threshold  Converged?
 Maximum Force            0.003350     0.000450     NO 
 RMS     Force            0.001216     0.000300     NO 
 Maximum Displacement     0.061300     0.001800     NO 
 RMS     Displacement     0.019686     0.001200     NO 
 Predicted change in Energy=-2.006676D-04
 GradGradGradGradGradGradGradGradGradGradGradGradGradGradGradGradGradGrad

                          Input orientation:                          
 ---------------------------------------------------------------------
 Center     Atomic      Atomic             Coordinates (Angstroms)
 Number     Number       Type             X           Y           Z
 ---------------------------------------------------------------------
      1          6           0       -0.504499    0.710062    0.704588
      2          1           0        0.006715   -0.236245    0.662845
      3          1           0       -1.560768    0.719328    0.504847
      4          6           0        0.263470    1.992461    0.774267
      5          1           0       -0.324930    2.762699    1.255245
      6          1           0        1.172144    1.855912    1.355403
      7          8           0        0.581137    2.515666   -0.500327
      8          1           0        1.098691    1.902996   -0.995655
 ---------------------------------------------------------------------
                    Distance matrix (angstroms):
                    1          2          3          4          5
     1  C    0.000000
     2  H    1.076373   0.000000
     3  H    1.075029   1.842576   0.000000
     4  C    1.496389   2.246212   2.240826   0.000000
     5  H    2.132788   3.074832   2.503150   1.082045   0.000000
     6  H    2.132525   2.492987   3.079623   1.087223   1.753148
     7  O    2.427062   3.042359   2.970684   1.413946   1.990983
     8  H    2.623764   2.918799   3.274950   1.959138   2.798631
                    6          7          8
     6  H    0.000000
     7  O    2.056282   0.000000
     8  H    2.352676   0.942643   0.000000
 Stoichiometry    C2H5O(2)
 Framework group  C1[X(C2H5O)]
 Deg. of freedom    18
 Full point group                 C1      NOp   1
 Largest Abelian subgroup         C1      NOp   1
 Largest concise Abelian subgroup C1      NOp   1
                         Standard orientation:                         
 ---------------------------------------------------------------------
 Center     Atomic      Atomic             Coordinates (Angstroms)
 Number     Number       Type             X           Y           Z
 ---------------------------------------------------------------------
      1          6           0       -1.258467   -0.206963   -0.022988
      2          1           0       -1.695624   -0.645774    0.857307
      3          1           0       -1.669216   -0.481566   -0.977747
      4          6           0        0.033322    0.544076    0.057011
      5          1           0        0.098990    1.274056   -0.739003
      6          1           0        0.101619    1.075768    1.002893
      7          8           0        1.165692   -0.285676   -0.111788
      8          1           0        1.189569   -0.959754    0.546714
 ---------------------------------------------------------------------
 Rotational constants (GHZ):     37.3842235      9.7910024      8.7704203
 Standard basis: 6-31+G(d,p) (6D, 7F)
 There are    82 symmetry adapted basis functions of A   symmetry.
 Integral buffers will be    262144 words long.
 Raffenetti 2 integral format.
 Two-electron integral symmetry is turned on.
    82 basis functions,   131 primitive gaussians,    82 cartesian basis functions
    13 alpha electrons       12 beta electrons
       nuclear repulsion energy        75.1635378280 Hartrees.
 NAtoms=    8 NActive=    8 NUniq=    8 SFac= 7.50D-01 NAtFMM=   80 NAOKFM=F Big=F
 One-electron integrals computed using PRISM.
 NBasis=    82 RedAO= T  NBF=    82
 NBsUse=    82 1.00D-06 NBFU=    82
 Initial guess read from the read-write file.
 B after Tr=     0.000000    0.000000    0.000000
         Rot=    1.000000    0.000000    0.000000    0.000000 Ang=   0.00 deg.
 Initial guess orbital symmetries:
 Alpha Orbitals:
       Occupied  (A) (A) (A) (A) (A) (A) (A) (A) (A) (A) (A) (A)
                 (A)
       Virtual   (A) (A) (A) (A) (A) (A) (A) (A) (A) (A) (A) (A)
                 (A) (A) (A) (A) (A) (A) (A) (A) (A) (A) (A) (A)
                 (A) (A) (A) (A) (A) (A) (A) (A) (A) (A) (A) (A)
                 (A) (A) (A) (A) (A) (A) (A) (A) (A) (A) (A) (A)
                 (A) (A) (A) (A) (A) (A) (A) (A) (A) (A) (A) (A)
                 (A) (A) (A) (A) (A) (A) (A) (A) (A)
 Beta  Orbitals:
       Occupied  (A) (A) (A) (A) (A) (A) (A) (A) (A) (A) (A) (A)
       Virtual   (A) (A) (A) (A) (A) (A) (A) (A) (A) (A) (A) (A)
                 (A) (A) (A) (A) (A) (A) (A) (A) (A) (A) (A) (A)
                 (A) (A) (A) (A) (A) (A) (A) (A) (A) (A) (A) (A)
                 (A) (A) (A) (A) (A) (A) (A) (A) (A) (A) (A) (A)
                 (A) (A) (A) (A) (A) (A) (A) (A) (A) (A) (A) (A)
                 (A) (A) (A) (A) (A) (A) (A) (A) (A) (A)
 Initial guess <Sx>= 0.0000 <Sy>= 0.0000 <Sz>= 0.5000 <S**2>= 0.7621 S= 0.5060
 Harris functional with IExCor=  205 diagonalized for initial guess.
 ExpMin= 4.38D-02 ExpMax= 5.48D+03 ExpMxC= 8.25D+02 IAcc=2 IRadAn=         0 AccDes= 0.00D+00
 HarFok:  IExCor=  205 AccDes= 0.00D+00 IRadAn=         0 IDoV= 1
 ScaDFX=  1.000000  1.000000  1.000000  1.000000
 FoFCou: FMM=F IPFlag=           0 FMFlag=      100000 FMFlg1=           0
         NFxFlg=           0 DoJE=T BraDBF=F KetDBF=T FulRan=T
         Omega=  0.000000  0.000000  1.000000  0.000000  0.000000 ICntrl=     500 IOpCl=  0
         NMat0=    1 NMatS0=    1 NMatT0=    0 NMatD0=    1 NMtDS0=    0 NMtDT0=    0
         I1Cent=           4 NGrid=           0.
 Petite list used in FoFCou.
 Requested convergence on RMS density matrix=1.00D-08 within 128 cycles.
 Requested convergence on MAX density matrix=1.00D-06.
 Requested convergence on             energy=1.00D-06.
 No special actions if energy rises.
 Keep R1 and R2 ints in memory in canonical form, NReq=12443148.
 SCF Done:  E(UHF) =  -153.462231350     A.U. after   13 cycles
             Convg  =    0.5857D-08             -V/T =  2.0017
 <Sx>= 0.0000 <Sy>= 0.0000 <Sz>= 0.5000 <S**2>= 0.7619 S= 0.5059
 <L.S>= 0.000000000000E+00
 Annihilation of the first spin contaminant:
 S**2 before annihilation     0.7619,   after     0.7501
 Calling FoFJK, ICntrl=      2127 FMM=F ISym2X=0 I1Cent= 0 IOpClX= 1 NMat=1 NMatS=1 NMatT=0.
 ***** Axes restored to original set *****
 -------------------------------------------------------------------
 Center     Atomic                   Forces (Hartrees/Bohr)
 Number     Number              X              Y              Z
 -------------------------------------------------------------------
      1        6          -0.000486441   -0.000540888    0.000595126
      2        1           0.000079107   -0.000062783    0.000113243
      3        1          -0.000111053    0.000090355   -0.000599321
      4        6           0.001258773    0.000340816   -0.001029405
      5        1           0.000123321   -0.000307298    0.000044119
      6        1          -0.000014997    0.000101072   -0.000087246
      7        8          -0.001090862    0.001472576    0.000462281
      8        1           0.000242152   -0.001093849    0.000501202
 -------------------------------------------------------------------
 Cartesian Forces:  Max     0.001472576 RMS     0.000620972

 GradGradGradGradGradGradGradGradGradGradGradGradGradGradGradGradGradGrad
 Berny optimization.
 Using GEDIIS/GDIIS optimizer.
 Internal  Forces:  Max     0.001924057 RMS     0.000481634
 Search for a local minimum.
 Step number   4 out of a maximum of   36
 All quantities printed in internal units (Hartrees-Bohrs-Radians)
 Mixed Optimization -- En-DIIS/RFO-DIIS
 Update second derivatives using D2CorX and points    1    2    3    4
 DE= -2.23D-04 DEPred=-2.01D-04 R= 1.11D+00
 SS=  1.41D+00  RLast= 1.35D-01 DXNew= 1.3885D+00 4.0594D-01
 Trust test= 1.11D+00 RLast= 1.35D-01 DXMaxT set to 8.26D-01
 Use linear search instead of GDIIS.
     Eigenvalues ---    0.00698   0.01133   0.01294   0.06406   0.07747
     Eigenvalues ---    0.13422   0.14471   0.15976   0.16037   0.21128
     Eigenvalues ---    0.22454   0.36253   0.36942   0.37231   0.37234
     Eigenvalues ---    0.37542   0.46769   0.559231000.000001000.00000
     Eigenvalues --- 1000.000001000.000001000.000001000.000001000.00000
     Eigenvalues --- 1000.00000
 RFO step:  Lambda=-5.78949761D-05 EMin= 6.97725058D-03
 Quartic linear search produced a step of  0.11753.
 Iteration  1 RMS(Cart)=  0.01259292 RMS(Int)=  0.00025071
 Iteration  2 RMS(Cart)=  0.00018202 RMS(Int)=  0.00013079
 Iteration  3 RMS(Cart)=  0.00000003 RMS(Int)=  0.00013079
 Variable       Old X    -DE/DX   Delta X   Delta X   Delta X     New X
                                 (Linear)    (Quad)   (Total)
    R1        2.03405   0.00009   0.00003   0.00040   0.00043   2.03448
    R2        2.03151   0.00022   0.00003   0.00074   0.00077   2.03228
    R3        2.82776   0.00070  -0.00052   0.00272   0.00220   2.82997
    R4        2.04477  -0.00027   0.00022  -0.00050  -0.00028   2.04448
    R5        2.05455  -0.00007   0.00007   0.00012   0.00019   2.05474
    R6        2.67197  -0.00092  -0.00067  -0.00200  -0.00267   2.66930
    R7        1.78134   0.00058   0.00021   0.00098   0.00119   1.78253
    A1        2.05672   0.00010  -0.00043  -0.00133  -0.00215   2.05457
    A2        2.10772   0.00001  -0.00033  -0.00140  -0.00211   2.10561
    A3        2.10079  -0.00015  -0.00071  -0.00250  -0.00359   2.09719
    A4        1.93014  -0.00015  -0.00113  -0.00220  -0.00335   1.92679
    A5        1.92430   0.00017  -0.00184   0.00215   0.00030   1.92460
    A6        1.97191  -0.00010   0.00004   0.00034   0.00039   1.97230
    A7        1.88209  -0.00004  -0.00056  -0.00130  -0.00189   1.88020
    A8        1.83327   0.00002   0.00296  -0.00102   0.00194   1.83521
    A9        1.91829   0.00010   0.00077   0.00178   0.00254   1.92083
   A10        1.93535  -0.00192   0.00132  -0.00717  -0.00585   1.92950
    D1       -2.68346   0.00003  -0.00093   0.00574   0.00482  -2.67864
    D2       -0.60359  -0.00001  -0.00359   0.00410   0.00055  -0.60304
    D3        1.55050   0.00017  -0.00394   0.00828   0.00437   1.55487
    D4        0.66496   0.00030   0.00996   0.03569   0.04561   0.71057
    D5        2.74483   0.00026   0.00731   0.03405   0.04134   2.78618
    D6       -1.38426   0.00044   0.00696   0.03823   0.04516  -1.33910
    D7       -1.03530  -0.00012   0.00182   0.00014   0.00197  -1.03333
    D8       -3.14066   0.00011   0.00128   0.00330   0.00459  -3.13608
    D9        1.12211   0.00010   0.00004   0.00451   0.00455   1.12666
         Item               Value     Threshold  Converged?
 Maximum Force            0.001924     0.000450     NO 
 RMS     Force            0.000482     0.000300     NO 
 Maximum Displacement     0.047943     0.001800     NO 
 RMS     Displacement     0.012617     0.001200     NO 
 Predicted change in Energy=-3.198435D-05
 GradGradGradGradGradGradGradGradGradGradGradGradGradGradGradGradGradGrad

                          Input orientation:                          
 ---------------------------------------------------------------------
 Center     Atomic      Atomic             Coordinates (Angstroms)
 Number     Number       Type             X           Y           Z
 ---------------------------------------------------------------------
      1          6           0       -0.504622    0.710752    0.712651
      2          1           0        0.007249   -0.235481    0.671456
      3          1           0       -1.554414    0.722134    0.479476
      4          6           0        0.265947    1.993269    0.776226
      5          1           0       -0.320401    2.761758    1.262144
      6          1           0        1.177045    1.857109    1.353835
      7          8           0        0.574609    2.515624   -0.499362
      8          1           0        1.086547    1.897714   -0.995214
 ---------------------------------------------------------------------
                    Distance matrix (angstroms):
                    1          2          3          4          5
     1  C    0.000000
     2  H    1.076599   0.000000
     3  H    1.075436   1.841921   0.000000
     4  C    1.497555   2.246159   2.239991   0.000000
     5  H    2.131316   3.072411   2.509068   1.081895   0.000000
     6  H    2.133836   2.492588   3.084402   1.087322   1.751897
     7  O    2.427195   3.043237   2.950841   1.412534   1.991112
     8  H    2.618684   2.914309   3.245208   1.954614   2.796738
                    6          7          8
     6  H    0.000000
     7  O    2.056917   0.000000
     8  H    2.351142   0.943273   0.000000
 Stoichiometry    C2H5O(2)
 Framework group  C1[X(C2H5O)]
 Deg. of freedom    18
 Full point group                 C1      NOp   1
 Largest Abelian subgroup         C1      NOp   1
 Largest concise Abelian subgroup C1      NOp   1
                         Standard orientation:                         
 ---------------------------------------------------------------------
 Center     Atomic      Atomic             Coordinates (Angstroms)
 Number     Number       Type             X           Y           Z
 ---------------------------------------------------------------------
      1          6           0       -1.260007   -0.203004   -0.022352
      2          1           0       -1.699811   -0.627205    0.864040
      3          1           0       -1.646944   -0.520974   -0.974055
      4          6           0        0.035055    0.545367    0.051302
      5          1           0        0.100346    1.266067   -0.752953
      6          1           0        0.102660    1.089831    0.990055
      7          8           0        1.164192   -0.288343   -0.107531
      8          1           0        1.179925   -0.955153    0.559463
 ---------------------------------------------------------------------
 Rotational constants (GHZ):     37.3028144      9.8084978      8.7788921
 Standard basis: 6-31+G(d,p) (6D, 7F)
 There are    82 symmetry adapted basis functions of A   symmetry.
 Integral buffers will be    262144 words long.
 Raffenetti 2 integral format.
 Two-electron integral symmetry is turned on.
    82 basis functions,   131 primitive gaussians,    82 cartesian basis functions
    13 alpha electrons       12 beta electrons
       nuclear repulsion energy        75.1833613893 Hartrees.
 NAtoms=    8 NActive=    8 NUniq=    8 SFac= 7.50D-01 NAtFMM=   80 NAOKFM=F Big=F
 One-electron integrals computed using PRISM.
 NBasis=    82 RedAO= T  NBF=    82
 NBsUse=    82 1.00D-06 NBFU=    82
 Initial guess read from the read-write file.
 B after Tr=     0.000000    0.000000    0.000000
         Rot=    1.000000    0.000000    0.000000    0.000000 Ang=   0.00 deg.
 Initial guess orbital symmetries:
 Alpha Orbitals:
       Occupied  (A) (A) (A) (A) (A) (A) (A) (A) (A) (A) (A) (A)
                 (A)
       Virtual   (A) (A) (A) (A) (A) (A) (A) (A) (A) (A) (A) (A)
                 (A) (A) (A) (A) (A) (A) (A) (A) (A) (A) (A) (A)
                 (A) (A) (A) (A) (A) (A) (A) (A) (A) (A) (A) (A)
                 (A) (A) (A) (A) (A) (A) (A) (A) (A) (A) (A) (A)
                 (A) (A) (A) (A) (A) (A) (A) (A) (A) (A) (A) (A)
                 (A) (A) (A) (A) (A) (A) (A) (A) (A)
 Beta  Orbitals:
       Occupied  (A) (A) (A) (A) (A) (A) (A) (A) (A) (A) (A) (A)
       Virtual   (A) (A) (A) (A) (A) (A) (A) (A) (A) (A) (A) (A)
                 (A) (A) (A) (A) (A) (A) (A) (A) (A) (A) (A) (A)
                 (A) (A) (A) (A) (A) (A) (A) (A) (A) (A) (A) (A)
                 (A) (A) (A) (A) (A) (A) (A) (A) (A) (A) (A) (A)
                 (A) (A) (A) (A) (A) (A) (A) (A) (A) (A) (A) (A)
                 (A) (A) (A) (A) (A) (A) (A) (A) (A) (A)
 Initial guess <Sx>= 0.0000 <Sy>= 0.0000 <Sz>= 0.5000 <S**2>= 0.7619 S= 0.5059
 Harris functional with IExCor=  205 diagonalized for initial guess.
 ExpMin= 4.38D-02 ExpMax= 5.48D+03 ExpMxC= 8.25D+02 IAcc=2 IRadAn=         0 AccDes= 0.00D+00
 HarFok:  IExCor=  205 AccDes= 0.00D+00 IRadAn=         0 IDoV= 1
 ScaDFX=  1.000000  1.000000  1.000000  1.000000
 FoFCou: FMM=F IPFlag=           0 FMFlag=      100000 FMFlg1=           0
         NFxFlg=           0 DoJE=T BraDBF=F KetDBF=T FulRan=T
         Omega=  0.000000  0.000000  1.000000  0.000000  0.000000 ICntrl=     500 IOpCl=  0
         NMat0=    1 NMatS0=    1 NMatT0=    0 NMatD0=    1 NMtDS0=    0 NMtDT0=    0
         I1Cent=           4 NGrid=           0.
 Petite list used in FoFCou.
 Requested convergence on RMS density matrix=1.00D-08 within 128 cycles.
 Requested convergence on MAX density matrix=1.00D-06.
 Requested convergence on             energy=1.00D-06.
 No special actions if energy rises.
 Keep R1 and R2 ints in memory in canonical form, NReq=12443148.
 SCF Done:  E(UHF) =  -153.462275477     A.U. after   12 cycles
             Convg  =    0.8607D-08             -V/T =  2.0017
 <Sx>= 0.0000 <Sy>= 0.0000 <Sz>= 0.5000 <S**2>= 0.7618 S= 0.5059
 <L.S>= 0.000000000000E+00
 Annihilation of the first spin contaminant:
 S**2 before annihilation     0.7618,   after     0.7501
 Calling FoFJK, ICntrl=      2127 FMM=F ISym2X=0 I1Cent= 0 IOpClX= 1 NMat=1 NMatS=1 NMatT=0.
 ***** Axes restored to original set *****
 -------------------------------------------------------------------
 Center     Atomic                   Forces (Hartrees/Bohr)
 Number     Number              X              Y              Z
 -------------------------------------------------------------------
      1        6           0.000052834   -0.000260715   -0.000352279
      2        1          -0.000023433   -0.000075205    0.000368374
      3        1           0.000007288    0.000141945   -0.000248468
      4        6           0.000196350   -0.000099847    0.000471510
      5        1           0.000089225    0.000053448   -0.000006619
      6        1           0.000035994   -0.000000699   -0.000336989
      7        8          -0.000298084    0.000466664   -0.000267359
      8        1          -0.000060174   -0.000225592    0.000371829
 -------------------------------------------------------------------
 Cartesian Forces:  Max     0.000471510 RMS     0.000240325

 GradGradGradGradGradGradGradGradGradGradGradGradGradGradGradGradGradGrad
 Berny optimization.
 Using GEDIIS/GDIIS optimizer.
 Internal  Forces:  Max     0.000769372 RMS     0.000208164
 Search for a local minimum.
 Step number   5 out of a maximum of   36
 All quantities printed in internal units (Hartrees-Bohrs-Radians)
 Mixed Optimization -- En-DIIS/RFO-DIIS
 Swaping is turned off.
 Update second derivatives using D2CorX and points    2    3    4    5
 DE= -4.41D-05 DEPred=-3.20D-05 R= 1.38D+00
 SS=  1.41D+00  RLast= 7.75D-02 DXNew= 1.3885D+00 2.3264D-01
 Trust test= 1.38D+00 RLast= 7.75D-02 DXMaxT set to 8.26D-01
     Eigenvalues ---    0.00380   0.01294   0.01465   0.06580   0.07967
     Eigenvalues ---    0.13652   0.14825   0.15962   0.16178   0.19246
     Eigenvalues ---    0.22502   0.36181   0.36947   0.37196   0.37232
     Eigenvalues ---    0.37590   0.46509   0.564511000.000001000.00000
     Eigenvalues --- 1000.000001000.000001000.000001000.000001000.00000
     Eigenvalues --- 1000.00000
 En-DIIS/RFO-DIIS IScMMF=        0 using points:     5    4
 RFO step:  Lambda=-4.79616413D-06.
 DIIS coeffs:      1.62675     -0.62675
 Iteration  1 RMS(Cart)=  0.01717567 RMS(Int)=  0.00027549
 Iteration  2 RMS(Cart)=  0.00025108 RMS(Int)=  0.00007264
 Iteration  3 RMS(Cart)=  0.00000005 RMS(Int)=  0.00007264
 Variable       Old X    -DE/DX   Delta X   Delta X   Delta X     New X
                                  (DIIS)     (GDIIS)  (Total)
    R1        2.03448   0.00004   0.00027   0.00017   0.00044   2.03492
    R2        2.03228   0.00005   0.00048   0.00010   0.00058   2.03286
    R3        2.82997   0.00016   0.00138  -0.00001   0.00137   2.83134
    R4        2.04448  -0.00001  -0.00018   0.00035   0.00017   2.04466
    R5        2.05474  -0.00015   0.00012  -0.00043  -0.00032   2.05443
    R6        2.66930  -0.00008  -0.00167  -0.00006  -0.00173   2.66757
    R7        1.78253  -0.00008   0.00075  -0.00034   0.00040   1.78293
    A1        2.05457   0.00008  -0.00135   0.00091  -0.00066   2.05391
    A2        2.10561   0.00018  -0.00132   0.00211   0.00057   2.10619
    A3        2.09719  -0.00025  -0.00225  -0.00198  -0.00444   2.09275
    A4        1.92679   0.00018  -0.00210   0.00140  -0.00070   1.92609
    A5        1.92460   0.00014   0.00019  -0.00019  -0.00001   1.92459
    A6        1.97230  -0.00026   0.00024  -0.00198  -0.00174   1.97056
    A7        1.88020   0.00003  -0.00119   0.00112  -0.00007   1.88012
    A8        1.83521  -0.00008   0.00122   0.00045   0.00167   1.83688
    A9        1.92083   0.00000   0.00159  -0.00061   0.00098   1.92180
   A10        1.92950  -0.00077  -0.00367  -0.00195  -0.00561   1.92388
    D1       -2.67864   0.00009   0.00302   0.02499   0.02803  -2.65061
    D2       -0.60304   0.00031   0.00034   0.02713   0.02749  -0.57555
    D3        1.55487   0.00023   0.00274   0.02475   0.02750   1.58237
    D4        0.71057   0.00002   0.02859   0.01999   0.04856   0.75914
    D5        2.78618   0.00024   0.02591   0.02213   0.04803   2.83420
    D6       -1.33910   0.00016   0.02831   0.01974   0.04803  -1.29106
    D7       -1.03333   0.00001   0.00123   0.00163   0.00286  -1.03047
    D8       -3.13608  -0.00001   0.00287   0.00073   0.00361  -3.13247
    D9        1.12666   0.00000   0.00285  -0.00052   0.00233   1.12899
         Item               Value     Threshold  Converged?
 Maximum Force            0.000769     0.000450     NO 
 RMS     Force            0.000208     0.000300     YES
 Maximum Displacement     0.061631     0.001800     NO 
 RMS     Displacement     0.017193     0.001200     NO 
 Predicted change in Energy=-2.203678D-05
 GradGradGradGradGradGradGradGradGradGradGradGradGradGradGradGradGradGrad

                          Input orientation:                          
 ---------------------------------------------------------------------
 Center     Atomic      Atomic             Coordinates (Angstroms)
 Number     Number       Type             X           Y           Z
 ---------------------------------------------------------------------
      1          6           0       -0.504172    0.711419    0.716089
      2          1           0        0.005912   -0.236663    0.693321
      3          1           0       -1.545591    0.725170    0.446863
      4          6           0        0.268285    1.993710    0.778380
      5          1           0       -0.314235    2.760437    1.271828
      6          1           0        1.183354    1.854859    1.348710
      7          8           0        0.566624    2.517925   -0.497884
      8          1           0        1.071784    1.896022   -0.996095
 ---------------------------------------------------------------------
                    Distance matrix (angstroms):
                    1          2          3          4          5
     1  C    0.000000
     2  H    1.076831   0.000000
     3  H    1.075744   1.842017   0.000000
     4  C    1.498279   2.247363   2.238134   0.000000
     5  H    2.131524   3.069165   2.517760   1.081985   0.000000
     6  H    2.134341   2.488046   3.088150   1.087155   1.751787
     7  O    2.425655   3.053052   2.927109   1.411616   1.991634
     8  H    2.611225   2.922080   3.209933   1.950363   2.794949
                    6          7          8
     6  H    0.000000
     7  O    2.056678   0.000000
     8  H    2.347819   0.943485   0.000000
 Stoichiometry    C2H5O(2)
 Framework group  C1[X(C2H5O)]
 Deg. of freedom    18
 Full point group                 C1      NOp   1
 Largest Abelian subgroup         C1      NOp   1
 Largest concise Abelian subgroup C1      NOp   1
                         Standard orientation:                         
 ---------------------------------------------------------------------
 Center     Atomic      Atomic             Coordinates (Angstroms)
 Number     Number       Type             X           Y           Z
 ---------------------------------------------------------------------
      1          6           0       -1.259987   -0.201166   -0.022228
      2          1           0       -1.715407   -0.590171    0.872663
      3          1           0       -1.619587   -0.569678   -0.966745
      4          6           0        0.036336    0.547253    0.043023
      5          1           0        0.103166    1.256032   -0.771751
      6          1           0        0.102533    1.105495    0.973555
      7          8           0        1.162708   -0.291298   -0.101119
      8          1           0        1.169538   -0.947812    0.576456
 ---------------------------------------------------------------------
 Rotational constants (GHZ):     37.2144690      9.8317644      8.7904495
 Standard basis: 6-31+G(d,p) (6D, 7F)
 There are    82 symmetry adapted basis functions of A   symmetry.
 Integral buffers will be    262144 words long.
 Raffenetti 2 integral format.
 Two-electron integral symmetry is turned on.
    82 basis functions,   131 primitive gaussians,    82 cartesian basis functions
    13 alpha electrons       12 beta electrons
       nuclear repulsion energy        75.2084168390 Hartrees.
 NAtoms=    8 NActive=    8 NUniq=    8 SFac= 7.50D-01 NAtFMM=   80 NAOKFM=F Big=F
 One-electron integrals computed using PRISM.
 NBasis=    82 RedAO= T  NBF=    82
 NBsUse=    82 1.00D-06 NBFU=    82
 Initial guess read from the read-write file.
 B after Tr=     0.000000    0.000000    0.000000
         Rot=    1.000000    0.000000    0.000000    0.000000 Ang=   0.00 deg.
 Initial guess orbital symmetries:
 Alpha Orbitals:
       Occupied  (A) (A) (A) (A) (A) (A) (A) (A) (A) (A) (A) (A)
                 (A)
       Virtual   (A) (A) (A) (A) (A) (A) (A) (A) (A) (A) (A) (A)
                 (A) (A) (A) (A) (A) (A) (A) (A) (A) (A) (A) (A)
                 (A) (A) (A) (A) (A) (A) (A) (A) (A) (A) (A) (A)
                 (A) (A) (A) (A) (A) (A) (A) (A) (A) (A) (A) (A)
                 (A) (A) (A) (A) (A) (A) (A) (A) (A) (A) (A) (A)
                 (A) (A) (A) (A) (A) (A) (A) (A) (A)
 Beta  Orbitals:
       Occupied  (A) (A) (A) (A) (A) (A) (A) (A) (A) (A) (A) (A)
       Virtual   (A) (A) (A) (A) (A) (A) (A) (A) (A) (A) (A) (A)
                 (A) (A) (A) (A) (A) (A) (A) (A) (A) (A) (A) (A)
                 (A) (A) (A) (A) (A) (A) (A) (A) (A) (A) (A) (A)
                 (A) (A) (A) (A) (A) (A) (A) (A) (A) (A) (A) (A)
                 (A) (A) (A) (A) (A) (A) (A) (A) (A) (A) (A) (A)
                 (A) (A) (A) (A) (A) (A) (A) (A) (A) (A)
 Initial guess <Sx>= 0.0000 <Sy>= 0.0000 <Sz>= 0.5000 <S**2>= 0.7618 S= 0.5059
 Harris functional with IExCor=  205 diagonalized for initial guess.
 ExpMin= 4.38D-02 ExpMax= 5.48D+03 ExpMxC= 8.25D+02 IAcc=2 IRadAn=         0 AccDes= 0.00D+00
 HarFok:  IExCor=  205 AccDes= 0.00D+00 IRadAn=         0 IDoV= 1
 ScaDFX=  1.000000  1.000000  1.000000  1.000000
 FoFCou: FMM=F IPFlag=           0 FMFlag=      100000 FMFlg1=           0
         NFxFlg=           0 DoJE=T BraDBF=F KetDBF=T FulRan=T
[...]
  Atom  AN      X      Y      Z        X      Y      Z        X      Y      Z
     1   6    -0.01  -0.02   0.02     0.02  -0.04   0.01    -0.11   0.05   0.00
     2   1    -0.09   0.10  -0.03    -0.21   0.33  -0.11     0.25  -0.51   0.23
     3   1     0.02  -0.03   0.00    -0.26  -0.02   0.06     0.64   0.01  -0.15
     4   6     0.05   0.03   0.06     0.12  -0.02  -0.03     0.09  -0.02  -0.02
     5   1     0.32   0.20  -0.02    -0.65  -0.07  -0.03    -0.24  -0.09   0.01
     6   1    -0.69  -0.13  -0.03    -0.48   0.07   0.06    -0.30  -0.03   0.00
     7   8     0.03   0.00  -0.07    -0.02   0.02   0.03    -0.01   0.01   0.01
     8   1    -0.50  -0.25   0.15     0.25   0.12  -0.07     0.09   0.05  -0.03
                    13                     14                     15
                     A                      A                      A
 Frequencies --  1631.9977              3165.4090              3200.3618
 Red. masses --     1.0837                 1.0617                 1.1011
 Frc consts  --     1.7005                 6.2678                 6.6447
 IR Inten    --     0.6535                69.1831                42.8990
  Atom  AN      X      Y      Z        X      Y      Z        X      Y      Z
     1   6     0.00   0.00   0.00     0.00   0.00   0.00     0.00   0.00   0.00
     2   1    -0.02   0.05  -0.01    -0.03  -0.02   0.01    -0.01   0.00   0.00
     3   1    -0.04  -0.01   0.00     0.00   0.00   0.00     0.00  -0.02   0.01
     4   6     0.00   0.08   0.01     0.01  -0.07   0.02     0.00   0.01   0.09
     5   1    -0.02  -0.57   0.40    -0.01   0.23   0.40     0.04  -0.48  -0.75
     6   1    -0.02  -0.52  -0.48    -0.03   0.56  -0.68    -0.02   0.30  -0.34
     7   8     0.00   0.01   0.00     0.00   0.00   0.00     0.00   0.00   0.00
     8   1     0.00   0.01   0.00     0.00   0.00   0.00     0.00   0.00   0.01
                    16                     17                     18
                     A                      A                      A
 Frequencies --  3294.7371              3402.9740              4182.9138
 Red. masses --     1.0518                 1.1193                 1.0671
 Frc consts  --     6.7268                 7.6368                11.0003
 IR Inten    --     8.9819                15.7190                52.0843
  Atom  AN      X      Y      Z        X      Y      Z        X      Y      Z
     1   6    -0.06   0.03  -0.01    -0.05  -0.07   0.05     0.00   0.00   0.00
     2   1     0.60   0.30  -0.24     0.59   0.28  -0.23     0.00   0.00   0.00
     3   1     0.03  -0.60   0.35    -0.04   0.61  -0.36     0.00   0.00   0.00
     4   6     0.00   0.00   0.00     0.00   0.00   0.00     0.00   0.00   0.00
     5   1     0.00   0.01   0.02     0.00   0.00   0.00     0.00   0.00  -0.01
     6   1     0.00   0.01  -0.01     0.00   0.03  -0.03     0.00   0.00   0.00
     7   8     0.00   0.00   0.00     0.00   0.00   0.00     0.00   0.04   0.05
     8   1     0.00   0.00   0.00     0.00   0.00   0.00    -0.05  -0.57  -0.82

 -------------------
 - Thermochemistry -
 -------------------
 Temperature   298.150 Kelvin.  Pressure   1.00000 Atm.
 Atom     1 has atomic number  6 and mass  12.00000
 Atom     2 has atomic number  1 and mass   1.00783
 Atom     3 has atomic number  1 and mass   1.00783
 Atom     4 has atomic number  6 and mass  12.00000
 Atom     5 has atomic number  1 and mass   1.00783
 Atom     6 has atomic number  1 and mass   1.00783
 Atom     7 has atomic number  8 and mass  15.99491
 Atom     8 has atomic number  1 and mass   1.00783
 Molecular mass:    45.03404 amu.
 Principal axes and moments of inertia in atomic units:
                           1         2         3
     Eigenvalues --    46.01289 181.50380 209.39158
           X            0.99985  -0.00833   0.01492
           Y            0.00842   0.99995  -0.00615
           Z           -0.01487   0.00627   0.99987
 This molecule is an asymmetric top.
 Rotational symmetry number  1.
 Rotational temperatures (Kelvin)      1.88238     0.47720     0.41365
 Rotational constants (GHZ):          39.22252     9.94327     8.61898
 Zero-point vibrational energy     183142.3 (Joules/Mol)
                                   43.77207 (Kcal/Mol)
 Warning -- explicit consideration of   4 degrees of freedom as
           vibrations may cause significant error
 Vibrational temperatures:    297.05   494.00   656.15   777.96  1306.29
          (Kelvin)           1479.71  1697.67  1759.28  1826.89  2120.91
                             2203.28  2272.93  2348.08  4554.31  4604.60
                             4740.39  4896.11  6018.27
 
 Zero-point correction=                           0.069755 (Hartree/Particle)
 Thermal correction to Energy=                    0.074109
 Thermal correction to Enthalpy=                  0.075053
 Thermal correction to Gibbs Free Energy=         0.043796
 Sum of electronic and zero-point Energies=           -153.393653
 Sum of electronic and thermal Energies=              -153.389299
 Sum of electronic and thermal Enthalpies=            -153.388355
 Sum of electronic and thermal Free Energies=         -153.419612
 
                     E (Thermal)             CV                S
                      KCal/Mol        Cal/Mol-Kelvin    Cal/Mol-Kelvin
 Total                   46.504             13.550             65.786
 Electronic               0.000              0.000              1.377
 Translational            0.889              2.981             37.340
 Rotational               0.889              2.981             22.085
 Vibrational             44.727              7.589              4.984
 Vibration     1          0.641              1.831              2.075
 Vibration     2          0.722              1.589              1.197
 Vibration     3          0.814              1.348              0.778
 Vibration     4          0.896              1.160              0.564
                       Q            Log10(Q)             Ln(Q)
 Total Bot       0.716495D-20        -20.144787        -46.385086
 Total V=0       0.871617D+12         11.940326         27.493616
 Vib (Bot)       0.201469D-31        -31.695792        -72.982258
 Vib (Bot)    1  0.963368D+00         -0.016208         -0.037320
 Vib (Bot)    2  0.539664D+00         -0.267877         -0.616809
 Vib (Bot)    3  0.374178D+00         -0.426922         -0.983024
 Vib (Bot)    4  0.292817D+00         -0.533404         -1.228208
 Vib (V=0)       0.245087D+01          0.389321          0.896444
 Vib (V=0)    1  0.158539D+01          0.200137          0.460832
 Vib (V=0)    2  0.123569D+01          0.091909          0.211628
 Vib (V=0)    3  0.112451D+01          0.050962          0.117345
 Vib (V=0)    4  0.107943D+01          0.033195          0.076435
 Electronic      0.200000D+01          0.301030          0.693147
 Translational   0.118786D+08          7.074767         16.290252
 Rotational      0.149695D+05          4.175209          9.613773
 ***** Axes restored to original set *****
 -------------------------------------------------------------------
 Center     Atomic                   Forces (Hartrees/Bohr)
 Number     Number              X              Y              Z
 -------------------------------------------------------------------
      1        6           0.000030415    0.000005657   -0.000004842
      2        1          -0.000011908   -0.000004466    0.000000023
      3        1          -0.000007389    0.000005506    0.000002691
      4        6          -0.000002908   -0.000012460    0.000040697
      5        1          -0.000000121    0.000004064   -0.000004022
      6        1          -0.000005433   -0.000001882   -0.000001748
      7        8          -0.000003008   -0.000014565   -0.000031283
      8        1           0.000000352    0.000018146   -0.000001515
 -------------------------------------------------------------------
 Cartesian Forces:  Max     0.000040697 RMS     0.000013926

 GradGradGradGradGradGradGradGradGradGradGradGradGradGradGradGradGradGrad
 Berny optimization.
 Internal  Forces:  Max     0.000029907 RMS     0.000010321
 Search for a local minimum.
 Step number   1 out of a maximum of    2
 All quantities printed in internal units (Hartrees-Bohrs-Radians)
 Second derivative matrix not updated -- analytic derivatives used.
     Eigenvalues ---    0.00146   0.00382   0.00869   0.06957   0.07814
     Eigenvalues ---    0.11038   0.11560   0.12844   0.15476   0.18757
     Eigenvalues ---    0.26342   0.33895   0.35346   0.36313   0.39656
     Eigenvalues ---    0.39718   0.44280   0.628871000.000001000.00000
     Eigenvalues --- 1000.000001000.000001000.000001000.000001000.00000
     Eigenvalues --- 1000.00000
 Angle between quadratic step and forces=  71.59 degrees.
 Linear search not attempted -- first point.
 Iteration  1 RMS(Cart)=  0.00031565 RMS(Int)=  0.00000019
 Iteration  2 RMS(Cart)=  0.00000016 RMS(Int)=  0.00000004
 Variable       Old X    -DE/DX   Delta X   Delta X   Delta X     New X
                                 (Linear)    (Quad)   (Total)
    R1        2.03283   0.00000   0.00000   0.00001   0.00001   2.03284
    R2        2.03294   0.00000   0.00000   0.00002   0.00002   2.03296
    R3        2.82740  -0.00001   0.00000  -0.00003  -0.00003   2.82737
    R4        2.05371   0.00000   0.00000   0.00000   0.00000   2.05371
    R5        2.05715  -0.00001   0.00000  -0.00002  -0.00002   2.05713
    R6        2.65346   0.00003   0.00000   0.00008   0.00008   2.65354
    R7        1.78250  -0.00001   0.00000  -0.00002  -0.00002   1.78249
    A1        2.06899  -0.00001   0.00000  -0.00012  -0.00012   2.06888
    A2        2.09727   0.00002   0.00000   0.00008   0.00007   2.09734
    A3        2.08298  -0.00001   0.00000  -0.00018  -0.00018   2.08280
    A4        1.93295   0.00001   0.00000   0.00003   0.00003   1.93298
    A5        1.92228   0.00000   0.00000   0.00006   0.00006   1.92235
    A6        1.96784  -0.00002   0.00000  -0.00010  -0.00010   1.96774
    A7        1.86660   0.00000   0.00000   0.00004   0.00004   1.86664
    A8        1.83810   0.00000   0.00000  -0.00006  -0.00006   1.83804
    A9        1.93193   0.00001   0.00000   0.00003   0.00003   1.93197
   A10        1.92189   0.00003   0.00000   0.00013   0.00013   1.92202
    D1       -1.45607   0.00000   0.00000   0.00054   0.00054  -1.45554
    D2        0.60510   0.00001   0.00000   0.00064   0.00064   0.60574
    D3        2.77253   0.00001   0.00000   0.00066   0.00066   2.77319
    D4        1.40464  -0.00001   0.00000  -0.00037  -0.00037   1.40427
    D5       -2.81737   0.00000   0.00000  -0.00027  -0.00027  -2.81764
    D6       -0.64994   0.00000   0.00000  -0.00025  -0.00025  -0.65020
    D7       -1.03700   0.00000   0.00000  -0.00107  -0.00107  -1.03807
    D8        3.13654   0.00000   0.00000  -0.00100  -0.00100   3.13554
    D9        1.12511  -0.00001   0.00000  -0.00103  -0.00103   1.12408
         Item               Value     Threshold  Converged?
 Maximum Force            0.000030     0.000450     YES
 RMS     Force            0.000010     0.000300     YES
 Maximum Displacement     0.000883     0.001800     YES
 RMS     Displacement     0.000316     0.001200     YES
 Predicted change in Energy=-1.804175D-08
 Optimization completed.
    -- Stationary point found.
                           ----------------------------
                           !   Optimized Parameters   !
                           ! (Angstroms and Degrees)  !
 --------------------------                            --------------------------
 ! Name  Definition              Value          Derivative Info.                !
 --------------------------------------------------------------------------------
 ! R1    R(1,2)                  1.0757         -DE/DX =    0.0                 !
 ! R2    R(1,3)                  1.0758         -DE/DX =    0.0                 !
 ! R3    R(1,4)                  1.4962         -DE/DX =    0.0                 !
 ! R4    R(4,5)                  1.0868         -DE/DX =    0.0                 !
 ! R5    R(4,6)                  1.0886         -DE/DX =    0.0                 !
 ! R6    R(4,7)                  1.4042         -DE/DX =    0.0                 !
 ! R7    R(7,8)                  0.9433         -DE/DX =    0.0                 !
 ! A1    A(2,1,3)              118.5446         -DE/DX =    0.0                 !
 ! A2    A(2,1,4)              120.1647         -DE/DX =    0.0                 !
 ! A3    A(3,1,4)              119.346          -DE/DX =    0.0                 !
 ! A4    A(1,4,5)              110.7497         -DE/DX =    0.0                 !
 ! A5    A(1,4,6)              110.1387         -DE/DX =    0.0                 !
 ! A6    A(1,4,7)              112.7489         -DE/DX =    0.0                 !
 ! A7    A(5,4,6)              106.9482         -DE/DX =    0.0                 !
 ! A8    A(5,4,7)              105.3151         -DE/DX =    0.0                 !
 ! A9    A(6,4,7)              110.6915         -DE/DX =    0.0                 !
 ! A10   A(4,7,8)              110.1163         -DE/DX =    0.0                 !
 ! D1    D(2,1,4,5)            -83.4268         -DE/DX =    0.0                 !
 ! D2    D(2,1,4,6)             34.6698         -DE/DX =    0.0                 !
 ! D3    D(2,1,4,7)            158.8543         -DE/DX =    0.0                 !
 ! D4    D(3,1,4,5)             80.4798         -DE/DX =    0.0                 !
 ! D5    D(3,1,4,6)           -161.4236         -DE/DX =    0.0                 !
 ! D6    D(3,1,4,7)            -37.2391         -DE/DX =    0.0                 !
 ! D7    D(1,4,7,8)            -59.4158         -DE/DX =    0.0                 !
 ! D8    D(5,4,7,8)            179.7105         -DE/DX =    0.0                 !
 ! D9    D(6,4,7,8)             64.464          -DE/DX =    0.0                 !
 --------------------------------------------------------------------------------
 GradGradGradGradGradGradGradGradGradGradGradGradGradGradGradGradGradGrad

 1|1|UNPC-DESKTOP-319GPER|Freq|UHF|6-31+G(d,p)|C2H5O1(2)|SAGAD|17-Jan-2
 021|0||#N Geom=AllCheck Guess=TCheck SCRF=Check GenChk UHF/6-31+G(d,p)
  Freq||2-Hydroxyethyl radical hf||0,2|C,-0.4348161994,0.6605815581,0.6
 209292833|H,-0.3148292449,-0.1200272863,1.351297901|H,-1.2789292258,0.
 6165905293,-0.0445444803|C,0.3236824134,1.9428068175,0.7594272601|H,-0
 .1897320185,2.6229475821,1.4338856943|H,1.3062262946,1.7526576155,1.18
 77872937|O,0.4379624353,2.6398690673,-0.4541169654|H,0.8823954653,2.10
 74520865,-1.0934532467||Version=IA32W-G09RevA.02|State=2-A|HF=-153.463
 4081|S2=0.761417|S2-1=0.|S2A=0.750087|RMSD=1.377e-009|RMSF=1.393e-005|
 ZeroPoint=0.0697552|Thermal=0.0741092|Dipole=0.1912124,-0.6560143,0.20
 91487|DipoleDeriv=-0.1369454,0.0314818,0.2386727,0.045782,-0.0811229,-
 0.1121426,0.2147989,-0.1814942,-0.1212116,0.0655999,-0.0431474,-0.0543
 869,-0.0477931,-0.0256627,0.0951887,-0.0534362,0.1232084,0.0048585,-0.
 014259,-0.052881,-0.1063049,-0.0298754,0.0264712,0.0475097,-0.1042806,
 0.0202216,0.052152,0.5158354,0.109995,-0.0831917,0.0479248,0.5758956,-
 0.1999014,-0.083329,-0.2656175,0.8160072,0.0014598,0.0420806,0.0743271
 ,0.0328467,-0.0901063,-0.0892255,0.053884,-0.0447187,-0.0516938,-0.182
 0297,0.0156224,-0.1253552,0.0181642,-0.0089237,0.058129,-0.0644513,0.0
 425661,-0.0578132,-0.6005384,-0.1846737,0.0340201,-0.1662871,-0.627471
 9,0.2568469,0.017229,0.3183661,-0.943343,0.3508775,0.0815222,0.0222187
 ,0.0992378,0.2309207,-0.0564048,0.0195852,-0.0125318,0.3010441|Polar=2
 4.5772085,1.5170481,26.6322429,0.2962628,-0.919813,26.3195902|HyperPol
 ar=-6.4760268,-12.6779087,8.9393697,-33.667469,4.4100473,5.280172,2.06
 60536,3.3624545,-29.9782215,0.8449536|PG=C01 [X(C2H5O1)]|NImag=0||0.41
 413433,0.11722898,0.53110988,0.25939576,-0.17323799,0.43698599,-0.0478
 5837,0.00774753,-0.04547075,0.04035623,0.00923288,-0.21931786,0.164927
 34,-0.01308672,0.22539182,-0.04921717,0.17276394,-0.19053018,0.0474465
 4,-0.18135126,0.19134042,-0.24059249,-0.02349333,-0.17860706,0.0024628
 1,-0.00129339,0.00131421,0.24585930,-0.01863759,-0.05825215,0.01081481
 ,0.01864942,0.00539103,0.01317888,0.02337060,0.04897704,-0.17044631,0.
 00532567,-0.15861931,-0.01573816,-0.00308886,-0.00744373,0.18616638,-0
 .00487424,0.16355300,-0.12869588,-0.07627819,-0.03605971,0.00644446,0.
 00906199,-0.00051433,-0.00725869,-0.02372373,-0.00263163,0.62966958,-0
 .08314485,-0.20738447,-0.01611949,-0.00795607,-0.00607099,-0.00533208,
 0.00457686,0.00585359,0.00413657,-0.03841222,0.57674349,-0.03324735,-0
 .00781067,-0.08641269,0.01126798,0.02086321,0.00670646,-0.01031399,-0.
 01942204,-0.00005512,0.01794762,0.02575587,0.58653961,0.01110189,-0.01
 392695,-0.01162787,-0.00039229,0.00010665,0.00069291,-0.00042925,0.000
 69084,0.00055361,-0.12350977,0.07974138,0.07526525,0.12751289,0.006947
 67,-0.02362857,-0.01550674,-0.00094827,-0.00063994,0.00036592,-0.00082
 680,-0.00006092,0.00033521,0.09382754,-0.17146016,-0.11672046,-0.09009
 610,0.18324752,-0.00065220,-0.00604212,0.00241418,-0.00008482,-0.00126
 660,-0.00093815,-0.00012851,-0.00011130,-0.00009186,0.07362504,-0.0965
 6192,-0.14829346,-0.09006600,0.11041551,0.18070650,-0.01410480,0.00242
 512,-0.00846082,0.00033222,-0.00075525,0.00048974,-0.00091724,-0.00303
 982,0.00106750,-0.28960271,0.04077013,-0.08577095,-0.01659232,0.003793
 54,-0.00563913,0.30632743,-0.03093937,0.00507315,-0.01603460,0.0011479
 7,0.00116543,0.00068064,-0.00322614,-0.00507761,-0.00056322,0.03750595
 ,-0.06722529,0.01542589,0.02336273,-0.00184447,0.00761213,-0.04356602,
 0.07450561,-0.00655064,-0.00184817,0.00015492,0.00046680,-0.00065003,0
 .00030680,-0.00072374,-0.00038343,0.00089847,-0.08162104,0.01176867,-0
 .09316200,0.02018717,-0.00329487,0.01076025,0.09982114,-0.02474722,0.1
 0956058,0.00609864,-0.01450840,0.02098950,-0.00140948,-0.00367084,0.00
 031698,0.00170460,0.00319554,0.00080952,-0.08612401,0.00139861,0.02575
 044,0.00122804,-0.01178855,0.02272436,0.01386640,0.01616283,-0.0298129
 9,0.20738560,-0.00125191,-0.02855181,0.04460886,-0.00549695,-0.0059380
 9,-0.00013344,0.00147779,0.00322897,-0.00131452,0.01224321,-0.14405605
 ,0.05896870,0.00136465,0.01528777,-0.01881108,0.00024099,-0.00661461,0
 .01898340,-0.17273447,0.40622927,0.00042715,0.01103451,-0.00676612,0.0
 0246645,0.00114109,0.00055684,0.00228532,0.00060180,0.00180170,0.00873
 150,0.10289863,-0.23917073,0.00535921,0.01959788,-0.03865558,-0.000631
 57,0.01886850,-0.02960977,-0.21981227,0.08391583,0.60743588,-0.0000833
 1,0.00080524,-0.00015905,0.00006442,0.00040468,-0.00052888,-0.00082904
 ,-0.00050524,0.00021908,-0.00092298,0.00302617,-0.00089899,0.00108081,
 -0.00090903,0.00022126,0.00069103,-0.00044795,-0.00176669,-0.14274979,
 0.16415669,0.20117421,0.14274885,0.00056419,0.00095183,0.00054781,-0.0
 0005691,0.00001859,-0.00017260,-0.00058559,-0.00005996,0.00004338,-0.0
 1422455,0.01359988,0.02293950,-0.00124320,-0.00090124,0.00476538,0.000
 13132,0.00001779,0.00017165,0.18194529,-0.23958547,-0.23805824,-0.1665
 3055,0.22595858,0.00029075,-0.00018516,0.00277321,-0.00035404,-0.00057
 489,0.00000156,0.00000741,0.00019552,-0.00004314,0.02052255,-0.0265462
 5,-0.02615206,-0.00036427,0.00480754,-0.00590188,-0.00087591,-0.001242
 12,0.00109075,0.17903445,-0.18621776,-0.29559221,-0.19826095,0.2097631
 2,0.32382378||-0.00003041,-0.00000566,0.00000484,0.00001191,0.00000447
 ,-0.00000002,0.00000739,-0.00000551,-0.00000269,0.00000291,0.00001246,
 -0.00004070,0.00000012,-0.00000406,0.00000402,0.00000543,0.00000188,0.
 00000175,0.00000301,0.00001457,0.00003128,-0.00000035,-0.00001815,0.00
 000151|||@


 "ANNA, YOU MUSN'T SPEAK OF OXIDIZED MURIATIC ACID
 ANYMORE, FROM NOW ON YOU MUST SAY CHLORINE."
   -- JENS JACOB BERZELIUS, IN 1820, TO HIS COOK, WHO HAD
 COMPLAINED OF THE SMELL OF THE FLASK SHE WAS CLEANING.
 Job cpu time:  0 days  0 hours  0 minutes  6.0 seconds.
 File lengths (MBytes):  RWF=     13 Int=      0 D2E=      0 Chk=      1 Scr=      1
 Normal termination of Gaussian 09 at Sun Jan 17 12:59:02 2021.
