 Entering Link 1 = C:\G09W\l1.exe PID=     13024.
  
 Copyright (c) 1988,1990,1992,1993,1995,1998,2003,2009, Gaussian, Inc.
                  All Rights Reserved.
  
 This is part of the Gaussian(R) 09 program.  It is based on
 the Gaussian(R) 03 system (copyright 2003, Gaussian, Inc.),
 the Gaussian(R) 98 system (copyright 1998, Gaussian, Inc.),
 the Gaussian(R) 94 system (copyright 1995, Gaussian, Inc.),
 the Gaussian 92(TM) system (copyright 1992, Gaussian, Inc.),
 the Gaussian 90(TM) system (copyright 1990, Gaussian, Inc.),
 the Gaussian 88(TM) system (copyright 1988, Gaussian, Inc.),
 the Gaussian 86(TM) system (copyright 1986, Carnegie Mellon
 University), and the Gaussian 82(TM) system (copyright 1983,
 Carnegie Mellon University). Gaussian is a federally registered
 trademark of Gaussian, Inc.
  
 This software contains proprietary and confidential information,
 including trade secrets, belonging to Gaussian, Inc.
  
 This software is provided under written license and may be
 used, copied, transmitted, or stored only in accord with that
 written license.
  
 The following legend is applicable only to US Government
 contracts under FAR:
  
                    RESTRICTED RIGHTS LEGEND
  
 Use, reproduction and disclosure by the US Government is
 subject to restrictions as set forth in subparagraphs (a)
 and (c) of the Commercial Computer Software - Restricted
 Rights clause in FAR 52.227-19.
  
 Gaussian, Inc.
 340 Quinnipiac St., Bldg. 40, Wallingford CT 06492
  
  
 ---------------------------------------------------------------
 Warning -- This program may not be used in any manner that
 competes with the business of Gaussian, Inc. or will provide
 assistance to any competitor of Gaussian, Inc.  The licensee
 of this program is prohibited from giving any competitor of
 Gaussian, Inc. access to this program.  By using this program,
 the user acknowledges that Gaussian, Inc. is engaged in the
 business of creating and licensing software in the field of
 computational chemistry and represents and warrants to the
 licensee that it is not a competitor of Gaussian, Inc. and that
 it will not use this program in any manner prohibited above.
 ---------------------------------------------------------------
  

 Cite this work as:
 Gaussian 09, Revision A.02,
 M. J. Frisch, G. W. Trucks, H. B. Schlegel, G. E. Scuseria, 
 M. A. Robb, J. R. Cheeseman, G. Scalmani, V. Barone, B. Mennucci, 
 G. A. Petersson, H. Nakatsuji, M. Caricato, X. Li, H. P. Hratchian, 
 A. F. Izmaylov, J. Bloino, G. Zheng, J. L. Sonnenberg, M. Hada, 
 M. Ehara, K. Toyota, R. Fukuda, J. Hasegawa, M. Ishida, T. Nakajima, 
 Y. Honda, O. Kitao, H. Nakai, T. Vreven, J. A. Montgomery, Jr., 
 J. E. Peralta, F. Ogliaro, M. Bearpark, J. J. Heyd, E. Brothers, 
 K. N. Kudin, V. N. Staroverov, R. Kobayashi, J. Normand, 
 K. Raghavachari, A. Rendell, J. C. Burant, S. S. Iyengar, J. Tomasi, 
 M. Cossi, N. Rega, J. M. Millam, M. Klene, J. E. Knox, J. B. Cross, 
 V. Bakken, C. Adamo, J. Jaramillo, R. Gomperts, R. E. Stratmann, 
 O. Yazyev, A. J. Austin, R. Cammi, C. Pomelli, J. W. Ochterski, 
 R. L. Martin, K. Morokuma, V. G. Zakrzewski, G. A. Voth, 
 P. Salvador, J. J. Dannenberg, S. Dapprich, A. D. Daniels, 
 O. Farkas, J. B. Foresman, J. V. Ortiz, J. Cioslowski, 
 and D. J. Fox, Gaussian, Inc., Wallingford CT, 2009.
 
 ******************************************
 Gaussian 09:  IA32W-G09RevA.02 11-Jun-2009
                02-Feb-2021 
 ******************************************
 %chk=D:\Documents\rayGit\FQ\quimicaComputacional\proyecto\decompositionHydrogenP
 eroxide\decompositionCatalyzedByIodine\step1\ts\ts.chk
 %mem=1500MB
 %nprocshared=4
 Will use up to    4 processors via shared memory.
 ----------------------------------------------------------------------
 # opt=(calcfc,ts,noeigen) freq=noraman lanl2dz scrf=smd iop(1/8=3) m06
 2x
 ----------------------------------------------------------------------
 1/5=1,8=3,10=4,11=1,14=-1,18=20,26=3,38=1/1,3;
 2/9=110,12=2,17=6,18=5,40=1/2;
 3/5=6,6=3,11=2,16=1,25=1,30=1,70=32201,71=2,72=1,74=-55/1,2,3;
 4//1;
 5/5=2,38=5/2;
 8/6=4,10=90,11=11/1;
 11/6=1,8=1,9=11,15=111,16=1/1,2,10;
 10/6=1,7=6,13=1/2;
 6/7=2,8=2,9=2,10=2,28=1/1;
 7/10=1,18=20,25=1/1,2,3,16;
 1/5=1,8=3,10=4,11=1,14=-1,18=20/3(2);
 2/9=110/2;
 99//99;
 2/9=110/2;
 3/5=6,6=3,11=2,16=1,25=1,30=1,70=32205,71=1,74=-55/1,2,3;
 4/5=5,16=3/1;
 5/5=2,38=5/2;
 7//1,2,3,16;
 1/5=1,8=3,11=1,14=-1,18=20/3(-5);
 2/9=110/2;
 6/7=2,8=2,9=2,10=2,19=2,28=1/1;
 99/9=1/99;
 -----------------------------
 Hydrogen peroxide with iodine
 -----------------------------
 Symbolic Z-matrix:
 Charge = -1 Multiplicity = 1
 O                    -1.26074   0.70831   0. 
 H                    -1.26074   0.70831  -0.96 
 O                     0.05926   0.70831   0. 
 H                     0.37926   1.61341   0. 
 I                    -2.25574   0.70831   1.72339 
 

 GradGradGradGradGradGradGradGradGradGradGradGradGradGradGradGradGradGrad
 Berny optimization.
 Initialization pass.
                           ----------------------------
                           !    Initial Parameters    !
                           ! (Angstroms and Degrees)  !
 --------------------------                            --------------------------
 ! Name  Definition              Value          Derivative Info.                !
 --------------------------------------------------------------------------------
 ! R1    R(1,2)                  0.96           calculate D2E/DX2 analytically  !
 ! R2    R(1,3)                  1.32           calculate D2E/DX2 analytically  !
 ! R3    R(1,5)                  1.99           calculate D2E/DX2 analytically  !
 ! R4    R(3,4)                  0.96           calculate D2E/DX2 analytically  !
 ! A1    A(2,1,3)               90.0            calculate D2E/DX2 analytically  !
 ! A2    A(2,1,5)              150.0            calculate D2E/DX2 analytically  !
 ! A3    A(3,1,5)              120.0            calculate D2E/DX2 analytically  !
 ! A4    A(1,3,4)              109.4712         calculate D2E/DX2 analytically  !
 ! D1    D(2,1,3,4)             90.0            calculate D2E/DX2 analytically  !
 ! D2    D(5,1,3,4)            -90.0            calculate D2E/DX2 analytically  !
 --------------------------------------------------------------------------------
 Trust Radius=3.00D-02 FncErr=1.00D-07 GrdErr=1.00D-06
 Number of steps in this run=  20 maximum allowed number of steps= 100.
 Search for a saddle point of order  1.
 GradGradGradGradGradGradGradGradGradGradGradGradGradGradGradGradGradGrad

                          Input orientation:                          
 ---------------------------------------------------------------------
 Center     Atomic      Atomic             Coordinates (Angstroms)
 Number     Number       Type             X           Y           Z
 ---------------------------------------------------------------------
      1          8           0       -1.260742    0.708312    0.000000
      2          1           0       -1.260742    0.708312   -0.960000
      3          8           0        0.059258    0.708312    0.000000
      4          1           0        0.379258    1.613409    0.000000
      5         53           0       -2.255742    0.708312    1.723391
 ---------------------------------------------------------------------
                    Distance matrix (angstroms):
                    1          2          3          4          5
     1  O    0.000000
     2  H    0.960000   0.000000
     3  O    1.320000   1.632176   0.000000
     4  H    1.873179   2.104852   0.960000   0.000000
     5  I    1.990000   2.861924   2.886053   3.276049   0.000000
 Stoichiometry    H2IO2(1-)
 Framework group  C1[X(H2IO2)]
 Deg. of freedom     9
 Full point group                 C1      NOp   1
 Largest Abelian subgroup         C1      NOp   1
 Largest concise Abelian subgroup C1      NOp   1
                         Standard orientation:                         
 ---------------------------------------------------------------------
 Center     Atomic      Atomic             Coordinates (Angstroms)
 Number     Number       Type             X           Y           Z
 ---------------------------------------------------------------------
      1          8           0        1.294275    0.520710    0.015177
      2          1           0        1.961089    1.208242    0.080442
      3          8           0        2.243217   -0.386749   -0.120573
      4          1           0        2.497624   -0.715629    0.744710
      5         53           0       -0.618088   -0.029515    0.000340
 ---------------------------------------------------------------------
 Rotational constants (GHZ):     52.6999524      3.0661219      2.9226319
 Standard basis: LANL2DZ (5D, 7F)
 There are    30 symmetry adapted basis functions of A   symmetry.
 Integral buffers will be    262144 words long.
 Raffenetti 2 integral format.
 Two-electron integral symmetry is turned on.
    30 basis functions,    70 primitive gaussians,    30 cartesian basis functions
    13 alpha electrons       13 beta electrons
       nuclear repulsion energy        67.1662663249 Hartrees.
 NAtoms=    5 NActive=    5 NUniq=    5 SFac= 7.50D-01 NAtFMM=   80 NAOKFM=F Big=F
 ------------------------------------------------------------------------------
 Polarizable Continuum Model (PCM)
 =================================
 Model                : PCM.
 Atomic radii         : SMD-Coulomb.
 Polarization charges : Total charges.
 Charge compensation  : None.
 Solution method      : Matrix inversion.
 Cavity type          : VdW (van der Waals Surface) (Alpha=1.000).
 Cavity algorithm     : GePol (No added spheres)
                        Default sphere list used, NSphG=    5.
                        Lebedev-Laikov grids with approx.  5.0 points / Ang**2.
                        Smoothing algorithm: Karplus/York (Gamma=1.0000).
                        Polarization charges: spherical gaussians, with
                                              point-specific exponents (IZeta= 3).
                        Self-potential: point-specific (ISelfS= 7).
                        Self-field    : sphere-specific E.n sum rule (ISelfD= 2).
 1st derivatives      : Analytical E(r).r(x)/FMM algorithm (CHGder, D1EAlg=3).
                        Cavity 1st derivative terms included.
 2nd derivatives      : Analytical E(r).r(xy)/FMM algorithm (CHGder, D2EAlg=3).
                        Cavity 2nd derivative terms included.
 Solvent              : Water, Eps=  78.355300 Eps(inf)=   1.777849
 ------------------------------------------------------------------------------
 Spheres list:
 ISph  on   Nord    Re0     Alpha      Xe            Ye            Ze
    1   O      1    1.520   1.000      1.294275      0.520710      0.015177
    2   H      2    1.200   1.000      1.961089      1.208242      0.080442
    3   O      3    1.520   1.000      2.243217     -0.386749     -0.120573
    4   H      4    1.200   1.000      2.497624     -0.715629      0.744710
    5   I      5    1.980   1.000     -0.618088     -0.029515      0.000340
 ------------------------------------------------------------------------------
 ------------------------------------------------------------------------------
 Atomic radii for non-electrostatic terms: SMD-CDS.
 ------------------------------------------------------------------------------
 Nuclear repulsion after PCM non-electrostatic terms =       67.1683457919 Hartrees.
 One-electron integrals computed using PRISM.
   1 Symmetry operations used in ECPInt.
 ECPInt:  NShTT=     171 NPrTT=    1054 LenC2=     172 LenP2D=     982.
 LDataN:  DoStor=T MaxTD1= 4 Len=   56
 NBasis=    30 RedAO= T  NBF=    30
 NBsUse=    30 1.00D-06 NBFU=    30
 Defaulting to unpruned grid for atomic number  53.
 Harris functional with IExCor= 1009 diagonalized for initial guess.
 ExpMin= 1.05D-01 ExpMax= 7.82D+03 ExpMxC= 2.73D+02 IAcc=1 IRadAn=         1 AccDes= 0.00D+00
 HarFok:  IExCor= 1009 AccDes= 0.00D+00 IRadAn=         1 IDoV= 1
 ScaDFX=  1.000000  1.000000  1.000000  1.000000
 Defaulting to unpruned grid for atomic number  53.
 Defaulting to unpruned grid for atomic number  53.
 Defaulting to unpruned grid for atomic number  53.
 Defaulting to unpruned grid for atomic number  53.
 FoFCou: FMM=F IPFlag=           0 FMFlag=      100000 FMFlg1=           0
         NFxFlg=           0 DoJE=T BraDBF=F KetDBF=T FulRan=T
         Omega=  0.000000  0.000000  1.000000  0.000000  0.000000 ICntrl=     500 IOpCl=  0
         NMat0=    1 NMatS0=    1 NMatT0=    0 NMatD0=    1 NMtDS0=    0 NMtDT0=    0
         I1Cent=           4 NGrid=           0.
 Petite list used in FoFCou.
 Initial guess orbital symmetries:
       Occupied  (A) (A) (A) (A) (A) (A) (A) (A) (A) (A) (A) (A)
                 (A)
       Virtual   (A) (A) (A) (A) (A) (A) (A) (A) (A) (A) (A) (A)
                 (A) (A) (A) (A) (A)
 The electronic state of the initial guess is 1-A.
 Requested convergence on RMS density matrix=1.00D-08 within 128 cycles.
 Requested convergence on MAX density matrix=1.00D-06.
 Requested convergence on             energy=1.00D-06.
 No special actions if energy rises.
 Keep R1 ints in memory in canonical form, NReq=3379252.
 Defaulting to unpruned grid for atomic number  53.
 Defaulting to unpruned grid for atomic number  53.
 Defaulting to unpruned grid for atomic number  53.
 Defaulting to unpruned grid for atomic number  53.
 Error on total polarization charges =  0.10661
 SCF Done:  E(RM062X) =  -162.814421684     A.U. after   11 cycles
             Convg  =    0.9132D-08             -V/T =  2.0485
 SMD-CDS (non-electrostatic) energy             (kcal/mol) =       1.30
 (included in total energy above)
 Range of M.O.s used for correlation:     1    30
 NBasis=    30 NAE=    13 NBE=    13 NFC=     0 NFV=     0
 NROrb=     30 NOA=    13 NOB=    13 NVA=    17 NVB=    17
   1 Symmetry operations used in ECPInt.
 ECPInt:  NShTT=     171 NPrTT=    1054 LenC2=     172 LenP2D=     982.
 LDataN:  DoStor=T MaxTD1= 5 Len=  102
 Symmetrizing basis deriv contribution to polar:
 IMax=3 JMax=2 DiffMx= 0.00D+00
 G2DrvN: will do     6 centers at a time, making    1 passes doing MaxLOS=1.
 Calling FoFCou, ICntrl=  3107 FMM=F I1Cent=   0 AccDes= 0.00D+00.
 Defaulting to unpruned grid for atomic number  53.
 Defaulting to unpruned grid for atomic number  53.
 Defaulting to unpruned grid for atomic number  53.
 Defaulting to unpruned grid for atomic number  53.
 FoFDir/FoFCou used for L=0 through L=1.
 G2PCM: DoFxE=T DoFxN=T DoGrad=T DoPD/DQ/DG=FFF NFrqRd=   0 IEInf=0 DoCFld=F IF1Alg=4.
 End of G2Drv Frequency-dependent properties file   721 does not exist.
 End of G2Drv Frequency-dependent properties file   722 does not exist.
          IDoAtm=11111
 NEqPCM:  Using equilibrium solvation (IEInf=0, Eps=  78.3553, EpsInf=   1.7778)
          Differentiating once with respect to nuclear coordinates.
 Defaulting to unpruned grid for atomic number  53.
          Keep R1 ints in memory in canonical form, NReq=909349.
 Defaulting to unpruned grid for atomic number  53.
 Defaulting to unpruned grid for atomic number  53.
 Defaulting to unpruned grid for atomic number  53.
 Defaulting to unpruned grid for atomic number  53.
          There are    18 degrees of freedom in the 1st order CPHF.  IDoFFX=5.
     12 vectors produced by pass  0 Test12= 1.23D-11 5.56D-07 XBig12= 1.43D-01 1.87D-01.
 AX will form    12 AO Fock derivatives at one time.
     12 vectors produced by pass  1 Test12= 1.23D-11 5.56D-07 XBig12= 1.56D-02 5.42D-02.
     12 vectors produced by pass  2 Test12= 1.23D-11 5.56D-07 XBig12= 7.28D-04 9.99D-03.
     12 vectors produced by pass  3 Test12= 1.23D-11 5.56D-07 XBig12= 3.04D-06 4.91D-04.
      8 vectors produced by pass  4 Test12= 1.23D-11 5.56D-07 XBig12= 1.07D-08 2.47D-05.
      2 vectors produced by pass  5 Test12= 1.23D-11 5.56D-07 XBig12= 3.01D-11 1.22D-06.
 Inverted reduced A of dimension    58 with in-core refinement.
 End of Minotr Frequency-dependent properties file   721 does not exist.
 End of Minotr Frequency-dependent properties file   722 does not exist.

 **********************************************************************

            Population analysis using the SCF density.

 **********************************************************************

 Orbital symmetries:
       Occupied  (A) (A) (A) (A) (A) (A) (A) (A) (A) (A) (A) (A)
                 (A)
       Virtual   (A) (A) (A) (A) (A) (A) (A) (A) (A) (A) (A) (A)
                 (A) (A) (A) (A) (A)
 The electronic state is 1-A.
 Alpha  occ. eigenvalues --  -19.67682 -19.67574  -1.34896  -1.00981  -0.73170
 Alpha  occ. eigenvalues --   -0.65641  -0.57559  -0.53727  -0.39087  -0.38757
 Alpha  occ. eigenvalues --   -0.25993  -0.24730  -0.15907
 Alpha virt. eigenvalues --    0.14085   0.17203   0.21908   0.43369   0.45561
 Alpha virt. eigenvalues --    0.46239   0.65229   0.69947   0.71904   0.73117
 Alpha virt. eigenvalues --    0.80506   0.95031   1.05108   1.18989   1.54540
 Alpha virt. eigenvalues --    1.79464   9.44461
          Condensed to atoms (all electrons):
              1          2          3          4          5
     1  O    9.406648   0.251675  -0.095430  -0.050439  -1.160884
     2  H    0.251675   0.314976  -0.070026   0.000749   0.049895
     3  O   -0.095430  -0.070026   8.330697   0.283372   0.007552
     4  H   -0.050439   0.000749   0.283372   0.333242  -0.010605
     5  I   -1.160884   0.049895   0.007552  -0.010605   9.202717
 Mulliken atomic charges:
              1
     1  O   -0.351571
     2  H    0.452732
     3  O   -0.456165
     4  H    0.443680
     5  I   -1.088675
 Sum of Mulliken atomic charges =  -1.00000
 Mulliken charges with hydrogens summed into heavy atoms:
              1
     1  O    0.101161
     3  O   -0.012486
     5  I   -1.088675
 Sum of Mulliken charges with hydrogens summed into heavy atoms =  -1.00000
 APT atomic charges:
              1
     1  O   -0.343116
     2  H    0.812663
     3  O   -0.975769
     4  H    0.669630
     5  I   -1.163408
 Sum of APT charges=  -1.00000
 APT Atomic charges with hydrogens summed into heavy atoms:
              1
     1  O    0.469547
     2  H    0.000000
     3  O   -0.306139
     4  H    0.000000
     5  I   -1.163408
 Sum of APT charges=  -1.00000
 Electronic spatial extent (au):  <R**2>=            339.9430
 Charge=             -1.0000 electrons
 Dipole moment (field-independent basis, Debye):
    X=              7.4419    Y=              1.9215    Z=              2.5566  Tot=              8.1000
 Quadrupole moment (field-independent basis, Debye-Ang):
   XX=            -36.9093   YY=            -35.1188   ZZ=            -37.2696
   XY=              1.9661   XZ=              6.2874   YZ=             -1.4471
 Traceless Quadrupole moment (field-independent basis, Debye-Ang):
   XX=             -0.4767   YY=              1.3138   ZZ=             -0.8371
   XY=              1.9661   XZ=              6.2874   YZ=             -1.4471
 Octapole moment (field-independent basis, Debye-Ang**2):
  XXX=              6.2029  YYY=              3.8028  ZZZ=              2.1991  XYY=              2.2364
  XXY=              5.7530  XXZ=             16.0431  XZZ=             -1.7903  YZZ=             -0.7112
  YYZ=              1.8544  XYZ=             -3.7229
 Hexadecapole moment (field-independent basis, Debye-Ang**3):
 XXXX=           -357.3586 YYYY=            -74.9317 ZZZZ=            -62.4676 XXXY=              4.9056
 XXXZ=             41.4528 YYYX=              6.1034 YYYZ=             -1.0870 ZZZX=              5.4265
 ZZZY=             -1.4460 XXYY=            -61.4931 XXZZ=            -67.6212 YYZZ=            -23.4814
 XXYZ=             -9.4024 YYXZ=              4.2569 ZZXY=             -1.8576
 N-N= 6.716834579185D+01 E-N=-5.200884048650D+02  KE= 1.552813752435D+02
  Exact polarizability:   0.000   0.000   0.000   0.000   0.000   0.000
 Approx polarizability:  38.413   5.327  13.783   1.211  -0.332   7.099
   1 Symmetry operations used in ECPInt.
 ECPInt:  NShTT=     171 NPrTT=    1054 LenC2=     172 LenP2D=    1045.
 LDataN:  DoStor=T MaxTD1= 6 Len=  172
 D2PCM: PCM CHGder 2nd derivatives, FixD1E=F FixD2E=F DoIter=F DoCFld=F I1PDM=0
 Calling FoFJK, ICntrl=    100147 FMM=F ISym2X=0 I1Cent= 0 IOpClX= 0 NMat=1 NMatS=1 NMatT=0.
 Defaulting to unpruned grid for atomic number  53.
 Defaulting to unpruned grid for atomic number  53.
 Defaulting to unpruned grid for atomic number  53.
 Defaulting to unpruned grid for atomic number  53.
 ***** Axes restored to original set *****
 -------------------------------------------------------------------
 Center     Atomic                   Forces (Hartrees/Bohr)
 Number     Number              X              Y              Z
 -------------------------------------------------------------------
      1        8          -0.016966979    0.002283772   -0.173214611
      2        1          -0.051424307   -0.002686943   -0.049576661
      3        8           0.177482959   -0.020765432    0.026912826
      4        1           0.007495244    0.021134561    0.002997121
      5       53          -0.116586918    0.000034043    0.192881326
 -------------------------------------------------------------------
 Cartesian Forces:  Max     0.192881326 RMS     0.089207313

 GradGradGradGradGradGradGradGradGradGradGradGradGradGradGradGradGradGrad
 Berny optimization.
 Internal  Forces:  Max     0.225343679 RMS     0.096404805
 Search for a saddle point.
 Step number   1 out of a maximum of   20
 All quantities printed in internal units (Hartrees-Bohrs-Radians)
 Swaping is turned off.
 Second derivative matrix not updated -- analytic derivatives used.
 The second derivative matrix:
                          R1        R2        R3        R4        A1
           R1           0.53249
           R2          -0.00627   0.68995
           R3           0.02629   0.02644   0.29533
           R4           0.00123  -0.00328   0.00187   0.57033
           A1           0.01800   0.11584  -0.01164   0.00048   0.14941
           A2          -0.01973  -0.02960  -0.01743  -0.00183  -0.05832
           A3           0.00173  -0.08624   0.02907   0.00135  -0.09109
           A4          -0.00034   0.07914  -0.00156   0.00819   0.01038
           D1           0.00500   0.00650   0.00003   0.00332   0.01127
           D2          -0.00148   0.00146  -0.00009  -0.00209  -0.00132
                          A2        A3        A4        D1        D2
           A2           0.03414
           A3           0.02418   0.06690
           A4          -0.00197  -0.00842   0.25104
           D1          -0.00570  -0.00557   0.00331   0.08899
           D2          -0.00090   0.00222   0.00634  -0.07345   0.07200
     Eigenvalues ---    0.00551   0.01812   0.15114   0.18048   0.23983
     Eigenvalues ---    0.30102   0.53718   0.57067   0.746621000.00000
 Eigenvectors required to have negative eigenvalues:
                          D2        D1        A2        A3        A1
   1                    0.72689   0.65044   0.17164  -0.12559  -0.04605
                          A4        R3        R2        R1        R4
   1                   -0.02643   0.02136  -0.00608   0.00313   0.00004
 RFO step:  Lambda0=5.612602384D-03 Lambda=-1.56786273D-01.
 Linear search not attempted -- option 19 set.
 Maximum step size (   0.030) exceeded in Quadratic search.
    -- Step size scaled by   0.004
 Iteration  1 RMS(Cart)=  0.00969807 RMS(Int)=  0.00008282
 Iteration  2 RMS(Cart)=  0.00005947 RMS(Int)=  0.00000083
 Iteration  3 RMS(Cart)=  0.00000000 RMS(Int)=  0.00000083
 Variable       Old X    -DE/DX   Delta X   Delta X   Delta X     New X
                                 (Linear)    (Quad)   (Total)
    R1        1.81414   0.04958   0.00000   0.00011   0.00011   1.81425
    R2        2.49444   0.18502   0.00000   0.00096   0.00096   2.49539
    R3        3.76055   0.22534   0.00000   0.00137   0.00137   3.76193
    R4        1.81414   0.02234   0.00000   0.00012   0.00012   1.81426
    A1        1.57080   0.05658   0.00000   0.00182   0.00182   1.57262
    A2        2.61799  -0.03677   0.00000  -0.00546  -0.00546   2.61253
    A3        2.09440  -0.01980   0.00000   0.00364   0.00364   2.09803
    A4        1.91063   0.00022   0.00000   0.00063   0.00063   1.91127
    D1        1.57080   0.00475   0.00000  -0.01944  -0.01944   1.55136
    D2       -1.57080   0.00038   0.00000  -0.02174  -0.02174  -1.59253
         Item               Value     Threshold  Converged?
 Maximum Force            0.225344     0.000450     NO 
 RMS     Force            0.096405     0.000300     NO 
 Maximum Displacement     0.021189     0.001800     NO 
 RMS     Displacement     0.009702     0.001200     NO 
 Predicted change in Energy=-6.219330D-04
 GradGradGradGradGradGradGradGradGradGradGradGradGradGradGradGradGradGrad

                          Input orientation:                          
 ---------------------------------------------------------------------
 Center     Atomic      Atomic             Coordinates (Angstroms)
 Number     Number       Type             X           Y           Z
 ---------------------------------------------------------------------
      1          8           0       -1.259474    0.709869    0.003506
      2          1           0       -1.260428    0.711483   -0.956552
      3          8           0        0.061030    0.708338    0.004595
      4          1           0        0.382687    1.612779   -0.011212
      5         53           0       -2.262524    0.704189    1.723054
 ---------------------------------------------------------------------
                    Distance matrix (angstroms):
                    1          2          3          4          5
     1  O    0.000000
     2  H    0.960060   0.000000
     3  O    1.320506   1.634033   0.000000
     4  H    1.874075   2.099006   0.960066   0.000000
     5  I    1.990725   2.860864   2.889987   3.290951   0.000000
 Stoichiometry    H2IO2(1-)
 Framework group  C1[X(H2IO2)]
 Deg. of freedom     9
 Full point group                 C1      NOp   1
 Largest Abelian subgroup         C1      NOp   1
 Largest concise Abelian subgroup C1      NOp   1
                         Standard orientation:                         
 ---------------------------------------------------------------------
 Center     Atomic      Atomic             Coordinates (Angstroms)
 Number     Number       Type             X           Y           Z
 ---------------------------------------------------------------------
      1          8           0        1.294743    0.518812    0.014171
      2          1           0        1.958528    1.209607    0.076669
      3          8           0        2.246363   -0.386786   -0.120165
      4          1           0        2.515420   -0.700099    0.746536
      5         53           0       -0.618921   -0.029542    0.000467
 ---------------------------------------------------------------------
 Rotational constants (GHZ):     52.9769308      3.0577816      2.9159117
 Standard basis: LANL2DZ (5D, 7F)
 There are    30 symmetry adapted basis functions of A   symmetry.
 Integral buffers will be    262144 words long.
 Raffenetti 2 integral format.
 Two-electron integral symmetry is turned on.
    30 basis functions,    70 primitive gaussians,    30 cartesian basis functions
    13 alpha electrons       13 beta electrons
       nuclear repulsion energy        67.1284936451 Hartrees.
 NAtoms=    5 NActive=    5 NUniq=    5 SFac= 7.50D-01 NAtFMM=   80 NAOKFM=F Big=F
 ------------------------------------------------------------------------------
 Polarizable Continuum Model (PCM)
 =================================
 Model                : PCM.
 Atomic radii         : SMD-Coulomb.
 Polarization charges : Total charges.
 Charge compensation  : None.
 Solution method      : Matrix inversion.
 Cavity type          : VdW (van der Waals Surface) (Alpha=1.000).
 Cavity algorithm     : GePol (No added spheres)
                        Default sphere list used, NSphG=    5.
                        Lebedev-Laikov grids with approx.  5.0 points / Ang**2.
                        Smoothing algorithm: Karplus/York (Gamma=1.0000).
                        Polarization charges: spherical gaussians, with
                                              point-specific exponents (IZeta= 3).
                        Self-potential: point-specific (ISelfS= 7).
                        Self-field    : sphere-specific E.n sum rule (ISelfD= 2).
 1st derivatives      : Analytical E(r).r(x)/FMM algorithm (CHGder, D1EAlg=3).
                        Cavity 1st derivative terms included.
 Solvent              : Water, Eps=  78.355300 Eps(inf)=   1.777849
 ------------------------------------------------------------------------------
 Spheres list:
 ISph  on   Nord    Re0     Alpha      Xe            Ye            Ze
    1   O      1    1.520   1.000      1.294743      0.518812      0.014171
    2   H      2    1.200   1.000      1.958528      1.209607      0.076669
    3   O      3    1.520   1.000      2.246363     -0.386786     -0.120165
    4   H      4    1.200   1.000      2.515420     -0.700099      0.746536
    5   I      5    1.980   1.000     -0.618921     -0.029542      0.000467
 ------------------------------------------------------------------------------
 ------------------------------------------------------------------------------
 Atomic radii for non-electrostatic terms: SMD-CDS.
 ------------------------------------------------------------------------------
 Nuclear repulsion after PCM non-electrostatic terms =       67.1305712368 Hartrees.
 One-electron integrals computed using PRISM.
   1 Symmetry operations used in ECPInt.
 ECPInt:  NShTT=     171 NPrTT=    1054 LenC2=     172 LenP2D=     982.
 LDataN:  DoStor=T MaxTD1= 4 Len=   56
 NBasis=    30 RedAO= T  NBF=    30
 NBsUse=    30 1.00D-06 NBFU=    30
 Defaulting to unpruned grid for atomic number  53.
 Initial guess read from the read-write file.
 B after Tr=     0.000000    0.000000    0.000000
         Rot=    1.000000    0.000000    0.000000    0.000000 Ang=   0.00 deg.
 Initial guess orbital symmetries:
       Occupied  (A) (A) (A) (A) (A) (A) (A) (A) (A) (A) (A) (A)
                 (A)
       Virtual   (A) (A) (A) (A) (A) (A) (A) (A) (A) (A) (A) (A)
                 (A) (A) (A) (A) (A)
 Harris functional with IExCor= 1009 diagonalized for initial guess.
 ExpMin= 1.05D-01 ExpMax= 7.82D+03 ExpMxC= 2.73D+02 IAcc=1 IRadAn=         1 AccDes= 0.00D+00
 HarFok:  IExCor= 1009 AccDes= 0.00D+00 IRadAn=         1 IDoV= 1
 ScaDFX=  1.000000  1.000000  1.000000  1.000000
 Defaulting to unpruned grid for atomic number  53.
 Defaulting to unpruned grid for atomic number  53.
 Defaulting to unpruned grid for atomic number  53.
 Defaulting to unpruned grid for atomic number  53.
 FoFCou: FMM=F IPFlag=           0 FMFlag=      100000 FMFlg1=           0
         NFxFlg=           0 DoJE=T BraDBF=F KetDBF=T FulRan=T
         Omega=  0.000000  0.000000  1.000000  0.000000  0.000000 ICntrl=     500 IOpCl=  0
         NMat0=    1 NMatS0=    1 NMatT0=    0 NMatD0=    1 NMtDS0=    0 NMtDT0=    0
         I1Cent=           4 NGrid=           0.
 Petite list used in FoFCou.
 Requested convergence on RMS density matrix=1.00D-08 within 128 cycles.
 Requested convergence on MAX density matrix=1.00D-06.
 Requested convergence on             energy=1.00D-06.
 No special actions if energy rises.
 Keep R1 ints in memory in canonical form, NReq=3382881.
 Defaulting to unpruned grid for atomic number  53.
 Defaulting to unpruned grid for atomic number  53.
 Defaulting to unpruned grid for atomic number  53.
 Defaulting to unpruned grid for atomic number  53.
 Error on total polarization charges =  0.10661
 SCF Done:  E(RM062X) =  -162.815043521     A.U. after   10 cycles
             Convg  =    0.1745D-08             -V/T =  2.0485
 SMD-CDS (non-electrostatic) energy             (kcal/mol) =       1.30
 (included in total energy above)
   1 Symmetry operations used in ECPInt.
 ECPInt:  NShTT=     171 NPrTT=    1054 LenC2=     172 LenP2D=     982.
 LDataN:  DoStor=T MaxTD1= 5 Len=  102
 D1PCM: PCM CHGder 1st derivatives, ID1Alg=3 FixD1E=F DoIter=F DoCFld=F I1PDM=0.
 Calling FoFJK, ICntrl=      2127 FMM=F ISym2X=0 I1Cent= 0 IOpClX= 0 NMat=1 NMatS=1 NMatT=0.
 Defaulting to unpruned grid for atomic number  53.
 Defaulting to unpruned grid for atomic number  53.
 Defaulting to unpruned grid for atomic number  53.
 Defaulting to unpruned grid for atomic number  53.
 ***** Axes restored to original set *****
 -------------------------------------------------------------------
 Center     Atomic                   Forces (Hartrees/Bohr)
 Number     Number              X              Y              Z
 -------------------------------------------------------------------
      1        8          -0.015935670    0.003142764   -0.172475007
      2        1          -0.051273066   -0.002629968   -0.049345179
      3        8           0.176803809   -0.021053379    0.027211264
      4        1           0.007515169    0.021125309    0.002764691
      5       53          -0.117110241   -0.000584725    0.191844231
 -------------------------------------------------------------------
 Cartesian Forces:  Max     0.191844231 RMS     0.088902675

 GradGradGradGradGradGradGradGradGradGradGradGradGradGradGradGradGradGrad
 Berny optimization.
 Internal  Forces:  Max     0.224733755 RMS     0.096111346
 Search for a saddle point.
 Step number   2 out of a maximum of   20
 All quantities printed in internal units (Hartrees-Bohrs-Radians)
 Swaping is turned off.
 Update second derivatives using D2CorX and points    1    2
 The second derivative matrix:
                          R1        R2        R3        R4        A1
           R1           0.53250
           R2          -0.00625   0.68995
           R3           0.02632   0.02643   0.29532
           R4           0.00121  -0.00332   0.00182   0.57035
           A1           0.01804   0.11584  -0.01164   0.00041   0.14943
           A2          -0.01987  -0.02964  -0.01746  -0.00160  -0.05845
           A3           0.00183  -0.08619   0.02913   0.00118  -0.09095
           A4          -0.00033   0.07913  -0.00157   0.00817   0.01038
           D1           0.00465   0.00658   0.00019   0.00398   0.01127
           D2          -0.00193   0.00144  -0.00006  -0.00128  -0.00153
                          A2        A3        A4        D1        D2
           A2           0.03470
           A3           0.02363   0.06741
           A4          -0.00196  -0.00840   0.25104
           D1          -0.00519  -0.00641   0.00345   0.08664
           D2           0.00039   0.00073   0.00644  -0.07407   0.07381
     Eigenvalues ---    0.00536   0.01864   0.15125   0.18051   0.23984
     Eigenvalues ---    0.30104   0.53722   0.57069   0.746611000.00000
 Eigenvectors required to have negative eigenvalues:
                          D2        D1        A2        A1        A4
   1                    0.73361   0.67648   0.04596  -0.03397  -0.02765
                          A3        R4        R3        R2        R1
   1                   -0.01176  -0.00253   0.00207   0.00131  -0.00045
 RFO step:  Lambda0=5.502208316D-03 Lambda=-1.56077836D-01.
 Linear search not attempted -- option 19 set.
 Maximum step size (   0.030) exceeded in Quadratic search.
    -- Step size scaled by   0.005
 Iteration  1 RMS(Cart)=  0.00853785 RMS(Int)=  0.00008446
 Iteration  2 RMS(Cart)=  0.00006054 RMS(Int)=  0.00000046
 Iteration  3 RMS(Cart)=  0.00000000 RMS(Int)=  0.00000046
 Variable       Old X    -DE/DX   Delta X   Delta X   Delta X     New X
                                 (Linear)    (Quad)   (Total)
    R1        1.81425   0.04939   0.00000   0.00026   0.00026   1.81451
    R2        2.49539   0.18438   0.00000   0.00087   0.00087   2.49626
    R3        3.76193   0.22473   0.00000   0.00230   0.00230   3.76423
    R4        1.81426   0.02230   0.00000   0.00022   0.00022   1.81449
    A1        1.57262   0.05640   0.00000   0.00154   0.00154   1.57415
    A2        2.61253  -0.03660   0.00000  -0.00175  -0.00175   2.61079
    A3        2.09803  -0.01982   0.00000   0.00020   0.00020   2.09823
    A4        1.91127   0.00019   0.00000   0.00064   0.00064   1.91191
    D1        1.55136   0.00479   0.00000  -0.02020  -0.02020   1.53116
    D2       -1.59253   0.00054   0.00000  -0.02191  -0.02191  -1.61445
         Item               Value     Threshold  Converged?
 Maximum Force            0.224734     0.000450     NO 
 RMS     Force            0.096111     0.000300     NO 
 Maximum Displacement     0.019362     0.001800     NO 
 RMS     Displacement     0.008546     0.001200     NO 
 Predicted change in Energy=-7.288760D-04
 GradGradGradGradGradGradGradGradGradGradGradGradGradGradGradGradGradGrad

                          Input orientation:                          
 ---------------------------------------------------------------------
 Center     Atomic      Atomic             Coordinates (Angstroms)
 Number     Number       Type             X           Y           Z
 ---------------------------------------------------------------------
      1          8           0       -1.259107    0.711249    0.005697
      2          1           0       -1.259081    0.714603   -0.954493
      3          8           0        0.061847    0.708351    0.010154
      4          1           0        0.385153    1.611915   -0.021458
      5         53           0       -2.267522    0.700539    1.723491
 ---------------------------------------------------------------------
                    Distance matrix (angstroms):
                    1          2          3          4          5
     1  O    0.000000
     2  H    0.960195   0.000000
     3  O    1.320965   1.635675   0.000000
     4  H    1.874974   2.092660   0.960184   0.000000
     5  I    1.991943   2.861599   2.891634   3.303353   0.000000
 Stoichiometry    H2IO2(1-)
 Framework group  C1[X(H2IO2)]
 Deg. of freedom     9
 Full point group                 C1      NOp   1
 Largest Abelian subgroup         C1      NOp   1
 Largest concise Abelian subgroup C1      NOp   1
                         Standard orientation:                         
 ---------------------------------------------------------------------
 Center     Atomic      Atomic             Coordinates (Angstroms)
 Number     Number       Type             X           Y           Z
 ---------------------------------------------------------------------
      1          8           0        1.295599    0.518311    0.013112
      2          1           0        1.958537    1.210353    0.072819
      3          8           0        2.247320   -0.388077   -0.119690
      4          1           0        2.530525   -0.685985    0.748065
      5         53           0       -0.619480   -0.029552    0.000599
 ---------------------------------------------------------------------
 Rotational constants (GHZ):     53.0389745      3.0529172      2.9116700
 Standard basis: LANL2DZ (5D, 7F)
 There are    30 symmetry adapted basis functions of A   symmetry.
 Integral buffers will be    262144 words long.
 Raffenetti 2 integral format.
 Two-electron integral symmetry is turned on.
    30 basis functions,    70 primitive gaussians,    30 cartesian basis functions
    13 alpha electrons       13 beta electrons
       nuclear repulsion energy        67.0959989146 Hartrees.
 NAtoms=    5 NActive=    5 NUniq=    5 SFac= 7.50D-01 NAtFMM=   80 NAOKFM=F Big=F
 ------------------------------------------------------------------------------
 Polarizable Continuum Model (PCM)
 =================================
 Model                : PCM.
 Atomic radii         : SMD-Coulomb.
 Polarization charges : Total charges.
 Charge compensation  : None.
 Solution method      : Matrix inversion.
 Cavity type          : VdW (van der Waals Surface) (Alpha=1.000).
 Cavity algorithm     : GePol (No added spheres)
                        Default sphere list used, NSphG=    5.
                        Lebedev-Laikov grids with approx.  5.0 points / Ang**2.
                        Smoothing algorithm: Karplus/York (Gamma=1.0000).
                        Polarization charges: spherical gaussians, with
                                              point-specific exponents (IZeta= 3).
                        Self-potential: point-specific (ISelfS= 7).
                        Self-field    : sphere-specific E.n sum rule (ISelfD= 2).
 1st derivatives      : Analytical E(r).r(x)/FMM algorithm (CHGder, D1EAlg=3).
                        Cavity 1st derivative terms included.
 Solvent              : Water, Eps=  78.355300 Eps(inf)=   1.777849
 ------------------------------------------------------------------------------
 Spheres list:
 ISph  on   Nord    Re0     Alpha      Xe            Ye            Ze
    1   O      1    1.520   1.000      1.295599      0.518311      0.013112
    2   H      2    1.200   1.000      1.958537      1.210353      0.072819
    3   O      3    1.520   1.000      2.247320     -0.388077     -0.119690
    4   H      4    1.200   1.000      2.530525     -0.685985      0.748065
    5   I      5    1.980   1.000     -0.619480     -0.029552      0.000599
 ------------------------------------------------------------------------------
 ------------------------------------------------------------------------------
 Atomic radii for non-electrostatic terms: SMD-CDS.
 ------------------------------------------------------------------------------
 Nuclear repulsion after PCM non-electrostatic terms =       67.0980754504 Hartrees.
 One-electron integrals computed using PRISM.
   1 Symmetry operations used in ECPInt.
 ECPInt:  NShTT=     171 NPrTT=    1054 LenC2=     172 LenP2D=     982.
 LDataN:  DoStor=T MaxTD1= 4 Len=   56
 NBasis=    30 RedAO= T  NBF=    30
 NBsUse=    30 1.00D-06 NBFU=    30
 Defaulting to unpruned grid for atomic number  53.
 Initial guess read from the read-write file.
 B after Tr=     0.000000    0.000000    0.000000
         Rot=    1.000000    0.000000    0.000000    0.000000 Ang=   0.00 deg.
 Initial guess orbital symmetries:
       Occupied  (A) (A) (A) (A) (A) (A) (A) (A) (A) (A) (A) (A)
                 (A)
       Virtual   (A) (A) (A) (A) (A) (A) (A) (A) (A) (A) (A) (A)
                 (A) (A) (A) (A) (A)
 Requested convergence on RMS density matrix=1.00D-08 within 128 cycles.
 Requested convergence on MAX density matrix=1.00D-06.
 Requested convergence on             energy=1.00D-06.
 No special actions if energy rises.
 Keep R1 ints in memory in canonical form, NReq=3384094.
 Defaulting to unpruned grid for atomic number  53.
 Defaulting to unpruned grid for atomic number  53.
 Defaulting to unpruned grid for atomic number  53.
 Defaulting to unpruned grid for atomic number  53.
 Error on total polarization charges =  0.10659
 SCF Done:  E(RM062X) =  -162.815771865     A.U. after    9 cycles
             Convg  =    0.7789D-08             -V/T =  2.0486
 SMD-CDS (non-electrostatic) energy             (kcal/mol) =       1.30
 (included in total energy above)
   1 Symmetry operations used in ECPInt.
 ECPInt:  NShTT=     171 NPrTT=    1054 LenC2=     172 LenP2D=     982.
 LDataN:  DoStor=T MaxTD1= 5 Len=  102
 D1PCM: PCM CHGder 1st derivatives, ID1Alg=3 FixD1E=F DoIter=F DoCFld=F I1PDM=0.
 Calling FoFJK, ICntrl=      2127 FMM=F ISym2X=0 I1Cent= 0 IOpClX= 0 NMat=1 NMatS=1 NMatT=0.
 Defaulting to unpruned grid for atomic number  53.
 Defaulting to unpruned grid for atomic number  53.
 Defaulting to unpruned grid for atomic number  53.
 Defaulting to unpruned grid for atomic number  53.
 ***** Axes restored to original set *****
 -------------------------------------------------------------------
 Center     Atomic                   Forces (Hartrees/Bohr)
 Number     Number              X              Y              Z
 -------------------------------------------------------------------
      1        8          -0.015204002    0.003927319   -0.171991734
      2        1          -0.051034105   -0.002591782   -0.049204344
      3        8           0.175992162   -0.021277057    0.027746433
      4        1           0.007518224    0.021066769    0.002556286
      5       53          -0.117272279   -0.001125249    0.190893359
 -------------------------------------------------------------------
 Cartesian Forces:  Max     0.190893359 RMS     0.088602867

 GradGradGradGradGradGradGradGradGradGradGradGradGradGradGradGradGradGrad
 Berny optimization.
 Internal  Forces:  Max     0.224011890 RMS     0.095770157
 Search for a saddle point.
 Step number   3 out of a maximum of   20
 All quantities printed in internal units (Hartrees-Bohrs-Radians)
 Swaping is turned off.
 Update second derivatives using D2CorX and points    1    2    3
 The second derivative matrix:
                          R1        R2        R3        R4        A1
           R1           0.53250
           R2          -0.00625   0.68997
           R3           0.02632   0.02642   0.29531
           R4           0.00121  -0.00333   0.00182   0.57036
           A1           0.01804   0.11582  -0.01165   0.00042   0.14944
           A2          -0.01987  -0.02961  -0.01745  -0.00161  -0.05845
           A3           0.00183  -0.08618   0.02912   0.00117  -0.09096
           A4          -0.00034   0.07918  -0.00159   0.00815   0.01034
           D1           0.00466   0.00690   0.00023   0.00391   0.01120
           D2          -0.00192   0.00174   0.00001  -0.00135  -0.00158
                          A2        A3        A4        D1        D2
           A2           0.03470
           A3           0.02365   0.06741
           A4          -0.00192  -0.00839   0.25111
           D1          -0.00518  -0.00624   0.00390   0.08738
           D2           0.00037   0.00089   0.00685  -0.07369   0.07386
     Eigenvalues ---    0.00607   0.01864   0.15130   0.18051   0.23994
     Eigenvalues ---    0.30102   0.53722   0.57069   0.746641000.00000
 Eigenvectors required to have negative eigenvalues:
                          D2        D1        A2        A1        A4
   1                    0.73481   0.67401   0.05654  -0.03404  -0.03008
                          A3        R3        R4        R1        R2
   1                   -0.02209   0.00354  -0.00226  -0.00011   0.00009
 RFO step:  Lambda0=6.228566880D-03 Lambda=-1.55257445D-01.
 Linear search not attempted -- option 19 set.
 Maximum step size (   0.030) exceeded in Quadratic search.
    -- Step size scaled by   0.005
 Iteration  1 RMS(Cart)=  0.00866331 RMS(Int)=  0.00008485
 Iteration  2 RMS(Cart)=  0.00006065 RMS(Int)=  0.00000051
 Iteration  3 RMS(Cart)=  0.00000000 RMS(Int)=  0.00000051
 Variable       Old X    -DE/DX   Delta X   Delta X   Delta X     New X
                                 (Linear)    (Quad)   (Total)
    R1        1.81451   0.04918   0.00000   0.00024   0.00024   1.81475
    R2        2.49626   0.18364   0.00000   0.00089   0.00089   2.49715
    R3        3.76423   0.22401   0.00000   0.00223   0.00223   3.76646
    R4        1.81449   0.02221   0.00000   0.00021   0.00021   1.81470
    A1        1.57415   0.05619   0.00000   0.00153   0.00153   1.57568
    A2        2.61079  -0.03648   0.00000  -0.00206  -0.00206   2.60872
    A3        2.09823  -0.01974   0.00000   0.00052   0.00051   2.09875
    A4        1.91191   0.00018   0.00000   0.00071   0.00071   1.91262
    D1        1.53116   0.00490   0.00000  -0.02012  -0.02012   1.51104
    D2       -1.61445   0.00067   0.00000  -0.02195  -0.02195  -1.63640
         Item               Value     Threshold  Converged?
 Maximum Force            0.224012     0.000450     NO 
 RMS     Force            0.095770     0.000300     NO 
 Maximum Displacement     0.019591     0.001800     NO 
 RMS     Displacement     0.008670     0.001200     NO 
 Predicted change in Energy=-7.151303D-04
 GradGradGradGradGradGradGradGradGradGradGradGradGradGradGradGradGradGrad

                          Input orientation:                          
 ---------------------------------------------------------------------
 Center     Atomic      Atomic             Coordinates (Angstroms)
 Number     Number       Type             X           Y           Z
 ---------------------------------------------------------------------
      1          8           0       -1.258673    0.712683    0.008023
      2          1           0       -1.257819    0.717697   -0.952288
      3          8           0        0.062736    0.708544    0.015634
      4          1           0        0.387742    1.610924   -0.031825
      5         53           0       -2.272696    0.696809    1.723846
 ---------------------------------------------------------------------
                    Distance matrix (angstroms):
                    1          2          3          4          5
     1  O    0.000000
     2  H    0.960324   0.000000
     3  O    1.321437   1.637322   0.000000
     4  H    1.875928   2.086379   0.960298   0.000000
     5  I    1.993125   2.862185   2.893505   3.316010   0.000000
 Stoichiometry    H2IO2(1-)
 Framework group  C1[X(H2IO2)]
 Deg. of freedom     9
 Full point group                 C1      NOp   1
 Largest Abelian subgroup         C1      NOp   1
 Largest concise Abelian subgroup C1      NOp   1
                         Standard orientation:                         
 ---------------------------------------------------------------------
 Center     Atomic      Atomic             Coordinates (Angstroms)
 Number     Number       Type             X           Y           Z
 ---------------------------------------------------------------------
      1          8           0        1.296427    0.517678    0.012049
      2          1           0        1.958336    1.211126    0.068858
      3          8           0        2.248487   -0.389277   -0.119143
      4          1           0        2.545918   -0.671664    0.749168
      5         53           0       -0.620067   -0.029560    0.000731
 ---------------------------------------------------------------------
 Rotational constants (GHZ):     53.1229474      3.0477243      2.9071662
 Standard basis: LANL2DZ (5D, 7F)
 There are    30 symmetry adapted basis functions of A   symmetry.
 Integral buffers will be    262144 words long.
 Raffenetti 2 integral format.
 Two-electron integral symmetry is turned on.
    30 basis functions,    70 primitive gaussians,    30 cartesian basis functions
    13 alpha electrons       13 beta electrons
       nuclear repulsion energy        67.0627316921 Hartrees.
 NAtoms=    5 NActive=    5 NUniq=    5 SFac= 7.50D-01 NAtFMM=   80 NAOKFM=F Big=F
 ------------------------------------------------------------------------------
 Polarizable Continuum Model (PCM)
 =================================
 Model                : PCM.
 Atomic radii         : SMD-Coulomb.
 Polarization charges : Total charges.
 Charge compensation  : None.
 Solution method      : Matrix inversion.
 Cavity type          : VdW (van der Waals Surface) (Alpha=1.000).
 Cavity algorithm     : GePol (No added spheres)
                        Default sphere list used, NSphG=    5.
                        Lebedev-Laikov grids with approx.  5.0 points / Ang**2.
                        Smoothing algorithm: Karplus/York (Gamma=1.0000).
                        Polarization charges: spherical gaussians, with
                                              point-specific exponents (IZeta= 3).
                        Self-potential: point-specific (ISelfS= 7).
                        Self-field    : sphere-specific E.n sum rule (ISelfD= 2).
 1st derivatives      : Analytical E(r).r(x)/FMM algorithm (CHGder, D1EAlg=3).
                        Cavity 1st derivative terms included.
 Solvent              : Water, Eps=  78.355300 Eps(inf)=   1.777849
 ------------------------------------------------------------------------------
 Spheres list:
 ISph  on   Nord    Re0     Alpha      Xe            Ye            Ze
    1   O      1    1.520   1.000      1.296427      0.517678      0.012049
    2   H      2    1.200   1.000      1.958336      1.211126      0.068858
    3   O      3    1.520   1.000      2.248487     -0.389277     -0.119143
    4   H      4    1.200   1.000      2.545918     -0.671664      0.749168
    5   I      5    1.980   1.000     -0.620067     -0.029560      0.000731
 ------------------------------------------------------------------------------
 ------------------------------------------------------------------------------
 Atomic radii for non-electrostatic terms: SMD-CDS.
 ------------------------------------------------------------------------------
 Nuclear repulsion after PCM non-electrostatic terms =       67.0648091341 Hartrees.
 One-electron integrals computed using PRISM.
   1 Symmetry operations used in ECPInt.
 ECPInt:  NShTT=     171 NPrTT=    1054 LenC2=     172 LenP2D=     982.
 LDataN:  DoStor=T MaxTD1= 4 Len=   56
 NBasis=    30 RedAO= T  NBF=    30
 NBsUse=    30 1.00D-06 NBFU=    30
 Defaulting to unpruned grid for atomic number  53.
 Initial guess read from the read-write file.
 B after Tr=     0.000000    0.000000    0.000000
         Rot=    1.000000    0.000000    0.000000    0.000000 Ang=   0.00 deg.
 Initial guess orbital symmetries:
       Occupied  (A) (A) (A) (A) (A) (A) (A) (A) (A) (A) (A) (A)
                 (A)
       Virtual   (A) (A) (A) (A) (A) (A) (A) (A) (A) (A) (A) (A)
                 (A) (A) (A) (A) (A)
 Requested convergence on RMS density matrix=1.00D-08 within 128 cycles.
 Requested convergence on MAX density matrix=1.00D-06.
 Requested convergence on             energy=1.00D-06.
 No special actions if energy rises.
 Keep R1 ints in memory in canonical form, NReq=3384094.
 Defaulting to unpruned grid for atomic number  53.
 Defaulting to unpruned grid for atomic number  53.
 Defaulting to unpruned grid for atomic number  53.
 Defaulting to unpruned grid for atomic number  53.
 Error on total polarization charges =  0.10656
 SCF Done:  E(RM062X) =  -162.816485216     A.U. after    9 cycles
             Convg  =    0.7799D-08             -V/T =  2.0486
 SMD-CDS (non-electrostatic) energy             (kcal/mol) =       1.30
 (included in total energy above)
   1 Symmetry operations used in ECPInt.
 ECPInt:  NShTT=     171 NPrTT=    1054 LenC2=     172 LenP2D=     982.
 LDataN:  DoStor=T MaxTD1= 5 Len=  102
 D1PCM: PCM CHGder 1st derivatives, ID1Alg=3 FixD1E=F DoIter=F DoCFld=F I1PDM=0.
 Calling FoFJK, ICntrl=      2127 FMM=F ISym2X=0 I1Cent= 0 IOpClX= 0 NMat=1 NMatS=1 NMatT=0.
 Defaulting to unpruned grid for atomic number  53.
 Defaulting to unpruned grid for atomic number  53.
 Defaulting to unpruned grid for atomic number  53.
 Defaulting to unpruned grid for atomic number  53.
 ***** Axes restored to original set *****
 -------------------------------------------------------------------
 Center     Atomic                   Forces (Hartrees/Bohr)
 Number     Number              X              Y              Z
 -------------------------------------------------------------------
      1        8          -0.014454338    0.004712651   -0.171473542
      2        1          -0.050804793   -0.002562621   -0.049056642
      3        8           0.175211886   -0.021455840    0.028214828
      4        1           0.007507994    0.020982479    0.002384080
      5       53          -0.117460748   -0.001676669    0.189931276
 -------------------------------------------------------------------
 Cartesian Forces:  Max     0.189931276 RMS     0.088302602

 GradGradGradGradGradGradGradGradGradGradGradGradGradGradGradGradGradGrad
 Berny optimization.
 Internal  Forces:  Max     0.223298621 RMS     0.095433138
 Search for a saddle point.
 Step number   4 out of a maximum of   20
 All quantities printed in internal units (Hartrees-Bohrs-Radians)
 Swaping is turned off.
 Update second derivatives using D2CorX and points    1    2    3    4
 The second derivative matrix:
                          R1        R2        R3        R4        A1
           R1           0.53250
           R2          -0.00626   0.69001
           R3           0.02632   0.02639   0.29529
           R4           0.00123  -0.00338   0.00187   0.57052
           A1           0.01804   0.11579  -0.01166   0.00046   0.14944
           A2          -0.01987  -0.02958  -0.01744  -0.00168  -0.05845
           A3           0.00183  -0.08617   0.02912   0.00120  -0.09097
           A4          -0.00033   0.07922  -0.00159   0.00816   0.01032
           D1           0.00463   0.00730   0.00033   0.00321   0.01119
           D2          -0.00196   0.00214   0.00009  -0.00215  -0.00159
                          A2        A3        A4        D1        D2
           A2           0.03469
           A3           0.02364   0.06743
           A4          -0.00192  -0.00836   0.25118
           D1          -0.00518  -0.00623   0.00407   0.08782
           D2           0.00039   0.00087   0.00696  -0.07311   0.07468
     Eigenvalues ---    0.00727   0.01865   0.15134   0.18051   0.24001
     Eigenvalues ---    0.30101   0.53722   0.57085   0.746681000.00000
 Eigenvectors required to have negative eigenvalues:
                          D2        D1        A2        A1        A4
   1                    0.73392   0.67442   0.06088  -0.03420  -0.03080
                          A3        R3        R2        R4        R1
   1                   -0.02609   0.00384  -0.00095  -0.00036   0.00013
 RFO step:  Lambda0=7.425247310D-03 Lambda=-1.54451002D-01.
 Linear search not attempted -- option 19 set.
 Maximum step size (   0.030) exceeded in Quadratic search.
    -- Step size scaled by   0.004
 Iteration  1 RMS(Cart)=  0.00870745 RMS(Int)=  0.00008525
 Iteration  2 RMS(Cart)=  0.00006083 RMS(Int)=  0.00000048
 Iteration  3 RMS(Cart)=  0.00000000 RMS(Int)=  0.00000048
 Variable       Old X    -DE/DX   Delta X   Delta X   Delta X     New X
                                 (Linear)    (Quad)   (Total)
    R1        1.81475   0.04898   0.00000   0.00021   0.00021   1.81496
    R2        2.49715   0.18291   0.00000   0.00082   0.00082   2.49798
    R3        3.76646   0.22330   0.00000   0.00197   0.00197   3.76843
    R4        1.81470   0.02210   0.00000   0.00014   0.00014   1.81484
    A1        1.57568   0.05599   0.00000   0.00148   0.00148   1.57717
    A2        2.60872  -0.03635   0.00000  -0.00215  -0.00215   2.60657
    A3        2.09875  -0.01968   0.00000   0.00065   0.00065   2.09940
    A4        1.91262   0.00015   0.00000   0.00076   0.00076   1.91338
    D1        1.51104   0.00503   0.00000  -0.02015  -0.02015   1.49088
    D2       -1.63640   0.00084   0.00000  -0.02194  -0.02194  -1.65834
         Item               Value     Threshold  Converged?
 Maximum Force            0.223299     0.000450     NO 
 RMS     Force            0.095433     0.000300     NO 
 Maximum Displacement     0.019685     0.001800     NO 
 RMS     Displacement     0.008714     0.001200     NO 
 Predicted change in Energy=-6.274270D-04
 GradGradGradGradGradGradGradGradGradGradGradGradGradGradGradGradGradGrad

                          Input orientation:                          
 ---------------------------------------------------------------------
 Center     Atomic      Atomic             Coordinates (Angstroms)
 Number     Number       Type             X           Y           Z
 ---------------------------------------------------------------------
      1          8           0       -1.258209    0.714128    0.010437
      2          1           0       -1.256557    0.720799   -0.949973
      3          8           0        0.063611    0.708901    0.021093
      4          1           0        0.390306    1.609775   -0.042242
      5         53           0       -2.277860    0.693054    1.724076
 ---------------------------------------------------------------------
                    Distance matrix (angstroms):
                    1          2          3          4          5
     1  O    0.000000
     2  H    0.960434   0.000000
     3  O    1.321873   1.638888   0.000000
     4  H    1.876848   2.080002   0.960372   0.000000
     5  I    1.994165   2.862581   2.895322   3.328568   0.000000
 Stoichiometry    H2IO2(1-)
 Framework group  C1[X(H2IO2)]
 Deg. of freedom     9
 Full point group                 C1      NOp   1
 Largest Abelian subgroup         C1      NOp   1
 Largest concise Abelian subgroup C1      NOp   1
                         Standard orientation:                         
 ---------------------------------------------------------------------
 Center     Atomic      Atomic             Coordinates (Angstroms)
 Number     Number       Type             X           Y           Z
 ---------------------------------------------------------------------
      1          8           0        1.297152    0.516964    0.010965
      2          1           0        1.957972    1.211835    0.064866
      3          8           0        2.249632   -0.390432   -0.118517
      4          1           0        2.561268   -0.657191    0.749836
      5         53           0       -0.620632   -0.029564    0.000862
 ---------------------------------------------------------------------
 Rotational constants (GHZ):     53.2222116      3.0427387      2.9028663
 Standard basis: LANL2DZ (5D, 7F)
 There are    30 symmetry adapted basis functions of A   symmetry.
 Integral buffers will be    262144 words long.
 Raffenetti 2 integral format.
 Two-electron integral symmetry is turned on.
    30 basis functions,    70 primitive gaussians,    30 cartesian basis functions
    13 alpha electrons       13 beta electrons
       nuclear repulsion energy        67.0320575139 Hartrees.
 NAtoms=    5 NActive=    5 NUniq=    5 SFac= 7.50D-01 NAtFMM=   80 NAOKFM=F Big=F
 ------------------------------------------------------------------------------
 Polarizable Continuum Model (PCM)
 =================================
 Model                : PCM.
 Atomic radii         : SMD-Coulomb.
 Polarization charges : Total charges.
 Charge compensation  : None.
 Solution method      : Matrix inversion.
 Cavity type          : VdW (van der Waals Surface) (Alpha=1.000).
 Cavity algorithm     : GePol (No added spheres)
                        Default sphere list used, NSphG=    5.
                        Lebedev-Laikov grids with approx.  5.0 points / Ang**2.
                        Smoothing algorithm: Karplus/York (Gamma=1.0000).
                        Polarization charges: spherical gaussians, with
                                              point-specific exponents (IZeta= 3).
                        Self-potential: point-specific (ISelfS= 7).
                        Self-field    : sphere-specific E.n sum rule (ISelfD= 2).
 1st derivatives      : Analytical E(r).r(x)/FMM algorithm (CHGder, D1EAlg=3).
                        Cavity 1st derivative terms included.
 Solvent              : Water, Eps=  78.355300 Eps(inf)=   1.777849
 ------------------------------------------------------------------------------
 Spheres list:
 ISph  on   Nord    Re0     Alpha      Xe            Ye            Ze
    1   O      1    1.520   1.000      1.297152      0.516964      0.010965
    2   H      2    1.200   1.000      1.957972      1.211835      0.064866
    3   O      3    1.520   1.000      2.249632     -0.390432     -0.118517
    4   H      4    1.200   1.000      2.561268     -0.657191      0.749836
    5   I      5    1.980   1.000     -0.620632     -0.029564      0.000862
 ------------------------------------------------------------------------------
 ------------------------------------------------------------------------------
 Atomic radii for non-electrostatic terms: SMD-CDS.
 ------------------------------------------------------------------------------
 Nuclear repulsion after PCM non-electrostatic terms =       67.0341377970 Hartrees.
 One-electron integrals computed using PRISM.
   1 Symmetry operations used in ECPInt.
 ECPInt:  NShTT=     171 NPrTT=    1054 LenC2=     172 LenP2D=     982.
 LDataN:  DoStor=T MaxTD1= 4 Len=   56
 NBasis=    30 RedAO= T  NBF=    30
 NBsUse=    30 1.00D-06 NBFU=    30
 Defaulting to unpruned grid for atomic number  53.
 Initial guess read from the read-write file.
 B after Tr=     0.000000    0.000000    0.000000
         Rot=    1.000000    0.000000    0.000000    0.000000 Ang=   0.00 deg.
 Initial guess orbital symmetries:
       Occupied  (A) (A) (A) (A) (A) (A) (A) (A) (A) (A) (A) (A)
                 (A)
       Virtual   (A) (A) (A) (A) (A) (A) (A) (A) (A) (A) (A) (A)
                 (A) (A) (A) (A) (A)
 Requested convergence on RMS density matrix=1.00D-08 within 128 cycles.
 Requested convergence on MAX density matrix=1.00D-06.
 Requested convergence on             energy=1.00D-06.
 No special actions if energy rises.
 Keep R1 ints in memory in canonical form, NReq=3380459.
 Defaulting to unpruned grid for atomic number  53.
 Defaulting to unpruned grid for atomic number  53.
 Defaulting to unpruned grid for atomic number  53.
 Defaulting to unpruned grid for atomic number  53.
 Error on total polarization charges =  0.10653
 SCF Done:  E(RM062X) =  -162.817110046     A.U. after    9 cycles
             Convg  =    0.7102D-08             -V/T =  2.0486
 SMD-CDS (non-electrostatic) energy             (kcal/mol) =       1.31
 (included in total energy above)
   1 Symmetry operations used in ECPInt.
 ECPInt:  NShTT=     171 NPrTT=    1054 LenC2=     172 LenP2D=     982.
 LDataN:  DoStor=T MaxTD1= 5 Len=  102
 D1PCM: PCM CHGder 1st derivatives, ID1Alg=3 FixD1E=F DoIter=F DoCFld=F I1PDM=0.
 Calling FoFJK, ICntrl=      2127 FMM=F ISym2X=0 I1Cent= 0 IOpClX= 0 NMat=1 NMatS=1 NMatT=0.
 Defaulting to unpruned grid for atomic number  53.
 Defaulting to unpruned grid for atomic number  53.
 Defaulting to unpruned grid for atomic number  53.
 Defaulting to unpruned grid for atomic number  53.
 ***** Axes restored to original set *****
 -------------------------------------------------------------------
 Center     Atomic                   Forces (Hartrees/Bohr)
 Number     Number              X              Y              Z
 -------------------------------------------------------------------
      1        8          -0.013724073    0.005481251   -0.170979807
      2        1          -0.050595272   -0.002542147   -0.048931762
      3        8           0.174501940   -0.021615268    0.028661420
      4        1           0.007513038    0.020905327    0.002222787
      5       53          -0.117695633   -0.002229163    0.189027361
 -------------------------------------------------------------------
 Cartesian Forces:  Max     0.189027361 RMS     0.088030210

 GradGradGradGradGradGradGradGradGradGradGradGradGradGradGradGradGradGrad
 Berny optimization.
 Internal  Forces:  Max     0.222662538 RMS     0.095133295
 Search for a saddle point.
 Step number   5 out of a maximum of   20
 All quantities printed in internal units (Hartrees-Bohrs-Radians)
 Swaping is turned off.
 Update second derivatives using D2CorX and points    1    2    3    4    5
 The second derivative matrix:
                          R1        R2        R3        R4        A1
           R1           0.53250
           R2          -0.00626   0.69003
           R3           0.02632   0.02635   0.29528
           R4           0.00123  -0.00345   0.00193   0.57071
           A1           0.01804   0.11575  -0.01166   0.00052   0.14945
           A2          -0.01987  -0.02955  -0.01744  -0.00174  -0.05845
           A3           0.00183  -0.08616   0.02911   0.00119  -0.09097
           A4          -0.00034   0.07928  -0.00163   0.00805   0.01028
           D1           0.00464   0.00767   0.00035   0.00254   0.01112
           D2          -0.00195   0.00253   0.00012  -0.00286  -0.00165
                          A2        A3        A4        D1        D2
           A2           0.03469
           A3           0.02365   0.06743
           A4          -0.00187  -0.00835   0.25124
           D1          -0.00520  -0.00612   0.00461   0.08808
           D2           0.00037   0.00098   0.00753  -0.07293   0.07477
     Eigenvalues ---    0.00755   0.01866   0.15135   0.18052   0.24011
     Eigenvalues ---    0.30099   0.53722   0.57103   0.746711000.00000
 Eigenvectors required to have negative eigenvalues:
                          D2        D1        A2        A3        A1
   1                    0.73368   0.67310   0.07082  -0.03578  -0.03427
                          A4        R3        R2        R4        R1
   1                   -0.03393   0.00535  -0.00218   0.00146   0.00044
 RFO step:  Lambda0=7.764555467D-03 Lambda=-1.53731801D-01.
 Linear search not attempted -- option 19 set.
 Maximum step size (   0.030) exceeded in Quadratic search.
    -- Step size scaled by   0.005
 Iteration  1 RMS(Cart)=  0.00882594 RMS(Int)=  0.00008535
 Iteration  2 RMS(Cart)=  0.00006086 RMS(Int)=  0.00000049
 Iteration  3 RMS(Cart)=  0.00000000 RMS(Int)=  0.00000049
 Variable       Old X    -DE/DX   Delta X   Delta X   Delta X     New X
                                 (Linear)    (Quad)   (Total)
    R1        1.81496   0.04881   0.00000   0.00023   0.00023   1.81519
    R2        2.49798   0.18226   0.00000   0.00097   0.00097   2.49895
    R3        3.76843   0.22266   0.00000   0.00222   0.00222   3.77065
    R4        1.81484   0.02199   0.00000   0.00010   0.00010   1.81494
    A1        1.57717   0.05581   0.00000   0.00155   0.00155   1.57871
    A2        2.60657  -0.03624   0.00000  -0.00249  -0.00250   2.60408
    A3        2.09940  -0.01962   0.00000   0.00092   0.00092   2.10032
    A4        1.91338   0.00014   0.00000   0.00083   0.00083   1.91421
    D1        1.49088   0.00517   0.00000  -0.02009  -0.02009   1.47079
    D2       -1.65834   0.00100   0.00000  -0.02191  -0.02191  -1.68025
         Item               Value     Threshold  Converged?
 Maximum Force            0.222663     0.000450     NO 
 RMS     Force            0.095133     0.000300     NO 
 Maximum Displacement     0.019854     0.001800     NO 
 RMS     Displacement     0.008831     0.001200     NO 
 Predicted change in Energy=-7.140436D-04
 GradGradGradGradGradGradGradGradGradGradGradGradGradGradGradGradGradGrad

                          Input orientation:                          
 ---------------------------------------------------------------------
 Center     Atomic      Atomic             Coordinates (Angstroms)
 Number     Number       Type             X           Y           Z
 ---------------------------------------------------------------------
      1          8           0       -1.257675    0.715593    0.012934
      2          1           0       -1.255418    0.723873   -0.947583
      3          8           0        0.064629    0.709448    0.026460
      4          1           0        0.393013    1.608510   -0.052749
      5         53           0       -2.283259    0.689233    1.724327
 ---------------------------------------------------------------------
                    Distance matrix (angstroms):
                    1          2          3          4          5
     1  O    0.000000
     2  H    0.960555   0.000000
     3  O    1.322388   1.640577   0.000000
     4  H    1.877867   2.073797   0.960427   0.000000
     5  I    1.995340   2.862999   2.897541   3.341482   0.000000
 Stoichiometry    H2IO2(1-)
 Framework group  C1[X(H2IO2)]
 Deg. of freedom     9
 Full point group                 C1      NOp   1
 Largest Abelian subgroup         C1      NOp   1
 Largest concise Abelian subgroup C1      NOp   1
                         Standard orientation:                         
 ---------------------------------------------------------------------
 Center     Atomic      Atomic             Coordinates (Angstroms)
 Number     Number       Type             X           Y           Z
 ---------------------------------------------------------------------
      1          8           0        1.297972    0.516164    0.009870
      2          1           0        1.957512    1.212639    0.060822
      3          8           0        2.251119   -0.391536   -0.117815
      4          1           0        2.576949   -0.642588    0.750072
      5         53           0       -0.621268   -0.029568    0.000994
 ---------------------------------------------------------------------
 Rotational constants (GHZ):     53.3351739      3.0370308      2.8979195
 Standard basis: LANL2DZ (5D, 7F)
 There are    30 symmetry adapted basis functions of A   symmetry.
 Integral buffers will be    262144 words long.
 Raffenetti 2 integral format.
 Two-electron integral symmetry is turned on.
    30 basis functions,    70 primitive gaussians,    30 cartesian basis functions
    13 alpha electrons       13 beta electrons
       nuclear repulsion energy        66.9970613005 Hartrees.
 NAtoms=    5 NActive=    5 NUniq=    5 SFac= 7.50D-01 NAtFMM=   80 NAOKFM=F Big=F
 ------------------------------------------------------------------------------
 Polarizable Continuum Model (PCM)
 =================================
 Model                : PCM.
 Atomic radii         : SMD-Coulomb.
 Polarization charges : Total charges.
 Charge compensation  : None.
 Solution method      : Matrix inversion.
 Cavity type          : VdW (van der Waals Surface) (Alpha=1.000).
 Cavity algorithm     : GePol (No added spheres)
                        Default sphere list used, NSphG=    5.
                        Lebedev-Laikov grids with approx.  5.0 points / Ang**2.
                        Smoothing algorithm: Karplus/York (Gamma=1.0000).
                        Polarization charges: spherical gaussians, with
                                              point-specific exponents (IZeta= 3).
                        Self-potential: point-specific (ISelfS= 7).
                        Self-field    : sphere-specific E.n sum rule (ISelfD= 2).
 1st derivatives      : Analytical E(r).r(x)/FMM algorithm (CHGder, D1EAlg=3).
                        Cavity 1st derivative terms included.
 Solvent              : Water, Eps=  78.355300 Eps(inf)=   1.777849
 ------------------------------------------------------------------------------
 Spheres list:
 ISph  on   Nord    Re0     Alpha      Xe            Ye            Ze
    1   O      1    1.520   1.000      1.297972      0.516164      0.009870
    2   H      2    1.200   1.000      1.957512      1.212639      0.060822
    3   O      3    1.520   1.000      2.251119     -0.391536     -0.117815
    4   H      4    1.200   1.000      2.576949     -0.642588      0.750072
    5   I      5    1.980   1.000     -0.621268     -0.029568      0.000994
 ------------------------------------------------------------------------------
 ------------------------------------------------------------------------------
 Atomic radii for non-electrostatic terms: SMD-CDS.
 ------------------------------------------------------------------------------
 Nuclear repulsion after PCM non-electrostatic terms =       66.9991461424 Hartrees.
 One-electron integrals computed using PRISM.
   1 Symmetry operations used in ECPInt.
 ECPInt:  NShTT=     171 NPrTT=    1054 LenC2=     172 LenP2D=     982.
 LDataN:  DoStor=T MaxTD1= 4 Len=   56
 NBasis=    30 RedAO= T  NBF=    30
 NBsUse=    30 1.00D-06 NBFU=    30
 Defaulting to unpruned grid for atomic number  53.
 Initial guess read from the read-write file.
 B after Tr=     0.000000    0.000000    0.000000
         Rot=    1.000000    0.000000    0.000000    0.000000 Ang=   0.00 deg.
 Initial guess orbital symmetries:
       Occupied  (A) (A) (A) (A) (A) (A) (A) (A) (A) (A) (A) (A)
                 (A)
       Virtual   (A) (A) (A) (A) (A) (A) (A) (A) (A) (A) (A) (A)
                 (A) (A) (A) (A) (A)
 Requested convergence on RMS density matrix=1.00D-08 within 128 cycles.
 Requested convergence on MAX density matrix=1.00D-06.
 Requested convergence on             energy=1.00D-06.
 No special actions if energy rises.
 Keep R1 ints in memory in canonical form, NReq=3379251.
 Defaulting to unpruned grid for atomic number  53.
 Defaulting to unpruned grid for atomic number  53.
 Defaulting to unpruned grid for atomic number  53.
 Defaulting to unpruned grid for atomic number  53.
 Error on total polarization charges =  0.10649
 SCF Done:  E(RM062X) =  -162.817820246     A.U. after    9 cycles
             Convg  =    0.7438D-08             -V/T =  2.0487
 SMD-CDS (non-electrostatic) energy             (kcal/mol) =       1.31
 (included in total energy above)
   1 Symmetry operations used in ECPInt.
 ECPInt:  NShTT=     171 NPrTT=    1054 LenC2=     172 LenP2D=     982.
 LDataN:  DoStor=T MaxTD1= 5 Len=  102
 D1PCM: PCM CHGder 1st derivatives, ID1Alg=3 FixD1E=F DoIter=F DoCFld=F I1PDM=0.
 Calling FoFJK, ICntrl=      2127 FMM=F ISym2X=0 I1Cent= 0 IOpClX= 0 NMat=1 NMatS=1 NMatT=0.
 Defaulting to unpruned grid for atomic number  53.
 Defaulting to unpruned grid for atomic number  53.
 Defaulting to unpruned grid for atomic number  53.
 Defaulting to unpruned grid for atomic number  53.
 ***** Axes restored to original set *****
 -------------------------------------------------------------------
 Center     Atomic                   Forces (Hartrees/Bohr)
 Number     Number              X              Y              Z
 -------------------------------------------------------------------
      1        8          -0.012945927    0.006239907   -0.170381711
      2        1          -0.050371415   -0.002528787   -0.048772521
      3        8           0.173687407   -0.021768912    0.029053810
      4        1           0.007533300    0.020844545    0.002069311
      5       53          -0.117903365   -0.002786753    0.188031110
 -------------------------------------------------------------------
 Cartesian Forces:  Max     0.188031110 RMS     0.087713326

 GradGradGradGradGradGradGradGradGradGradGradGradGradGradGradGradGradGrad
 Berny optimization.
 Internal  Forces:  Max     0.221937243 RMS     0.094791183
 Search for a saddle point.
 Step number   6 out of a maximum of   20
 All quantities printed in internal units (Hartrees-Bohrs-Radians)
 Swaping is turned off.
 Update second derivatives using D2CorX and points    1    2    3    4    5
                                                      6
 The second derivative matrix:
                          R1        R2        R3        R4        A1
           R1           0.53250
           R2          -0.00626   0.69005
           R3           0.02632   0.02633   0.29527
           R4           0.00123  -0.00344   0.00192   0.57057
           A1           0.01804   0.11572  -0.01165   0.00053   0.14947
           A2          -0.01986  -0.02951  -0.01743  -0.00171  -0.05846
           A3           0.00183  -0.08616   0.02910   0.00117  -0.09099
           A4          -0.00035   0.07932  -0.00170   0.00798   0.01020
           D1           0.00467   0.00803   0.00042   0.00261   0.01098
           D2          -0.00191   0.00290   0.00022  -0.00275  -0.00179
                          A2        A3        A4        D1        D2
           A2           0.03469
           A3           0.02367   0.06743
           A4          -0.00179  -0.00836   0.25133
           D1          -0.00520  -0.00597   0.00548   0.08851
           D2           0.00034   0.00114   0.00844  -0.07272   0.07473
     Eigenvalues ---    0.00783   0.01867   0.15136   0.18052   0.24029
     Eigenvalues ---    0.30098   0.53722   0.57089   0.746731000.00000
 Eigenvectors required to have negative eigenvalues:
                          D2        D1        A2        A3        A4
   1                    0.73375   0.67071   0.08234  -0.04737  -0.03900
                          A1        R3        R2        R4        R1
   1                   -0.03398   0.00687  -0.00339   0.00136   0.00073
 RFO step:  Lambda0=8.096159991D-03 Lambda=-1.52909360D-01.
 Linear search not attempted -- option 19 set.
[...]
 Iteration  2 RMS(Cart)=  0.00008801 RMS(Int)=  0.00000006
 Iteration  3 RMS(Cart)=  0.00000000 RMS(Int)=  0.00000006
 Variable       Old X    -DE/DX   Delta X   Delta X   Delta X     New X
                                 (Linear)    (Quad)   (Total)
    R1        1.81977   0.04409   0.00000   0.00174   0.00174   1.82151
    R2        2.52322   0.16504   0.00000   0.00351   0.00351   2.52673
    R3        3.82111   0.20580   0.00000   0.01555   0.01555   3.83666
    R4        1.81922   0.02003   0.00000   0.00079   0.00079   1.82001
    A1        1.59809   0.05105   0.00000   0.00170   0.00170   1.59980
    A2        2.55397  -0.03352   0.00000   0.01253   0.01253   2.56650
    A3        2.13071  -0.01765   0.00000  -0.01419  -0.01419   2.11652
    A4        1.91805  -0.00060   0.00000  -0.00149  -0.00149   1.91656
    D1        1.33231   0.00565   0.00000   0.01111   0.01111   1.34342
    D2       -1.83222   0.00184   0.00000   0.01247   0.01247  -1.81975
         Item               Value     Threshold  Converged?
 Maximum Force            0.205800     0.000450     NO 
 RMS     Force            0.087186     0.000300     NO 
 Maximum Displacement     0.019156     0.001800     NO 
 RMS     Displacement     0.011822     0.001200     NO 
 Predicted change in Energy=-3.837671D-03
 GradGradGradGradGradGradGradGradGradGradGradGradGradGradGradGradGradGrad

                          Input orientation:                          
 ---------------------------------------------------------------------
 Center     Atomic      Atomic             Coordinates (Angstroms)
 Number     Number       Type             X           Y           Z
 ---------------------------------------------------------------------
      1          8           0       -1.249932    0.724547    0.028146
      2          1           0       -1.257696    0.742458   -0.935559
      3          8           0        0.086844    0.717016    0.056014
      4          1           0        0.422085    1.601566   -0.124994
      5         53           0       -2.340011    0.661071    1.739783
 ---------------------------------------------------------------------
                    Distance matrix (angstroms):
                    1          2          3          4          5
     1  O    0.000000
     2  H    0.963902   0.000000
     3  O    1.337088   1.670824   0.000000
     4  H    1.894270   2.053472   0.963109   0.000000
     5  I    2.030271   2.887123   2.954290   3.462816   0.000000
 Stoichiometry    H2IO2(1-)
 Framework group  C1[X(H2IO2)]
 Deg. of freedom     9
 Full point group                 C1      NOp   1
 Largest Abelian subgroup         C1      NOp   1
 Largest concise Abelian subgroup C1      NOp   1
                         Standard orientation:                         
 ---------------------------------------------------------------------
 Center     Atomic      Atomic             Coordinates (Angstroms)
 Number     Number       Type             X           Y           Z
 ---------------------------------------------------------------------
      1          8           0        1.322774    0.511077    0.002348
      2          1           0        1.963014    1.230925    0.034271
      3          8           0        2.294613   -0.400139   -0.111759
      4          1           0        2.708245   -0.545337    0.745799
      5         53           0       -0.634158   -0.029681    0.001797
 ---------------------------------------------------------------------
 Rotational constants (GHZ):     53.7917822      2.9167659      2.7886081
 Standard basis: LANL2DZ (5D, 7F)
 There are    30 symmetry adapted basis functions of A   symmetry.
 Integral buffers will be    262144 words long.
 Raffenetti 2 integral format.
 Two-electron integral symmetry is turned on.
    30 basis functions,    70 primitive gaussians,    30 cartesian basis functions
    13 alpha electrons       13 beta electrons
       nuclear repulsion energy        66.1225859727 Hartrees.
 NAtoms=    5 NActive=    5 NUniq=    5 SFac= 7.50D-01 NAtFMM=   80 NAOKFM=F Big=F
 ------------------------------------------------------------------------------
 Polarizable Continuum Model (PCM)
 =================================
 Model                : PCM.
 Atomic radii         : SMD-Coulomb.
 Polarization charges : Total charges.
 Charge compensation  : None.
 Solution method      : Matrix inversion.
 Cavity type          : VdW (van der Waals Surface) (Alpha=1.000).
 Cavity algorithm     : GePol (No added spheres)
                        Default sphere list used, NSphG=    5.
                        Lebedev-Laikov grids with approx.  5.0 points / Ang**2.
                        Smoothing algorithm: Karplus/York (Gamma=1.0000).
                        Polarization charges: spherical gaussians, with
                                              point-specific exponents (IZeta= 3).
                        Self-potential: point-specific (ISelfS= 7).
                        Self-field    : sphere-specific E.n sum rule (ISelfD= 2).
 1st derivatives      : Analytical E(r).r(x)/FMM algorithm (CHGder, D1EAlg=3).
                        Cavity 1st derivative terms included.
 Solvent              : Water, Eps=  78.355300 Eps(inf)=   1.777849
 ------------------------------------------------------------------------------
 Spheres list:
 ISph  on   Nord    Re0     Alpha      Xe            Ye            Ze
    1   O      1    1.520   1.000      1.322774      0.511077      0.002348
    2   H      2    1.200   1.000      1.963014      1.230925      0.034271
    3   O      3    1.520   1.000      2.294613     -0.400139     -0.111759
    4   H      4    1.200   1.000      2.708245     -0.545337      0.745799
    5   I      5    1.980   1.000     -0.634158     -0.029681      0.001797
 ------------------------------------------------------------------------------
 ------------------------------------------------------------------------------
 Atomic radii for non-electrostatic terms: SMD-CDS.
 ------------------------------------------------------------------------------
 Nuclear repulsion after PCM non-electrostatic terms =       66.1246946819 Hartrees.
 One-electron integrals computed using PRISM.
   1 Symmetry operations used in ECPInt.
 ECPInt:  NShTT=     171 NPrTT=    1054 LenC2=     172 LenP2D=     979.
 LDataN:  DoStor=T MaxTD1= 4 Len=   56
 NBasis=    30 RedAO= T  NBF=    30
 NBsUse=    30 1.00D-06 NBFU=    30
 Defaulting to unpruned grid for atomic number  53.
 Initial guess read from the read-write file.
 B after Tr=     0.000000    0.000000    0.000000
         Rot=    1.000000    0.000000    0.000000    0.000000 Ang=   0.00 deg.
 Initial guess orbital symmetries:
       Occupied  (A) (A) (A) (A) (A) (A) (A) (A) (A) (A) (A) (A)
                 (A)
       Virtual   (A) (A) (A) (A) (A) (A) (A) (A) (A) (A) (A) (A)
                 (A) (A) (A) (A) (A)
 Requested convergence on RMS density matrix=1.00D-08 within 128 cycles.
 Requested convergence on MAX density matrix=1.00D-06.
 Requested convergence on             energy=1.00D-06.
 No special actions if energy rises.
 Keep R1 ints in memory in canonical form, NReq=3385201.
 Defaulting to unpruned grid for atomic number  53.
 Defaulting to unpruned grid for atomic number  53.
 Defaulting to unpruned grid for atomic number  53.
 Defaulting to unpruned grid for atomic number  53.
 Error on total polarization charges =  0.10534
 SCF Done:  E(RM062X) =  -162.838106871     A.U. after   10 cycles
             Convg  =    0.2796D-08             -V/T =  2.0496
 SMD-CDS (non-electrostatic) energy             (kcal/mol) =       1.32
 (included in total energy above)
   1 Symmetry operations used in ECPInt.
 ECPInt:  NShTT=     171 NPrTT=    1054 LenC2=     172 LenP2D=     979.
 LDataN:  DoStor=T MaxTD1= 5 Len=  102
 D1PCM: PCM CHGder 1st derivatives, ID1Alg=3 FixD1E=F DoIter=F DoCFld=F I1PDM=0.
 Calling FoFJK, ICntrl=      2127 FMM=F ISym2X=0 I1Cent= 0 IOpClX= 0 NMat=1 NMatS=1 NMatT=0.
 Defaulting to unpruned grid for atomic number  53.
 Defaulting to unpruned grid for atomic number  53.
 Defaulting to unpruned grid for atomic number  53.
 Defaulting to unpruned grid for atomic number  53.
 ***** Axes restored to original set *****
 -------------------------------------------------------------------
 Center     Atomic                   Forces (Hartrees/Bohr)
 Number     Number              X              Y              Z
 -------------------------------------------------------------------
      1        8          -0.002780524    0.010303480   -0.154502570
      2        1          -0.045852777   -0.002615485   -0.042766062
      3        8           0.154301037   -0.020683757    0.028559771
      4        1           0.006357116    0.019054245    0.000565607
      5       53          -0.112024852   -0.006058483    0.168143254
 -------------------------------------------------------------------
 Cartesian Forces:  Max     0.168143254 RMS     0.079262309

 GradGradGradGradGradGradGradGradGradGradGradGradGradGradGradGradGradGrad
 Berny optimization.
 Internal  Forces:  Max     0.202112506 RMS     0.085441096
 Search for a saddle point.
 Step number  20 out of a maximum of   20
 All quantities printed in internal units (Hartrees-Bohrs-Radians)
 Swaping is turned off.
 Update second derivatives using D2CorX and points   10   11   12   13   14
                                                     15   16   17   18   19
                                                     20
 The second derivative matrix:
                          R1        R2        R3        R4        A1
           R1           0.53189
           R2          -0.00813   0.67691
           R3           0.02227   0.00969   0.27008
           R4           0.00086  -0.00467  -0.00011   0.56618
           A1           0.01740   0.11507  -0.01266   0.00111   0.15040
           A2          -0.01945  -0.02129  -0.01480  -0.00175  -0.06396
           A3           0.00205  -0.09378   0.02736   0.00057  -0.08644
           A4          -0.00038   0.08049  -0.00241   0.00723   0.00934
           D1           0.00462   0.00805  -0.00098   0.00494   0.01089
           D2          -0.00193   0.00601   0.00141  -0.00076  -0.00173
                          A2        A3        A4        D1        D2
           A2           0.03139
           A3           0.03259   0.05386
           A4          -0.00181  -0.00745   0.25103
           D1          -0.00423  -0.00677   0.00567   0.08522
           D2          -0.00229   0.00378   0.00805  -0.07464   0.07282
     Eigenvalues ---   -0.00006   0.00554   0.15061   0.18045   0.24001
     Eigenvalues ---    0.27576   0.53561   0.56643   0.735291000.00000
 Eigenvectors required to have negative eigenvalues:
                          A2        A3        D2        D1        R3
   1                    0.57615  -0.53719   0.45739   0.39745   0.08371
                          R2        A1        R1        A4        R4
   1                   -0.05798  -0.03737   0.01815  -0.01460  -0.00077
 RFO step:  Lambda0=1.642773658D-04 Lambda=-1.38219344D-01.
 Linear search not attempted -- option 19 set.
 Maximum step size (   0.030) exceeded in Quadratic search.
    -- Step size scaled by   0.030
 Iteration  1 RMS(Cart)=  0.01164787 RMS(Int)=  0.00005859
 Iteration  2 RMS(Cart)=  0.00008698 RMS(Int)=  0.00000006
 Iteration  3 RMS(Cart)=  0.00000000 RMS(Int)=  0.00000006
 Variable       Old X    -DE/DX   Delta X   Delta X   Delta X     New X
                                 (Linear)    (Quad)   (Total)
    R1        1.82151   0.04306   0.00000   0.00180   0.00180   1.82331
    R2        2.52673   0.16123   0.00000   0.00385   0.00385   2.53058
    R3        3.83666   0.20211   0.00000   0.01669   0.01669   3.85335
    R4        1.82001   0.01959   0.00000   0.00084   0.00084   1.82086
    A1        1.59980   0.05004   0.00000   0.00199   0.00199   1.60178
    A2        2.56650  -0.03292   0.00000   0.01212   0.01212   2.57862
    A3        2.11652  -0.01723   0.00000  -0.01407  -0.01407   2.10245
    A4        1.91656  -0.00074   0.00000  -0.00155  -0.00155   1.91500
    D1        1.34342   0.00556   0.00000   0.01055   0.01055   1.35397
    D2       -1.81975   0.00182   0.00000   0.01183   0.01183  -1.80792
         Item               Value     Threshold  Converged?
 Maximum Force            0.202113     0.000450     NO 
 RMS     Force            0.085441     0.000300     NO 
 Maximum Displacement     0.018615     0.001800     NO 
 RMS     Displacement     0.011683     0.001200     NO 
 Predicted change in Energy=-4.069521D-03
 Optimization stopped.
    -- Number of steps exceeded,  NStep=  20
    -- Flag reset to prevent archiving.
                           ----------------------------
                           ! Non-Optimized Parameters !
                           ! (Angstroms and Degrees)  !
 --------------------------                            --------------------------
 ! Name  Definition              Value          Derivative Info.                !
 --------------------------------------------------------------------------------
 ! R1    R(1,2)                  0.9649         -DE/DX =    0.0431              !
 ! R2    R(1,3)                  1.3391         -DE/DX =    0.1612              !
 ! R3    R(1,5)                  2.0391         -DE/DX =    0.2021              !
 ! R4    R(3,4)                  0.9636         -DE/DX =    0.0196              !
 ! A1    A(2,1,3)               91.7755         -DE/DX =    0.05                !
 ! A2    A(2,1,5)              147.744          -DE/DX =   -0.0329              !
 ! A3    A(3,1,5)              120.4615         -DE/DX =   -0.0172              !
 ! A4    A(1,3,4)              109.7216         -DE/DX =   -0.0007              !
 ! D1    D(2,1,3,4)             77.5765         -DE/DX =    0.0056              !
 ! D2    D(5,1,3,4)           -103.5862         -DE/DX =    0.0018              !
 --------------------------------------------------------------------------------
 GradGradGradGradGradGradGradGradGradGradGradGradGradGradGradGradGradGrad

                          Input orientation:                          
 ---------------------------------------------------------------------
 Center     Atomic      Atomic             Coordinates (Angstroms)
 Number     Number       Type             X           Y           Z
 ---------------------------------------------------------------------
      1          8           0       -1.249932    0.724547    0.028146
      2          1           0       -1.257696    0.742458   -0.935559
      3          8           0        0.086844    0.717016    0.056014
      4          1           0        0.422085    1.601566   -0.124994
      5         53           0       -2.340011    0.661071    1.739783
 ---------------------------------------------------------------------
                    Distance matrix (angstroms):
                    1          2          3          4          5
     1  O    0.000000
     2  H    0.963902   0.000000
     3  O    1.337088   1.670824   0.000000
     4  H    1.894270   2.053472   0.963109   0.000000
     5  I    2.030271   2.887123   2.954290   3.462816   0.000000
 Stoichiometry    H2IO2(1-)
 Framework group  C1[X(H2IO2)]
 Deg. of freedom     9
 Full point group                 C1      NOp   1
 Largest Abelian subgroup         C1      NOp   1
 Largest concise Abelian subgroup C1      NOp   1
                         Standard orientation:                         
 ---------------------------------------------------------------------
 Center     Atomic      Atomic             Coordinates (Angstroms)
 Number     Number       Type             X           Y           Z
 ---------------------------------------------------------------------
      1          8           0        1.322774    0.511077    0.002348
      2          1           0        1.963014    1.230925    0.034271
      3          8           0        2.294613   -0.400139   -0.111759
      4          1           0        2.708245   -0.545337    0.745799
      5         53           0       -0.634158   -0.029681    0.001797
 ---------------------------------------------------------------------
 Rotational constants (GHZ):     53.7917822      2.9167659      2.7886081

 **********************************************************************

            Population analysis using the SCF density.

 **********************************************************************

 Orbital symmetries:
       Occupied  (A) (A) (A) (A) (A) (A) (A) (A) (A) (A) (A) (A)
                 (A)
       Virtual   (A) (A) (A) (A) (A) (A) (A) (A) (A) (A) (A) (A)
                 (A) (A) (A) (A) (A)
 The electronic state is 1-A.
 Alpha  occ. eigenvalues --  -19.67750 -19.67459  -1.33241  -1.00921  -0.71651
 Alpha  occ. eigenvalues --   -0.65528  -0.56803  -0.53183  -0.39854  -0.37709
 Alpha  occ. eigenvalues --   -0.25980  -0.24792  -0.16584
 Alpha virt. eigenvalues --    0.13453   0.16679   0.22095   0.43222   0.45594
 Alpha virt. eigenvalues --    0.46018   0.65355   0.70338   0.72047   0.73826
 Alpha virt. eigenvalues --    0.80354   0.95324   1.04476   1.16946   1.52889
 Alpha virt. eigenvalues --    1.79802   9.41588
          Condensed to atoms (all electrons):
              1          2          3          4          5
     1  O    9.275833   0.250468  -0.083424  -0.046655  -1.040619
     2  H    0.250468   0.320925  -0.064226  -0.000700   0.044991
     3  O   -0.083424  -0.064226   8.312994   0.280906   0.019109
     4  H   -0.046655  -0.000700   0.280906   0.333343  -0.010647
     5  I   -1.040619   0.044991   0.019109  -0.010647   9.058500
 Mulliken atomic charges:
              1
     1  O   -0.355603
     2  H    0.448542
     3  O   -0.465359
     4  H    0.443754
     5  I   -1.071334
 Sum of Mulliken atomic charges =  -1.00000
 Mulliken charges with hydrogens summed into heavy atoms:
              1
     1  O    0.092939
     3  O   -0.021606
     5  I   -1.071334
 Sum of Mulliken charges with hydrogens summed into heavy atoms =  -1.00000
 Electronic spatial extent (au):  <R**2>=            351.2203
 Charge=             -1.0000 electrons
 Dipole moment (field-independent basis, Debye):
    X=              7.6092    Y=              2.4130    Z=              2.4138  Tot=              8.3396
 Quadrupole moment (field-independent basis, Debye-Ang):
   XX=            -34.7942   YY=            -35.5081   ZZ=            -37.2037
   XY=              3.1413   XZ=              6.4984   YZ=             -1.1928
 Traceless Quadrupole moment (field-independent basis, Debye-Ang):
   XX=              1.0411   YY=              0.3272   ZZ=             -1.3683
   XY=              3.1413   XZ=              6.4984   YZ=             -1.1928
 Octapole moment (field-independent basis, Debye-Ang**2):
  XXX=             13.4749  YYY=              4.8063  ZZZ=              2.1670  XYY=              0.7246
  XXY=              7.6468  XXZ=             17.7294  XZZ=             -1.8658  YZZ=             -0.5010
  YYZ=              1.2777  XYZ=             -3.2804
 Hexadecapole moment (field-independent basis, Debye-Ang**3):
 XXXX=           -341.4051 YYYY=            -74.6368 ZZZZ=            -62.0674 XXXY=              8.7984
 XXXZ=             49.2389 YYYX=              8.7705 YYYZ=             -0.7817 ZZZX=              5.7579
 ZZZY=             -1.1160 XXYY=            -66.5547 XXZZ=            -68.8054 YYZZ=            -23.6000
 XXYZ=             -8.8301 YYXZ=              3.1299 ZZXY=             -1.3140
 N-N= 6.612469468188D+01 E-N=-5.180449662676D+02  KE= 1.551488857091D+02


      SCIENCE SANS CONSCIENCE N'EST QUE RUINE DE L'AME.

                                                  -- RABELAIS
 Error termination request processed by link 9999.
 Error termination via Lnk1e in C:\G09W\l9999.exe at Tue Feb 02 02:30:58 2021.
 Job cpu time:  0 days  0 hours  1 minutes 41.0 seconds.
 File lengths (MBytes):  RWF=     17 Int=      0 D2E=      0 Chk=      2 Scr=      1
