 Entering Link 1 = C:\G09W\l1.exe PID=     10448.
  
 Copyright (c) 1988,1990,1992,1993,1995,1998,2003,2009, Gaussian, Inc.
                  All Rights Reserved.
  
 This is part of the Gaussian(R) 09 program.  It is based on
 the Gaussian(R) 03 system (copyright 2003, Gaussian, Inc.),
 the Gaussian(R) 98 system (copyright 1998, Gaussian, Inc.),
 the Gaussian(R) 94 system (copyright 1995, Gaussian, Inc.),
 the Gaussian 92(TM) system (copyright 1992, Gaussian, Inc.),
 the Gaussian 90(TM) system (copyright 1990, Gaussian, Inc.),
 the Gaussian 88(TM) system (copyright 1988, Gaussian, Inc.),
 the Gaussian 86(TM) system (copyright 1986, Carnegie Mellon
 University), and the Gaussian 82(TM) system (copyright 1983,
 Carnegie Mellon University). Gaussian is a federally registered
 trademark of Gaussian, Inc.
  
 This software contains proprietary and confidential information,
 including trade secrets, belonging to Gaussian, Inc.
  
 This software is provided under written license and may be
 used, copied, transmitted, or stored only in accord with that
 written license.
  
 The following legend is applicable only to US Government
 contracts under FAR:
  
                    RESTRICTED RIGHTS LEGEND
  
 Use, reproduction and disclosure by the US Government is
 subject to restrictions as set forth in subparagraphs (a)
 and (c) of the Commercial Computer Software - Restricted
 Rights clause in FAR 52.227-19.
  
 Gaussian, Inc.
 340 Quinnipiac St., Bldg. 40, Wallingford CT 06492
  
  
 ---------------------------------------------------------------
 Warning -- This program may not be used in any manner that
 competes with the business of Gaussian, Inc. or will provide
 assistance to any competitor of Gaussian, Inc.  The licensee
 of this program is prohibited from giving any competitor of
 Gaussian, Inc. access to this program.  By using this program,
 the user acknowledges that Gaussian, Inc. is engaged in the
 business of creating and licensing software in the field of
 computational chemistry and represents and warrants to the
 licensee that it is not a competitor of Gaussian, Inc. and that
 it will not use this program in any manner prohibited above.
 ---------------------------------------------------------------
  

 Cite this work as:
 Gaussian 09, Revision A.02,
 M. J. Frisch, G. W. Trucks, H. B. Schlegel, G. E. Scuseria, 
 M. A. Robb, J. R. Cheeseman, G. Scalmani, V. Barone, B. Mennucci, 
 G. A. Petersson, H. Nakatsuji, M. Caricato, X. Li, H. P. Hratchian, 
 A. F. Izmaylov, J. Bloino, G. Zheng, J. L. Sonnenberg, M. Hada, 
 M. Ehara, K. Toyota, R. Fukuda, J. Hasegawa, M. Ishida, T. Nakajima, 
 Y. Honda, O. Kitao, H. Nakai, T. Vreven, J. A. Montgomery, Jr., 
 J. E. Peralta, F. Ogliaro, M. Bearpark, J. J. Heyd, E. Brothers, 
 K. N. Kudin, V. N. Staroverov, R. Kobayashi, J. Normand, 
 K. Raghavachari, A. Rendell, J. C. Burant, S. S. Iyengar, J. Tomasi, 
 M. Cossi, N. Rega, J. M. Millam, M. Klene, J. E. Knox, J. B. Cross, 
 V. Bakken, C. Adamo, J. Jaramillo, R. Gomperts, R. E. Stratmann, 
 O. Yazyev, A. J. Austin, R. Cammi, C. Pomelli, J. W. Ochterski, 
 R. L. Martin, K. Morokuma, V. G. Zakrzewski, G. A. Voth, 
 P. Salvador, J. J. Dannenberg, S. Dapprich, A. D. Daniels, 
 O. Farkas, J. B. Foresman, J. V. Ortiz, J. Cioslowski, 
 and D. J. Fox, Gaussian, Inc., Wallingford CT, 2009.
 
 ******************************************
 Gaussian 09:  IA32W-G09RevA.02 11-Jun-2009
                02-Feb-2021 
 ******************************************
 %chk=D:\Documents\rayGit\FQ\quimicaComputacional\proyecto\decompositionHydrogenP
 eroxide\decompositionCatalyzedByIodine\step1\ts\ts.chk
 %mem=1500MB
 %nprocshared=4
 Will use up to    4 processors via shared memory.
 ----------------------------------------------------------------------
 # opt=(readfc,ts,noeigen) geom=check guess=check freq=noraman lanl2dz 
 scrf=smd iop(1/8=3) m062x
 ----------------------------------------------------------------------
 1/5=1,8=3,10=3,11=1,14=-1,18=20,26=3,29=2,38=1/1,3;
 2/9=110,12=2,40=1/2;
 3/5=6,6=3,11=2,14=-4,16=1,25=1,30=1,70=32201,71=1,72=1,74=-55,116=-2/1,2,3;
 4/5=1/1;
 5/5=2,38=6/2;
 6/7=2,8=2,9=2,10=2,28=1/1;
 7//1,2,3,16;
 1/5=1,8=3,11=1,14=-1,18=20/3(2);
 2/9=110/2;
 99//99;
 2/9=110/2;
 3/5=6,6=3,11=2,14=-2,16=1,25=1,30=1,70=32205,71=1,74=-55/1,2,3;
 4/5=5,16=3/1;
 5/5=2,38=5/2;
 7//1,2,3,16;
 1/5=1,8=3,11=1,14=-1,18=20/3(-5);
 2/9=110/2;
 6/7=2,8=2,9=2,10=2,19=2,28=1/1;
 99/9=1/99;
 -----------------------------
 Hydrogen peroxide with iodine
 -----------------------------
 Redundant internal coordinates taken from checkpoint file:
 D:\Documents\rayGit\FQ\quimicaComputacional\proyecto\decompositionHydrogenPeroxide\decompositionCatalyzedByIodine\step1\ts\ts.chk
 Charge = -1 Multiplicity = 1
 O,0,-1.2499324529,0.7245466002,0.028145505
 H,0,-1.257696009,0.7424580622,-0.9355585682
 O,0,0.0868439228,0.7170156237,0.0560141715
 H,0,0.4220852572,1.6015659017,-0.124993513
 I,0,-2.3400105681,0.6610705421,1.7397829548
 Recover connectivity data from disk.

 GradGradGradGradGradGradGradGradGradGradGradGradGradGradGradGradGradGrad
 Berny optimization.
 Initialization pass.
 Force constant matrix read from checkpoint file:
 D:\Documents\rayGit\FQ\quimicaComputacional\proyecto\decompositionHydrogenPeroxi
 de\decompositionCatalyzedByIodine\step1\ts\ts.chk
                           ----------------------------
                           !    Initial Parameters    !
                           ! (Angstroms and Degrees)  !
 --------------------------                            --------------------------
 ! Name  Definition              Value          Derivative Info.                !
 --------------------------------------------------------------------------------
 ! R1    R(1,2)                  0.9639         D2E/DX2 =    0.5319             !
 ! R2    R(1,3)                  1.3371         D2E/DX2 =    0.6769             !
 ! R3    R(1,5)                  2.0303         D2E/DX2 =    0.2701             !
 ! R4    R(3,4)                  0.9631         D2E/DX2 =    0.5662             !
 ! A1    A(2,1,3)               91.6616         D2E/DX2 =    0.1504             !
 ! A2    A(2,1,5)              147.0496         D2E/DX2 =    0.0314             !
 ! A3    A(3,1,5)              121.2678         D2E/DX2 =    0.0539             !
 ! A4    A(1,3,4)              109.8105         D2E/DX2 =    0.251              !
 ! D1    D(2,1,3,4)             76.9723         D2E/DX2 =    0.0852             !
 ! D2    D(5,1,3,4)           -104.2642         D2E/DX2 =    0.0728             !
 --------------------------------------------------------------------------------
 Trust Radius=3.00D-02 FncErr=1.00D-07 GrdErr=1.00D-06
 Number of steps in this run=  20 maximum allowed number of steps= 100.
 Search for a saddle point of order  1.
 GradGradGradGradGradGradGradGradGradGradGradGradGradGradGradGradGradGrad

                          Input orientation:                          
 ---------------------------------------------------------------------
 Center     Atomic      Atomic             Coordinates (Angstroms)
 Number     Number       Type             X           Y           Z
 ---------------------------------------------------------------------
      1          8           0       -1.249932    0.724547    0.028146
      2          1           0       -1.257696    0.742458   -0.935559
      3          8           0        0.086844    0.717016    0.056014
      4          1           0        0.422085    1.601566   -0.124994
      5         53           0       -2.340011    0.661071    1.739783
 ---------------------------------------------------------------------
                    Distance matrix (angstroms):
                    1          2          3          4          5
     1  O    0.000000
     2  H    0.963902   0.000000
     3  O    1.337088   1.670824   0.000000
     4  H    1.894270   2.053472   0.963109   0.000000
     5  I    2.030271   2.887123   2.954290   3.462816   0.000000
 Stoichiometry    H2IO2(1-)
 Framework group  C1[X(H2IO2)]
 Deg. of freedom     9
 Full point group                 C1      NOp   1
 Largest Abelian subgroup         C1      NOp   1
 Largest concise Abelian subgroup C1      NOp   1
                         Standard orientation:                         
 ---------------------------------------------------------------------
 Center     Atomic      Atomic             Coordinates (Angstroms)
 Number     Number       Type             X           Y           Z
 ---------------------------------------------------------------------
      1          8           0        1.322774    0.511077    0.002348
      2          1           0        1.963014    1.230925    0.034271
      3          8           0        2.294613   -0.400139   -0.111759
      4          1           0        2.708245   -0.545337    0.745799
      5         53           0       -0.634158   -0.029681    0.001797
 ---------------------------------------------------------------------
 Rotational constants (GHZ):     53.7917822      2.9167659      2.7886081
 Standard basis: LANL2DZ (5D, 7F)
 There are    30 symmetry adapted basis functions of A   symmetry.
 Integral buffers will be    262144 words long.
 Raffenetti 2 integral format.
 Two-electron integral symmetry is turned on.
    30 basis functions,    70 primitive gaussians,    30 cartesian basis functions
    13 alpha electrons       13 beta electrons
       nuclear repulsion energy        66.1225859727 Hartrees.
 NAtoms=    5 NActive=    5 NUniq=    5 SFac= 7.50D-01 NAtFMM=   80 NAOKFM=F Big=F
 ------------------------------------------------------------------------------
 Polarizable Continuum Model (PCM)
 =================================
 Model                : PCM.
 Atomic radii         : SMD-Coulomb.
 Polarization charges : Total charges.
 Charge compensation  : None.
 Solution method      : Matrix inversion.
 Cavity type          : VdW (van der Waals Surface) (Alpha=1.000).
 Cavity algorithm     : GePol (No added spheres)
                        Default sphere list used, NSphG=    5.
                        Lebedev-Laikov grids with approx.  5.0 points / Ang**2.
                        Smoothing algorithm: Karplus/York (Gamma=1.0000).
                        Polarization charges: spherical gaussians, with
                                              point-specific exponents (IZeta= 3).
                        Self-potential: point-specific (ISelfS= 7).
                        Self-field    : sphere-specific E.n sum rule (ISelfD= 2).
 1st derivatives      : Analytical E(r).r(x)/FMM algorithm (CHGder, D1EAlg=3).
                        Cavity 1st derivative terms included.
 Solvent              : Water, Eps=  78.355300 Eps(inf)=   1.777849
 ------------------------------------------------------------------------------
 Spheres list:
 ISph  on   Nord    Re0     Alpha      Xe            Ye            Ze
    1   O      1    1.520   1.000      1.322774      0.511077      0.002348
    2   H      2    1.200   1.000      1.963014      1.230925      0.034271
    3   O      3    1.520   1.000      2.294613     -0.400139     -0.111759
    4   H      4    1.200   1.000      2.708245     -0.545337      0.745799
    5   I      5    1.980   1.000     -0.634158     -0.029681      0.001797
 ------------------------------------------------------------------------------
 ------------------------------------------------------------------------------
 Atomic radii for non-electrostatic terms: SMD-CDS.
 ------------------------------------------------------------------------------
 Nuclear repulsion after PCM non-electrostatic terms =       66.1246946819 Hartrees.
 One-electron integrals computed using PRISM.
   1 Symmetry operations used in ECPInt.
 ECPInt:  NShTT=     171 NPrTT=    1054 LenC2=     172 LenP2D=     979.
 LDataN:  DoStor=T MaxTD1= 4 Len=   56
 NBasis=    30 RedAO= T  NBF=    30
 NBsUse=    30 1.00D-06 NBFU=    30
 Defaulting to unpruned grid for atomic number  53.
 Initial guess read from the checkpoint file:  D:\Documents\rayGit\FQ\quimicaComp
 utacional\proyecto\decompositionHydrogenPeroxide\decompositionCatalyzedByIodine\
 step1\ts\ts.chk
 B after Tr=     0.000000    0.000000    0.000000
         Rot=    1.000000    0.000000    0.000000    0.000000 Ang=   0.00 deg.
 Initial guess orbital symmetries:
       Occupied  (A) (A) (A) (A) (A) (A) (A) (A) (A) (A) (A) (A)
                 (A)
       Virtual   (A) (A) (A) (A) (A) (A) (A) (A) (A) (A) (A) (A)
                 (A) (A) (A) (A) (A)
 Requested convergence on RMS density matrix=1.00D-08 within 128 cycles.
 Requested convergence on MAX density matrix=1.00D-06.
 Requested convergence on             energy=1.00D-06.
 No special actions if energy rises.
 Keep R1 ints in memory in canonical form, NReq=3385201.
 Defaulting to unpruned grid for atomic number  53.
 Defaulting to unpruned grid for atomic number  53.
 Defaulting to unpruned grid for atomic number  53.
 Defaulting to unpruned grid for atomic number  53.
 Error on total polarization charges =  0.10534
 SCF Done:  E(RM062X) =  -162.838106871     A.U. after    1 cycles
             Convg  =    0.2492D-09             -V/T =  2.0496
 SMD-CDS (non-electrostatic) energy             (kcal/mol) =       1.32
 (included in total energy above)

 **********************************************************************

            Population analysis using the SCF density.

 **********************************************************************

 Orbital symmetries:
       Occupied  (A) (A) (A) (A) (A) (A) (A) (A) (A) (A) (A) (A)
                 (A)
       Virtual   (A) (A) (A) (A) (A) (A) (A) (A) (A) (A) (A) (A)
                 (A) (A) (A) (A) (A)
 The electronic state is 1-A.
 Alpha  occ. eigenvalues --  -19.67750 -19.67459  -1.33241  -1.00921  -0.71651
 Alpha  occ. eigenvalues --   -0.65528  -0.56803  -0.53183  -0.39854  -0.37709
 Alpha  occ. eigenvalues --   -0.25980  -0.24792  -0.16584
 Alpha virt. eigenvalues --    0.13453   0.16679   0.22095   0.43222   0.45594
 Alpha virt. eigenvalues --    0.46018   0.65355   0.70338   0.72047   0.73826
 Alpha virt. eigenvalues --    0.80354   0.95324   1.04476   1.16946   1.52889
 Alpha virt. eigenvalues --    1.79802   9.41588
          Condensed to atoms (all electrons):
              1          2          3          4          5
     1  O    9.275833   0.250468  -0.083424  -0.046655  -1.040619
     2  H    0.250468   0.320925  -0.064226  -0.000700   0.044991
     3  O   -0.083424  -0.064226   8.312994   0.280906   0.019109
     4  H   -0.046655  -0.000700   0.280906   0.333343  -0.010647
     5  I   -1.040619   0.044991   0.019109  -0.010647   9.058500
 Mulliken atomic charges:
              1
     1  O   -0.355603
     2  H    0.448542
     3  O   -0.465359
     4  H    0.443754
     5  I   -1.071334
 Sum of Mulliken atomic charges =  -1.00000
 Mulliken charges with hydrogens summed into heavy atoms:
              1
     1  O    0.092939
     3  O   -0.021606
     5  I   -1.071334
 Sum of Mulliken charges with hydrogens summed into heavy atoms =  -1.00000
 Electronic spatial extent (au):  <R**2>=            351.2203
 Charge=             -1.0000 electrons
 Dipole moment (field-independent basis, Debye):
    X=              7.6092    Y=              2.4130    Z=              2.4138  Tot=              8.3396
 Quadrupole moment (field-independent basis, Debye-Ang):
   XX=            -34.7942   YY=            -35.5081   ZZ=            -37.2037
   XY=              3.1413   XZ=              6.4984   YZ=             -1.1928
 Traceless Quadrupole moment (field-independent basis, Debye-Ang):
   XX=              1.0411   YY=              0.3272   ZZ=             -1.3683
   XY=              3.1413   XZ=              6.4984   YZ=             -1.1928
 Octapole moment (field-independent basis, Debye-Ang**2):
  XXX=             13.4749  YYY=              4.8063  ZZZ=              2.1670  XYY=              0.7246
  XXY=              7.6468  XXZ=             17.7294  XZZ=             -1.8658  YZZ=             -0.5010
  YYZ=              1.2777  XYZ=             -3.2804
 Hexadecapole moment (field-independent basis, Debye-Ang**3):
 XXXX=           -341.4051 YYYY=            -74.6368 ZZZZ=            -62.0674 XXXY=              8.7984
 XXXZ=             49.2389 YYYX=              8.7705 YYYZ=             -0.7817 ZZZX=              5.7579
 ZZZY=             -1.1160 XXYY=            -66.5547 XXZZ=            -68.8054 YYZZ=            -23.6000
 XXYZ=             -8.8301 YYXZ=              3.1299 ZZXY=             -1.3140
 N-N= 6.612469468188D+01 E-N=-5.180449662587D+02  KE= 1.551488857051D+02
   1 Symmetry operations used in ECPInt.
 ECPInt:  NShTT=     171 NPrTT=    1054 LenC2=     172 LenP2D=     979.
 LDataN:  DoStor=T MaxTD1= 5 Len=  102
 D1PCM: PCM CHGder 1st derivatives, ID1Alg=3 FixD1E=F DoIter=F DoCFld=F I1PDM=0.
 Calling FoFJK, ICntrl=      2127 FMM=F ISym2X=0 I1Cent= 0 IOpClX= 0 NMat=1 NMatS=1 NMatT=0.
 Defaulting to unpruned grid for atomic number  53.
 Defaulting to unpruned grid for atomic number  53.
 Defaulting to unpruned grid for atomic number  53.
 Defaulting to unpruned grid for atomic number  53.
 ***** Axes restored to original set *****
 -------------------------------------------------------------------
 Center     Atomic                   Forces (Hartrees/Bohr)
 Number     Number              X              Y              Z
 -------------------------------------------------------------------
      1        8          -0.002780524    0.010303480   -0.154502571
      2        1          -0.045852777   -0.002615485   -0.042766062
      3        8           0.154301037   -0.020683758    0.028559771
      4        1           0.006357116    0.019054245    0.000565607
      5       53          -0.112024853   -0.006058483    0.168143255
 -------------------------------------------------------------------
 Cartesian Forces:  Max     0.168143255 RMS     0.079262309

 GradGradGradGradGradGradGradGradGradGradGradGradGradGradGradGradGradGrad
 Berny optimization.
 Internal  Forces:  Max     0.202112506 RMS     0.085441096
 Search for a saddle point.
 Step number   1 out of a maximum of   20
 All quantities printed in internal units (Hartrees-Bohrs-Radians)
 Swaping is turned off.
 Second derivative matrix not updated -- first step.
 The second derivative matrix:
                          R1        R2        R3        R4        A1
           R1           0.53189
           R2          -0.00813   0.67691
           R3           0.02227   0.00969   0.27008
           R4           0.00086  -0.00467  -0.00011   0.56618
           A1           0.01740   0.11507  -0.01266   0.00111   0.15040
           A2          -0.01945  -0.02129  -0.01480  -0.00175  -0.06396
           A3           0.00205  -0.09378   0.02736   0.00057  -0.08644
           A4          -0.00038   0.08049  -0.00241   0.00723   0.00934
           D1           0.00462   0.00805  -0.00098   0.00494   0.01089
           D2          -0.00193   0.00601   0.00141  -0.00076  -0.00173
                          A2        A3        A4        D1        D2
           A2           0.03139
           A3           0.03259   0.05386
           A4          -0.00181  -0.00745   0.25103
           D1          -0.00423  -0.00677   0.00567   0.08522
           D2          -0.00229   0.00378   0.00805  -0.07464   0.07282
     Eigenvalues ---   -0.00006   0.00554   0.15061   0.18045   0.24001
     Eigenvalues ---    0.27576   0.53561   0.56643   0.735291000.00000
 Eigenvectors required to have negative eigenvalues:
                          A2        A3        D2        D1        R3
   1                    0.57615  -0.53719   0.45739   0.39745   0.08371
                          R2        A1        R1        A4        R4
   1                   -0.05798  -0.03737   0.01815  -0.01460  -0.00077
 RFO step:  Lambda0=1.642773023D-04 Lambda=-1.38219344D-01.
 Linear search not attempted -- option 19 set.
 Maximum step size (   0.030) exceeded in Quadratic search.
    -- Step size scaled by   0.030
 Iteration  1 RMS(Cart)=  0.01164786 RMS(Int)=  0.00005859
 Iteration  2 RMS(Cart)=  0.00008698 RMS(Int)=  0.00000006
 Iteration  3 RMS(Cart)=  0.00000000 RMS(Int)=  0.00000006
 Variable       Old X    -DE/DX   Delta X   Delta X   Delta X     New X
                                 (Linear)    (Quad)   (Total)
    R1        1.82151   0.04306   0.00000   0.00180   0.00180   1.82331
    R2        2.52673   0.16123   0.00000   0.00385   0.00385   2.53058
    R3        3.83666   0.20211   0.00000   0.01669   0.01669   3.85335
    R4        1.82001   0.01959   0.00000   0.00084   0.00084   1.82086
    A1        1.59980   0.05004   0.00000   0.00199   0.00199   1.60178
    A2        2.56650  -0.03292   0.00000   0.01212   0.01212   2.57862
    A3        2.11652  -0.01723   0.00000  -0.01407  -0.01407   2.10245
    A4        1.91656  -0.00074   0.00000  -0.00155  -0.00155   1.91500
    D1        1.34342   0.00556   0.00000   0.01055   0.01055   1.35397
    D2       -1.81975   0.00182   0.00000   0.01183   0.01183  -1.80792
         Item               Value     Threshold  Converged?
 Maximum Force            0.202113     0.000450     NO 
 RMS     Force            0.085441     0.000300     NO 
 Maximum Displacement     0.018615     0.001800     NO 
 RMS     Displacement     0.011683     0.001200     NO 
 Predicted change in Energy=-4.069522D-03
 GradGradGradGradGradGradGradGradGradGradGradGradGradGradGradGradGradGrad

                          Input orientation:                          
 ---------------------------------------------------------------------
 Center     Atomic      Atomic             Coordinates (Angstroms)
 Number     Number       Type             X           Y           Z
 ---------------------------------------------------------------------
      1          8           0       -1.253134    0.723436    0.019786
      2          1           0       -1.256688    0.739593   -0.944928
      3          8           0        0.085474    0.716111    0.056228
      4          1           0        0.420270    1.603232   -0.115143
      5         53           0       -2.334632    0.664285    1.747448
 ---------------------------------------------------------------------
                    Distance matrix (angstroms):
                    1          2          3          4          5
     1  O    0.000000
     2  H    0.964856   0.000000
     3  O    1.339124   1.674594   0.000000
     4  H    1.895397   2.060729   0.963556   0.000000
     5  I    2.039106   2.901124   2.952935   3.455482   0.000000
 Stoichiometry    H2IO2(1-)
 Framework group  C1[X(H2IO2)]
 Deg. of freedom     9
 Full point group                 C1      NOp   1
 Largest Abelian subgroup         C1      NOp   1
 Largest concise Abelian subgroup C1      NOp   1
                         Standard orientation:                         
 ---------------------------------------------------------------------
 Center     Atomic      Atomic             Coordinates (Angstroms)
 Number     Number       Type             X           Y           Z
 ---------------------------------------------------------------------
      1          8           0        1.329288    0.518345    0.003239
      2          1           0        1.977064    1.232660    0.036236
      3          8           0        2.291930   -0.405320   -0.112581
      4          1           0        2.696929   -0.562479    0.747487
      5         53           0       -0.634787   -0.029705    0.001717
 ---------------------------------------------------------------------
 Rotational constants (GHZ):     52.5821947      2.9138008      2.7827370
 Standard basis: LANL2DZ (5D, 7F)
 There are    30 symmetry adapted basis functions of A   symmetry.
 Integral buffers will be    262144 words long.
 Raffenetti 2 integral format.
 Two-electron integral symmetry is turned on.
    30 basis functions,    70 primitive gaussians,    30 cartesian basis functions
    13 alpha electrons       13 beta electrons
       nuclear repulsion energy        66.0072069592 Hartrees.
 NAtoms=    5 NActive=    5 NUniq=    5 SFac= 7.50D-01 NAtFMM=   80 NAOKFM=F Big=F
 ------------------------------------------------------------------------------
 Polarizable Continuum Model (PCM)
 =================================
 Model                : PCM.
 Atomic radii         : SMD-Coulomb.
 Polarization charges : Total charges.
 Charge compensation  : None.
 Solution method      : Matrix inversion.
 Cavity type          : VdW (van der Waals Surface) (Alpha=1.000).
 Cavity algorithm     : GePol (No added spheres)
                        Default sphere list used, NSphG=    5.
                        Lebedev-Laikov grids with approx.  5.0 points / Ang**2.
                        Smoothing algorithm: Karplus/York (Gamma=1.0000).
                        Polarization charges: spherical gaussians, with
                                              point-specific exponents (IZeta= 3).
                        Self-potential: point-specific (ISelfS= 7).
                        Self-field    : sphere-specific E.n sum rule (ISelfD= 2).
 1st derivatives      : Analytical E(r).r(x)/FMM algorithm (CHGder, D1EAlg=3).
                        Cavity 1st derivative terms included.
 Solvent              : Water, Eps=  78.355300 Eps(inf)=   1.777849
 ------------------------------------------------------------------------------
 Spheres list:
 ISph  on   Nord    Re0     Alpha      Xe            Ye            Ze
    1   O      1    1.520   1.000      1.329288      0.518345      0.003239
    2   H      2    1.200   1.000      1.977064      1.232660      0.036236
    3   O      3    1.520   1.000      2.291930     -0.405320     -0.112581
    4   H      4    1.200   1.000      2.696929     -0.562479      0.747487
    5   I      5    1.980   1.000     -0.634787     -0.029705      0.001717
 ------------------------------------------------------------------------------
 ------------------------------------------------------------------------------
 Atomic radii for non-electrostatic terms: SMD-CDS.
 ------------------------------------------------------------------------------
 Nuclear repulsion after PCM non-electrostatic terms =       66.0093186039 Hartrees.
 One-electron integrals computed using PRISM.
   1 Symmetry operations used in ECPInt.
 ECPInt:  NShTT=     171 NPrTT=    1054 LenC2=     172 LenP2D=     979.
 LDataN:  DoStor=T MaxTD1= 4 Len=   56
 NBasis=    30 RedAO= T  NBF=    30
 NBsUse=    30 1.00D-06 NBFU=    30
 Defaulting to unpruned grid for atomic number  53.
 Initial guess read from the read-write file.
 B after Tr=     0.000000    0.000000    0.000000
         Rot=    1.000000    0.000000    0.000000    0.000000 Ang=   0.00 deg.
 Initial guess orbital symmetries:
       Occupied  (A) (A) (A) (A) (A) (A) (A) (A) (A) (A) (A) (A)
                 (A)
       Virtual   (A) (A) (A) (A) (A) (A) (A) (A) (A) (A) (A) (A)
                 (A) (A) (A) (A) (A)
 Requested convergence on RMS density matrix=1.00D-08 within 128 cycles.
 Requested convergence on MAX density matrix=1.00D-06.
 Requested convergence on             energy=1.00D-06.
 No special actions if energy rises.
 Keep R1 ints in memory in canonical form, NReq=3386418.
 Defaulting to unpruned grid for atomic number  53.
 Defaulting to unpruned grid for atomic number  53.
 Defaulting to unpruned grid for atomic number  53.
 Defaulting to unpruned grid for atomic number  53.
 Error on total polarization charges =  0.10504
 SCF Done:  E(RM062X) =  -162.842183211     A.U. after   10 cycles
             Convg  =    0.2345D-08             -V/T =  2.0497
 SMD-CDS (non-electrostatic) energy             (kcal/mol) =       1.33
 (included in total energy above)
   1 Symmetry operations used in ECPInt.
 ECPInt:  NShTT=     171 NPrTT=    1054 LenC2=     172 LenP2D=     979.
 LDataN:  DoStor=T MaxTD1= 5 Len=  102
 D1PCM: PCM CHGder 1st derivatives, ID1Alg=3 FixD1E=F DoIter=F DoCFld=F I1PDM=0.
 Calling FoFJK, ICntrl=      2127 FMM=F ISym2X=0 I1Cent= 0 IOpClX= 0 NMat=1 NMatS=1 NMatT=0.
 Defaulting to unpruned grid for atomic number  53.
 Defaulting to unpruned grid for atomic number  53.
 Defaulting to unpruned grid for atomic number  53.
 Defaulting to unpruned grid for atomic number  53.
 ***** Axes restored to original set *****
 -------------------------------------------------------------------
 Center     Atomic                   Forces (Hartrees/Bohr)
 Number     Number              X              Y              Z
 -------------------------------------------------------------------
      1        8          -0.003198374    0.009736473   -0.153322973
      2        1          -0.044689760   -0.002581464   -0.041879859
      3        8           0.150420367   -0.020248123    0.028656684
      4        1           0.006095587    0.018595921    0.000810688
      5       53          -0.108627819   -0.005502807    0.165735461
 -------------------------------------------------------------------
 Cartesian Forces:  Max     0.165735461 RMS     0.077850434

 GradGradGradGradGradGradGradGradGradGradGradGradGradGradGradGradGradGrad
 Berny optimization.
 Internal  Forces:  Max     0.198222337 RMS     0.083605367
 Search for a saddle point.
 Step number   2 out of a maximum of   20
 All quantities printed in internal units (Hartrees-Bohrs-Radians)
 Swaping is turned off.
 Update second derivatives using D2CorX and points    1    2
 The second derivative matrix:
                          R1        R2        R3        R4        A1
           R1           0.53188
           R2          -0.00828   0.67586
           R3           0.02202   0.00742   0.26575
           R4           0.00090  -0.00453   0.00029   0.56618
           A1           0.01736   0.11476  -0.01327   0.00116   0.15031
           A2          -0.01940  -0.02175  -0.01507  -0.00157  -0.06402
           A3           0.00204  -0.09300   0.02825   0.00034  -0.08629
           A4          -0.00034   0.08083  -0.00169   0.00718   0.00944
           D1           0.00460   0.00734  -0.00197   0.00513   0.01074
           D2          -0.00191   0.00543   0.00082  -0.00057  -0.00183
                          A2        A3        A4        D1        D2
           A2           0.03209
           A3           0.03195   0.05435
           A4          -0.00168  -0.00767   0.25091
           D1          -0.00385  -0.00699   0.00589   0.08526
           D2          -0.00170   0.00330   0.00822  -0.07440   0.07328
     Eigenvalues ---    0.00162   0.00554   0.15062   0.18027   0.23962
     Eigenvalues ---    0.27203   0.53551   0.56644   0.734121000.00000
 Eigenvectors required to have negative eigenvalues:
                          A2        A3        D2        D1        R3
   1                    0.56394  -0.52531   0.47152   0.41343   0.08807
                          R2        A1        A4        R1        R4
   1                   -0.05488  -0.03712  -0.01780   0.01747  -0.00161
 RFO step:  Lambda0=2.447872852D-03 Lambda=-1.35049396D-01.
 Linear search not attempted -- option 19 set.
 Maximum step size (   0.030) exceeded in Quadratic search.
    -- Step size scaled by   0.017
 Iteration  1 RMS(Cart)=  0.01390476 RMS(Int)=  0.00007269
 Iteration  2 RMS(Cart)=  0.00007655 RMS(Int)=  0.00000014
 Iteration  3 RMS(Cart)=  0.00000000 RMS(Int)=  0.00000014
 Variable       Old X    -DE/DX   Delta X   Delta X   Delta X     New X
                                 (Linear)    (Quad)   (Total)
    R1        1.82331   0.04197   0.00000   0.00023   0.00023   1.82354
    R2        2.53058   0.15723   0.00000   0.00451   0.00451   2.53509
    R3        3.85335   0.19822   0.00000   0.00565   0.00565   3.85900
    R4        1.82086   0.01911   0.00000   0.00051   0.00051   1.82137
    A1        1.60178   0.04898   0.00000   0.00271   0.00271   1.60449
    A2        2.57862  -0.03231   0.00000  -0.01756  -0.01756   2.56106
    A3        2.10245  -0.01678   0.00000   0.01480   0.01480   2.11725
    A4        1.91500  -0.00090   0.00000  -0.00017  -0.00017   1.91483
    D1        1.35397   0.00547   0.00000  -0.01157  -0.01157   1.34240
    D2       -1.80792   0.00179   0.00000  -0.01337  -0.01337  -1.82130
         Item               Value     Threshold  Converged?
 Maximum Force            0.198222     0.000450     NO 
 RMS     Force            0.083605     0.000300     NO 
 Maximum Displacement     0.024818     0.001800     NO 
 RMS     Displacement     0.013903     0.001200     NO 
 Predicted change in Energy=-2.198478D-03
 GradGradGradGradGradGradGradGradGradGradGradGradGradGradGradGradGradGrad

                          Input orientation:                          
 ---------------------------------------------------------------------
 Center     Atomic      Atomic             Coordinates (Angstroms)
 Number     Number       Type             X           Y           Z
 ---------------------------------------------------------------------
      1          8           0       -1.248877    0.724451    0.026497
      2          1           0       -1.260501    0.742163   -0.938248
      3          8           0        0.092303    0.717283    0.055410
      4          1           0        0.426129    1.602911   -0.126770
      5         53           0       -2.347765    0.659848    1.746502
 ---------------------------------------------------------------------
                    Distance matrix (angstroms):
                    1          2          3          4          5
     1  O    0.000000
     2  H    0.964978   0.000000
     3  O    1.341510   1.678706   0.000000
     4  H    1.897585   2.060122   0.963828   0.000000
     5  I    2.042094   2.897724   2.969348   3.477500   0.000000
 Stoichiometry    H2IO2(1-)
 Framework group  C1[X(H2IO2)]
 Deg. of freedom     9
 Full point group                 C1      NOp   1
 Largest Abelian subgroup         C1      NOp   1
 Largest concise Abelian subgroup C1      NOp   1
                         Standard orientation:                         
 ---------------------------------------------------------------------
 Center     Atomic      Atomic             Coordinates (Angstroms)
 Number     Number       Type             X           Y           Z
 ---------------------------------------------------------------------
      1          8           0        1.331266    0.512496    0.002178
      2          1           0        1.968896    1.236110    0.033719
      3          8           0        2.306221   -0.401914   -0.111693
      4          1           0        2.719923   -0.544684    0.747046
      5         53           0       -0.637523   -0.029737    0.001799
 ---------------------------------------------------------------------
 Rotational constants (GHZ):     53.4503779      2.8863286      2.7599187
 Standard basis: LANL2DZ (5D, 7F)
 There are    30 symmetry adapted basis functions of A   symmetry.
 Integral buffers will be    262144 words long.
 Raffenetti 2 integral format.
 Two-electron integral symmetry is turned on.
    30 basis functions,    70 primitive gaussians,    30 cartesian basis functions
    13 alpha electrons       13 beta electrons
       nuclear repulsion energy        65.8696953371 Hartrees.
 NAtoms=    5 NActive=    5 NUniq=    5 SFac= 7.50D-01 NAtFMM=   80 NAOKFM=F Big=F
 ------------------------------------------------------------------------------
 Polarizable Continuum Model (PCM)
 =================================
 Model                : PCM.
 Atomic radii         : SMD-Coulomb.
 Polarization charges : Total charges.
 Charge compensation  : None.
 Solution method      : Matrix inversion.
 Cavity type          : VdW (van der Waals Surface) (Alpha=1.000).
 Cavity algorithm     : GePol (No added spheres)
                        Default sphere list used, NSphG=    5.
                        Lebedev-Laikov grids with approx.  5.0 points / Ang**2.
                        Smoothing algorithm: Karplus/York (Gamma=1.0000).
                        Polarization charges: spherical gaussians, with
                                              point-specific exponents (IZeta= 3).
                        Self-potential: point-specific (ISelfS= 7).
                        Self-field    : sphere-specific E.n sum rule (ISelfD= 2).
 1st derivatives      : Analytical E(r).r(x)/FMM algorithm (CHGder, D1EAlg=3).
                        Cavity 1st derivative terms included.
 Solvent              : Water, Eps=  78.355300 Eps(inf)=   1.777849
 ------------------------------------------------------------------------------
 Spheres list:
 ISph  on   Nord    Re0     Alpha      Xe            Ye            Ze
    1   O      1    1.520   1.000      1.331266      0.512496      0.002178
    2   H      2    1.200   1.000      1.968896      1.236110      0.033719
    3   O      3    1.520   1.000      2.306221     -0.401914     -0.111693
    4   H      4    1.200   1.000      2.719923     -0.544684      0.747046
    5   I      5    1.980   1.000     -0.637523     -0.029737      0.001799
 ------------------------------------------------------------------------------
 ------------------------------------------------------------------------------
 Atomic radii for non-electrostatic terms: SMD-CDS.
 ------------------------------------------------------------------------------
 Nuclear repulsion after PCM non-electrostatic terms =       65.8718087149 Hartrees.
 One-electron integrals computed using PRISM.
   1 Symmetry operations used in ECPInt.
 ECPInt:  NShTT=     171 NPrTT=    1054 LenC2=     172 LenP2D=     977.
 LDataN:  DoStor=T MaxTD1= 4 Len=   56
 NBasis=    30 RedAO= T  NBF=    30
 NBsUse=    30 1.00D-06 NBFU=    30
 Defaulting to unpruned grid for atomic number  53.
 Initial guess read from the read-write file.
 B after Tr=     0.000000    0.000000    0.000000
         Rot=    1.000000    0.000000    0.000000    0.000000 Ang=   0.00 deg.
 Initial guess orbital symmetries:
       Occupied  (A) (A) (A) (A) (A) (A) (A) (A) (A) (A) (A) (A)
                 (A)
       Virtual   (A) (A) (A) (A) (A) (A) (A) (A) (A) (A) (A) (A)
                 (A) (A) (A) (A) (A)
 Harris functional with IExCor= 1009 diagonalized for initial guess.
 ExpMin= 1.05D-01 ExpMax= 7.82D+03 ExpMxC= 2.73D+02 IAcc=1 IRadAn=         1 AccDes= 0.00D+00
 HarFok:  IExCor= 1009 AccDes= 0.00D+00 IRadAn=         1 IDoV= 1
 ScaDFX=  1.000000  1.000000  1.000000  1.000000
 Defaulting to unpruned grid for atomic number  53.
 Defaulting to unpruned grid for atomic number  53.
 Defaulting to unpruned grid for atomic number  53.
 Defaulting to unpruned grid for atomic number  53.
 FoFCou: FMM=F IPFlag=           0 FMFlag=      100000 FMFlg1=           0
         NFxFlg=           0 DoJE=T BraDBF=F KetDBF=T FulRan=T
         Omega=  0.000000  0.000000  1.000000  0.000000  0.000000 ICntrl=     500 IOpCl=  0
         NMat0=    1 NMatS0=    1 NMatT0=    0 NMatD0=    1 NMtDS0=    0 NMtDT0=    0
         I1Cent=           4 NGrid=           0.
 Petite list used in FoFCou.
 Requested convergence on RMS density matrix=1.00D-08 within 128 cycles.
 Requested convergence on MAX density matrix=1.00D-06.
 Requested convergence on             energy=1.00D-06.
 No special actions if energy rises.
 Keep R1 ints in memory in canonical form, NReq=3387638.
 Defaulting to unpruned grid for atomic number  53.
 Defaulting to unpruned grid for atomic number  53.
 Defaulting to unpruned grid for atomic number  53.
 Defaulting to unpruned grid for atomic number  53.
 Error on total polarization charges =  0.10497
 SCF Done:  E(RM062X) =  -162.844375919     A.U. after   10 cycles
             Convg  =    0.3130D-08             -V/T =  2.0498
 SMD-CDS (non-electrostatic) energy             (kcal/mol) =       1.33
 (included in total energy above)
   1 Symmetry operations used in ECPInt.
 ECPInt:  NShTT=     171 NPrTT=    1054 LenC2=     172 LenP2D=     977.
 LDataN:  DoStor=T MaxTD1= 5 Len=  102
 D1PCM: PCM CHGder 1st derivatives, ID1Alg=3 FixD1E=F DoIter=F DoCFld=F I1PDM=0.
 Calling FoFJK, ICntrl=      2127 FMM=F ISym2X=0 I1Cent= 0 IOpClX= 0 NMat=1 NMatS=1 NMatT=0.
 Defaulting to unpruned grid for atomic number  53.
 Defaulting to unpruned grid for atomic number  53.
 Defaulting to unpruned grid for atomic number  53.
 Defaulting to unpruned grid for atomic number  53.
 ***** Axes restored to original set *****
 -------------------------------------------------------------------
 Center     Atomic                   Forces (Hartrees/Bohr)
 Number     Number              X              Y              Z
 -------------------------------------------------------------------
      1        8          -0.001035178    0.010153846   -0.150161099
      2        1          -0.044494806   -0.002604916   -0.040923893
      3        8           0.148544851   -0.020029437    0.027578800
      4        1           0.005951293    0.018427316    0.000559855
      5       53          -0.108966160   -0.005946809    0.162946337
 -------------------------------------------------------------------
 Cartesian Forces:  Max     0.162946337 RMS     0.076758062

 GradGradGradGradGradGradGradGradGradGradGradGradGradGradGradGradGradGrad
 Berny optimization.
 Internal  Forces:  Max     0.196093570 RMS     0.082603647
 Search for a saddle point.
 Step number   3 out of a maximum of   20
 All quantities printed in internal units (Hartrees-Bohrs-Radians)
 Swaping is turned off.
 Update second derivatives using D2CorX and points    1    2    3
 The second derivative matrix:
                          R1        R2        R3        R4        A1
           R1           0.53178
           R2          -0.00866   0.67445
           R3           0.02153   0.00565   0.26403
           R4           0.00082  -0.00481  -0.00007   0.56613
           A1           0.01740   0.11493  -0.01277   0.00118   0.15045
           A2          -0.01916  -0.02082  -0.01412  -0.00139  -0.06423
           A3           0.00176  -0.09411   0.02680   0.00013  -0.08623
           A4          -0.00042   0.08047  -0.00232   0.00712   0.00938
           D1           0.00475   0.00792  -0.00130   0.00524   0.01066
           D2          -0.00177   0.00595   0.00136  -0.00047  -0.00194
                          A2        A3        A4        D1        D2
           A2           0.03144
           A3           0.03282   0.05341
           A4          -0.00138  -0.00792   0.25089
           D1          -0.00430  -0.00646   0.00604   0.08497
           D2          -0.00211   0.00381   0.00839  -0.07468   0.07302
     Eigenvalues ---   -0.00036   0.00552   0.15062   0.18054   0.23978
     Eigenvalues ---    0.26956   0.53532   0.56637   0.733091000.00000
 Eigenvectors required to have negative eigenvalues:
                          A2        A3        D2        D1        R3
   1                    0.57985  -0.54342   0.44934   0.39274   0.08368
                          R2        A1        R1        A4        R4
   1                   -0.05894  -0.03495   0.01745  -0.01735  -0.00194
 RFO step:  Lambda0=2.180167591D-04 Lambda=-1.33259226D-01.
 Linear search not attempted -- option 19 set.
 Maximum step size (   0.030) exceeded in Quadratic search.
    -- Step size scaled by   0.037
 Iteration  1 RMS(Cart)=  0.01088249 RMS(Int)=  0.00004820
 Iteration  2 RMS(Cart)=  0.00007663 RMS(Int)=  0.00000002
 Iteration  3 RMS(Cart)=  0.00000000 RMS(Int)=  0.00000002
 Variable       Old X    -DE/DX   Delta X   Delta X   Delta X     New X
                                 (Linear)    (Quad)   (Total)
    R1        1.82354   0.04138   0.00000   0.00200   0.00200   1.82554
    R2        2.53509   0.15507   0.00000   0.00512   0.00512   2.54021
    R3        3.85900   0.19609   0.00000   0.01988   0.01988   3.87887
    R4        1.82137   0.01887   0.00000   0.00099   0.00099   1.82236
    A1        1.60449   0.04837   0.00000   0.00276   0.00276   1.60725
    A2        2.56106  -0.03197   0.00000   0.01001   0.01001   2.57107
    A3        2.11725  -0.01651   0.00000  -0.01274  -0.01274   2.10451
    A4        1.91483  -0.00096   0.00000  -0.00187  -0.00187   1.91296
    D1        1.34240   0.00541   0.00000   0.00950   0.00950   1.35190
    D2       -1.82130   0.00178   0.00000   0.01048   0.01048  -1.81081
         Item               Value     Threshold  Converged?
 Maximum Force            0.196094     0.000450     NO 
 RMS     Force            0.082604     0.000300     NO 
 Maximum Displacement     0.017293     0.001800     NO 
 RMS     Displacement     0.010912     0.001200     NO 
 Predicted change in Energy=-4.824818D-03
 GradGradGradGradGradGradGradGradGradGradGradGradGradGradGradGradGradGrad

                          Input orientation:                          
 ---------------------------------------------------------------------
 Center     Atomic      Atomic             Coordinates (Angstroms)
 Number     Number       Type             X           Y           Z
 ---------------------------------------------------------------------
      1          8           0       -1.251567    0.723454    0.018464
      2          1           0       -1.260083    0.739482   -0.947400
      3          8           0        0.092125    0.716487    0.055496
      4          1           0        0.425206    1.604689   -0.118080
      5         53           0       -2.344390    0.662544    1.754910
 ---------------------------------------------------------------------
                    Distance matrix (angstroms):
                    1          2          3          4          5
     1  O    0.000000
     2  H    0.966034   0.000000
     3  O    1.344220   1.683685   0.000000
     4  H    1.899155   2.067983   0.964353   0.000000
     5  I    2.052612   2.912751   2.971115   3.473672   0.000000
 Stoichiometry    H2IO2(1-)
 Framework group  C1[X(H2IO2)]
 Deg. of freedom     9
 Full point group                 C1      NOp   1
 Largest Abelian subgroup         C1      NOp   1
 Largest concise Abelian subgroup C1      NOp   1
                         Standard orientation:                         
 ---------------------------------------------------------------------
 Center     Atomic      Atomic             Coordinates (Angstroms)
 Number     Number       Type             X           Y           Z
 ---------------------------------------------------------------------
      1          8           0        1.338991    0.519441    0.002970
      2          1           0        1.983025    1.238742    0.035346
      3          8           0        2.306072   -0.407039   -0.112436
      4          1           0        2.711861   -0.560212    0.748871
      5         53           0       -0.638781   -0.029769    0.001727
 ---------------------------------------------------------------------
 Rotational constants (GHZ):     52.2840615      2.8775796      2.7489103
 Standard basis: LANL2DZ (5D, 7F)
 There are    30 symmetry adapted basis functions of A   symmetry.
 Integral buffers will be    262144 words long.
 Raffenetti 2 integral format.
 Two-electron integral symmetry is turned on.
    30 basis functions,    70 primitive gaussians,    30 cartesian basis functions
    13 alpha electrons       13 beta electrons
       nuclear repulsion energy        65.7156249850 Hartrees.
 NAtoms=    5 NActive=    5 NUniq=    5 SFac= 7.50D-01 NAtFMM=   80 NAOKFM=F Big=F
 ------------------------------------------------------------------------------
 Polarizable Continuum Model (PCM)
 =================================
 Model                : PCM.
 Atomic radii         : SMD-Coulomb.
 Polarization charges : Total charges.
 Charge compensation  : None.
 Solution method      : Matrix inversion.
 Cavity type          : VdW (van der Waals Surface) (Alpha=1.000).
 Cavity algorithm     : GePol (No added spheres)
                        Default sphere list used, NSphG=    5.
                        Lebedev-Laikov grids with approx.  5.0 points / Ang**2.
                        Smoothing algorithm: Karplus/York (Gamma=1.0000).
                        Polarization charges: spherical gaussians, with
                                              point-specific exponents (IZeta= 3).
                        Self-potential: point-specific (ISelfS= 7).
                        Self-field    : sphere-specific E.n sum rule (ISelfD= 2).
 1st derivatives      : Analytical E(r).r(x)/FMM algorithm (CHGder, D1EAlg=3).
                        Cavity 1st derivative terms included.
 Solvent              : Water, Eps=  78.355300 Eps(inf)=   1.777849
 ------------------------------------------------------------------------------
 Spheres list:
 ISph  on   Nord    Re0     Alpha      Xe            Ye            Ze
    1   O      1    1.520   1.000      1.338991      0.519441      0.002970
    2   H      2    1.200   1.000      1.983025      1.238742      0.035346
    3   O      3    1.520   1.000      2.306072     -0.407039     -0.112436
    4   H      4    1.200   1.000      2.711861     -0.560212      0.748871
    5   I      5    1.980   1.000     -0.638781     -0.029769      0.001727
 ------------------------------------------------------------------------------
 ------------------------------------------------------------------------------
 Atomic radii for non-electrostatic terms: SMD-CDS.
 ------------------------------------------------------------------------------
 Nuclear repulsion after PCM non-electrostatic terms =       65.7177418629 Hartrees.
 One-electron integrals computed using PRISM.
   1 Symmetry operations used in ECPInt.
 ECPInt:  NShTT=     171 NPrTT=    1054 LenC2=     172 LenP2D=     977.
 LDataN:  DoStor=T MaxTD1= 4 Len=   56
 NBasis=    30 RedAO= T  NBF=    30
 NBsUse=    30 1.00D-06 NBFU=    30
 Defaulting to unpruned grid for atomic number  53.
 Initial guess read from the read-write file.
 B after Tr=     0.000000    0.000000    0.000000
         Rot=    1.000000    0.000000    0.000000    0.000000 Ang=   0.00 deg.
 Initial guess orbital symmetries:
       Occupied  (A) (A) (A) (A) (A) (A) (A) (A) (A) (A) (A) (A)
                 (A)
       Virtual   (A) (A) (A) (A) (A) (A) (A) (A) (A) (A) (A) (A)
                 (A) (A) (A) (A) (A)
 Requested convergence on RMS density matrix=1.00D-08 within 128 cycles.
 Requested convergence on MAX density matrix=1.00D-06.
 Requested convergence on             energy=1.00D-06.
 No special actions if energy rises.
 Keep R1 ints in memory in canonical form, NReq=3387638.
 Defaulting to unpruned grid for atomic number  53.
 Defaulting to unpruned grid for atomic number  53.
 Defaulting to unpruned grid for atomic number  53.
 Defaulting to unpruned grid for atomic number  53.
 Error on total polarization charges =  0.10462
 SCF Done:  E(RM062X) =  -162.849208325     A.U. after    9 cycles
             Convg  =    0.6220D-08             -V/T =  2.0500
 SMD-CDS (non-electrostatic) energy             (kcal/mol) =       1.33
 (included in total energy above)
   1 Symmetry operations used in ECPInt.
 ECPInt:  NShTT=     171 NPrTT=    1054 LenC2=     172 LenP2D=     977.
 LDataN:  DoStor=T MaxTD1= 5 Len=  102
 D1PCM: PCM CHGder 1st derivatives, ID1Alg=3 FixD1E=F DoIter=F DoCFld=F I1PDM=0.
 Calling FoFJK, ICntrl=      2127 FMM=F ISym2X=0 I1Cent= 0 IOpClX= 0 NMat=1 NMatS=1 NMatT=0.
 Defaulting to unpruned grid for atomic number  53.
 Defaulting to unpruned grid for atomic number  53.
 Defaulting to unpruned grid for atomic number  53.
 Defaulting to unpruned grid for atomic number  53.
 ***** Axes restored to original set *****
 -------------------------------------------------------------------
 Center     Atomic                   Forces (Hartrees/Bohr)
 Number     Number              X              Y              Z
 -------------------------------------------------------------------
      1        8          -0.001076892    0.009615835   -0.148269591
      2        1          -0.043181354   -0.002561458   -0.039787103
      3        8           0.143939239   -0.019525629    0.027470980
      4        1           0.005666017    0.017908691    0.000779840
      5       53          -0.105347010   -0.005437439    0.159805875
 -------------------------------------------------------------------
 Cartesian Forces:  Max     0.159805875 RMS     0.075013340

 GradGradGradGradGradGradGradGradGradGradGradGradGradGradGradGradGradGrad
 Berny optimization.
 Internal  Forces:  Max     0.191468829 RMS     0.080419734
 Search for a saddle point.
 Step number   4 out of a maximum of   20
 All quantities printed in internal units (Hartrees-Bohrs-Radians)
 Swaping is turned off.
 Update second derivatives using D2CorX and points    1    2    3    4
 The second derivative matrix:
                          R1        R2        R3        R4        A1
           R1           0.53174
           R2          -0.00888   0.67323
           R3           0.02099   0.00264   0.25664
           R4           0.00080  -0.00493  -0.00038   0.56612
           A1           0.01731   0.11443  -0.01399   0.00113   0.15025
           A2          -0.01916  -0.02085  -0.01416  -0.00139  -0.06424
           A3           0.00185  -0.09358   0.02806   0.00018  -0.08601
           A4          -0.00044   0.08043  -0.00244   0.00711   0.00936
           D1           0.00476   0.00794  -0.00120   0.00524   0.01068
           D2          -0.00178   0.00590   0.00128  -0.00047  -0.00196
                          A2        A3        A4        D1        D2
           A2           0.03151
           A3           0.03275   0.05326
           A4          -0.00138  -0.00789   0.25090
           D1          -0.00424  -0.00653   0.00603   0.08504
           D2          -0.00205   0.00377   0.00837  -0.07461   0.07309
     Eigenvalues ---   -0.00029   0.00542   0.15059   0.18000   0.23961
     Eigenvalues ---    0.26316   0.53513   0.56635   0.731661000.00000
 Eigenvectors required to have negative eigenvalues:
                          A2        A3        D2        D1        R3
   1                    0.59195  -0.55651   0.43107   0.37504   0.09016
                          R2        A1        R1        A4        R4
   1                   -0.05961  -0.03399   0.01788  -0.01626  -0.00169
 RFO step:  Lambda0=4.597980648D-04 Lambda=-1.30005385D-01.
 Linear search not attempted -- option 19 set.
 Maximum step size (   0.030) exceeded in Quadratic search.
    -- Step size scaled by   0.031
 Iteration  1 RMS(Cart)=  0.01356279 RMS(Int)=  0.00005896
 Iteration  2 RMS(Cart)=  0.00006555 RMS(Int)=  0.00000010
 Iteration  3 RMS(Cart)=  0.00000000 RMS(Int)=  0.00000010
 Variable       Old X    -DE/DX   Delta X   Delta X   Delta X     New X
                                 (Linear)    (Quad)   (Total)
    R1        1.82554   0.04009   0.00000   0.00089   0.00089   1.82643
    R2        2.54021   0.15030   0.00000   0.00689   0.00689   2.54710
    R3        3.87887   0.19147   0.00000   0.01327   0.01327   3.89215
    R4        1.82236   0.01832   0.00000   0.00091   0.00091   1.82328
    A1        1.60725   0.04709   0.00000   0.00389   0.00389   1.61114
    A2        2.57107  -0.03120   0.00000  -0.01722  -0.01722   2.55385
    A3        2.10451  -0.01600   0.00000   0.01329   0.01329   2.11780
    A4        1.91296  -0.00112   0.00000  -0.00086  -0.00086   1.91210
    D1        1.35190   0.00529   0.00000  -0.00878  -0.00878   1.34312
    D2       -1.81081   0.00177   0.00000  -0.01041  -0.01041  -1.82123
         Item               Value     Threshold  Converged?
 Maximum Force            0.191469     0.000450     NO 
 RMS     Force            0.080420     0.000300     NO 
 Maximum Displacement     0.026608     0.001800     NO 
 RMS     Displacement     0.013577     0.001200     NO 
 Predicted change in Energy=-4.027769D-03
 GradGradGradGradGradGradGradGradGradGradGradGradGradGradGradGradGradGrad

                          Input orientation:                          
 ---------------------------------------------------------------------
 Center     Atomic      Atomic             Coordinates (Angstroms)
 Number     Number       Type             X           Y           Z
 ---------------------------------------------------------------------
      1          8           0       -1.247432    0.724188    0.023567
      2          1           0       -1.264514    0.741397   -0.942631
      3          8           0        0.100074    0.717492    0.054000
      4          1           0        0.431634    1.605075   -0.128138
      5         53           0       -2.358471    0.658505    1.756592
 ---------------------------------------------------------------------
                    Distance matrix (angstroms):
                    1          2          3          4          5
     1  O    0.000000
     2  H    0.966503   0.000000
     3  O    1.347866   1.689955   0.000000
     4  H    1.902167   2.070328   0.964836   0.000000
     5  I    2.059635   2.913661   2.991111   3.497554   0.000000
 Stoichiometry    H2IO2(1-)
 Framework group  C1[X(H2IO2)]
 Deg. of freedom     9
 Full point group                 C1      NOp   1
 Largest Abelian subgroup         C1      NOp   1
 Largest concise Abelian subgroup C1      NOp   1
                         Standard orientation:                         
 ---------------------------------------------------------------------
 Center     Atomic      Atomic             Coordinates (Angstroms)
 Number     Number       Type             X           Y           Z
 ---------------------------------------------------------------------
      1          8           0        1.343899    0.514831    0.002071
      2          1           0        1.978102    1.243487    0.033292
      3          8           0        2.322956   -0.404540   -0.111725
      4          1           0        2.735213   -0.545539    0.749130
      5         53           0       -0.642418   -0.029817    0.001789
 ---------------------------------------------------------------------
 Rotational constants (GHZ):     52.9175757      2.8429734      2.7189519
 Standard basis: LANL2DZ (5D, 7F)
 There are    30 symmetry adapted basis functions of A   symmetry.
 Integral buffers will be    262144 words long.
 Raffenetti 2 integral format.
 Two-electron integral symmetry is turned on.
    30 basis functions,    70 primitive gaussians,    30 cartesian basis functions
    13 alpha electrons       13 beta electrons
       nuclear repulsion energy        65.5064118867 Hartrees.
 NAtoms=    5 NActive=    5 NUniq=    5 SFac= 7.50D-01 NAtFMM=   80 NAOKFM=F Big=F
 ------------------------------------------------------------------------------
 Polarizable Continuum Model (PCM)
 =================================
 Model                : PCM.
 Atomic radii         : SMD-Coulomb.
 Polarization charges : Total charges.
 Charge compensation  : None.
 Solution method      : Matrix inversion.
 Cavity type          : VdW (van der Waals Surface) (Alpha=1.000).
 Cavity algorithm     : GePol (No added spheres)
                        Default sphere list used, NSphG=    5.
                        Lebedev-Laikov grids with approx.  5.0 points / Ang**2.
                        Smoothing algorithm: Karplus/York (Gamma=1.0000).
                        Polarization charges: spherical gaussians, with
                                              point-specific exponents (IZeta= 3).
                        Self-potential: point-specific (ISelfS= 7).
                        Self-field    : sphere-specific E.n sum rule (ISelfD= 2).
 1st derivatives      : Analytical E(r).r(x)/FMM algorithm (CHGder, D1EAlg=3).
                        Cavity 1st derivative terms included.
 Solvent              : Water, Eps=  78.355300 Eps(inf)=   1.777849
 ------------------------------------------------------------------------------
 Spheres list:
 ISph  on   Nord    Re0     Alpha      Xe            Ye            Ze
    1   O      1    1.520   1.000      1.343899      0.514831      0.002071
    2   H      2    1.200   1.000      1.978102      1.243487      0.033292
    3   O      3    1.520   1.000      2.322956     -0.404540     -0.111725
    4   H      4    1.200   1.000      2.735213     -0.545539      0.749130
    5   I      5    1.980   1.000     -0.642418     -0.029817      0.001789
 ------------------------------------------------------------------------------
 ------------------------------------------------------------------------------
 Atomic radii for non-electrostatic terms: SMD-CDS.
 ------------------------------------------------------------------------------
 Nuclear repulsion after PCM non-electrostatic terms =       65.5085323257 Hartrees.
 One-electron integrals computed using PRISM.
   1 Symmetry operations used in ECPInt.
 ECPInt:  NShTT=     171 NPrTT=    1054 LenC2=     172 LenP2D=     977.
 LDataN:  DoStor=T MaxTD1= 4 Len=   56
 NBasis=    30 RedAO= T  NBF=    30
 NBsUse=    30 1.00D-06 NBFU=    30
 Defaulting to unpruned grid for atomic number  53.
 Initial guess read from the read-write file.
 B after Tr=     0.000000    0.000000    0.000000
         Rot=    1.000000    0.000000    0.000000    0.000000 Ang=   0.00 deg.
 Initial guess orbital symmetries:
       Occupied  (A) (A) (A) (A) (A) (A) (A) (A) (A) (A) (A) (A)
                 (A)
       Virtual   (A) (A) (A) (A) (A) (A) (A) (A) (A) (A) (A) (A)
                 (A) (A) (A) (A) (A)
 Harris functional with IExCor= 1009 diagonalized for initial guess.
 ExpMin= 1.05D-01 ExpMax= 7.82D+03 ExpMxC= 2.73D+02 IAcc=1 IRadAn=         1 AccDes= 0.00D+00
 HarFok:  IExCor= 1009 AccDes= 0.00D+00 IRadAn=         1 IDoV= 1
 ScaDFX=  1.000000  1.000000  1.000000  1.000000
 Defaulting to unpruned grid for atomic number  53.
 Defaulting to unpruned grid for atomic number  53.
 Defaulting to unpruned grid for atomic number  53.
 Defaulting to unpruned grid for atomic number  53.
 FoFCou: FMM=F IPFlag=           0 FMFlag=      100000 FMFlg1=           0
         NFxFlg=           0 DoJE=T BraDBF=F KetDBF=T FulRan=T
         Omega=  0.000000  0.000000  1.000000  0.000000  0.000000 ICntrl=     500 IOpCl=  0
         NMat0=    1 NMatS0=    1 NMatT0=    0 NMatD0=    1 NMtDS0=    0 NMtDT0=    0
         I1Cent=           4 NGrid=           0.
 Petite list used in FoFCou.
 Requested convergence on RMS density matrix=1.00D-08 within 128 cycles.
 Requested convergence on MAX density matrix=1.00D-06.
 Requested convergence on             energy=1.00D-06.
 No special actions if energy rises.
 Keep R1 ints in memory in canonical form, NReq=3387638.
 Defaulting to unpruned grid for atomic number  53.
 Defaulting to unpruned grid for atomic number  53.
 Defaulting to unpruned grid for atomic number  53.
 Defaulting to unpruned grid for atomic number  53.
 Error on total polarization charges =  0.10443
 SCF Done:  E(RM062X) =  -162.853231223     A.U. after   10 cycles
             Convg  =    0.2789D-08             -V/T =  2.0502
 SMD-CDS (non-electrostatic) energy             (kcal/mol) =       1.33
 (included in total energy above)
   1 Symmetry operations used in ECPInt.
 ECPInt:  NShTT=     171 NPrTT=    1054 LenC2=     172 LenP2D=     977.
 LDataN:  DoStor=T MaxTD1= 5 Len=  102
 D1PCM: PCM CHGder 1st derivatives, ID1Alg=3 FixD1E=F DoIter=F DoCFld=F I1PDM=0.
 Calling FoFJK, ICntrl=      2127 FMM=F ISym2X=0 I1Cent= 0 IOpClX= 0 NMat=1 NMatS=1 NMatT=0.
 Defaulting to unpruned grid for atomic number  53.
 Defaulting to unpruned grid for atomic number  53.
 Defaulting to unpruned grid for atomic number  53.
 Defaulting to unpruned grid for atomic number  53.
 ***** Axes restored to original set *****
 -------------------------------------------------------------------
 Center     Atomic                   Forces (Hartrees/Bohr)
 Number     Number              X              Y              Z
 -------------------------------------------------------------------
      1        8           0.001271169    0.009872960   -0.144027562
      2        1          -0.042553347   -0.002581350   -0.038353820
      3        8           0.140419708   -0.019100019    0.026160970
      4        1           0.005399849    0.017541816    0.000578045
      5       53          -0.104537380   -0.005733406    0.155642368
 -------------------------------------------------------------------
 Cartesian Forces:  Max     0.155642368 RMS     0.073221622

 GradGradGradGradGradGradGradGradGradGradGradGradGradGradGradGradGradGrad
 Berny optimization.
 Internal  Forces:  Max     0.187561642 RMS     0.078596004
 Search for a saddle point.
 Step number   5 out of a maximum of   20
 All quantities printed in internal units (Hartrees-Bohrs-Radians)
 Swaping is turned off.
 Update second derivatives using D2CorX and points    1    2    3    4    5
 The second derivative matrix:
                          R1        R2        R3        R4        A1
           R1           0.53162
           R2          -0.00941   0.67094
           R3           0.02034   0.00004   0.25501
           R4           0.00079  -0.00497  -0.00029   0.56613
           A1           0.01732   0.11459  -0.01322   0.00119   0.15050
           A2          -0.01880  -0.01939  -0.01270  -0.00138  -0.06445
           A3           0.00148  -0.09519   0.02584   0.00013  -0.08606
           A4          -0.00043   0.08043  -0.00251   0.00711   0.00933
           D1           0.00482   0.00814  -0.00125   0.00522   0.01052
           D2          -0.00163   0.00652   0.00184  -0.00048  -0.00207
                          A2        A3        A4        D1        D2
           A2           0.03068
           A3           0.03379   0.05228
           A4          -0.00140  -0.00785   0.25089
           D1          -0.00425  -0.00637   0.00606   0.08511
           D2          -0.00235   0.00418   0.00838  -0.07459   0.07298
     Eigenvalues ---   -0.00187   0.00536   0.15061   0.18055   0.23960
     Eigenvalues ---    0.26040   0.53487   0.56636   0.730121000.00000
 Eigenvectors required to have negative eigenvalues:
                          A2        A3        D2        D1        R3
   1                    0.62296  -0.59004   0.38082   0.32489   0.08582
                          R2        A1        R1        A4        R4
   1                   -0.06609  -0.03148   0.01840  -0.01218  -0.00135
 RFO step:  Lambda0=1.191082551D-03 Lambda=-1.26393956D-01.
 Linear search not attempted -- option 19 set.
 Maximum step size (   0.030) exceeded in Quadratic search.
    -- Step size scaled by   0.036
 Iteration  1 RMS(Cart)=  0.01116441 RMS(Int)=  0.00004993
 Iteration  2 RMS(Cart)=  0.00008205 RMS(Int)=  0.00000000
 Iteration  3 RMS(Cart)=  0.00000000 RMS(Int)=  0.00000000
 Variable       Old X    -DE/DX   Delta X   Delta X   Delta X     New X
                                 (Linear)    (Quad)   (Total)
    R1        1.82643   0.03903   0.00000   0.00194   0.00194   1.82836
    R2        2.54710   0.14639   0.00000   0.00471   0.00471   2.55181
    R3        3.89215   0.18756   0.00000   0.01983   0.01983   3.91197
    R4        1.82328   0.01786   0.00000   0.00096   0.00096   1.82423
    A1        1.61114   0.04599   0.00000   0.00269   0.00269   1.61383
    A2        2.55385  -0.03061   0.00000   0.01126   0.01126   2.56510
    A3        2.11780  -0.01548   0.00000  -0.01392  -0.01392   2.10388
    A4        1.91210  -0.00125   0.00000  -0.00175  -0.00175   1.91035
    D1        1.34312   0.00519   0.00000   0.00814   0.00814   1.35126
    D2       -1.82123   0.00172   0.00000   0.00910   0.00910  -1.81213
         Item               Value     Threshold  Converged?
 Maximum Force            0.187562     0.000450     NO 
 RMS     Force            0.078596     0.000300     NO 
 Maximum Displacement     0.017950     0.001800     NO 
 RMS     Displacement     0.011198     0.001200     NO 
 Predicted change in Energy=-4.497595D-03
 GradGradGradGradGradGradGradGradGradGradGradGradGradGradGradGradGradGrad

                          Input orientation:                          
 ---------------------------------------------------------------------
 Center     Atomic      Atomic             Coordinates (Angstroms)
 Number     Number       Type             X           Y           Z
 ---------------------------------------------------------------------
      1          8           0       -1.250399    0.723277    0.015182
      2          1           0       -1.263569    0.738856   -0.952130
      3          8           0        0.099365    0.716762    0.054805
      4          1           0        0.430449    1.606618   -0.119622
      5         53           0       -2.354555    0.661143    1.765155
 ---------------------------------------------------------------------
                    Distance matrix (angstroms):
                    1          2          3          4          5
     1  O    0.000000
     2  H    0.967527   0.000000
     3  O    1.350360   1.694696   0.000000
     4  H    1.903605   2.077445   0.965342   0.000000
     5  I    2.070128   2.929152   2.991674   3.493216   0.000000
 Stoichiometry    H2IO2(1-)
 Framework group  C1[X(H2IO2)]
 Deg. of freedom     9
 Full point group                 C1      NOp   1
 Largest Abelian subgroup         C1      NOp   1
 Largest concise Abelian subgroup C1      NOp   1
                         Standard orientation:                         
 ---------------------------------------------------------------------
 Center     Atomic      Atomic             Coordinates (Angstroms)
 Number     Number       Type             X           Y           Z
 ---------------------------------------------------------------------
      1          8           0        1.351648    0.522185    0.002823
      2          1           0        1.993033    1.245871    0.034671
      3          8           0        2.321688   -0.410132   -0.112414
      4          1           0        2.726867   -0.560938    0.750704
      5         53           0       -0.643521   -0.029837    0.001724
 ---------------------------------------------------------------------
 Rotational constants (GHZ):     51.7076098      2.8360926      2.7095366
 Standard basis: LANL2DZ (5D, 7F)
 There are    30 symmetry adapted basis functions of A   symmetry.
 Integral buffers will be    262144 words long.
 Raffenetti 2 integral format.
 Two-electron integral symmetry is turned on.
    30 basis functions,    70 primitive gaussians,    30 cartesian basis functions
    13 alpha electrons       13 beta electrons
       nuclear repulsion energy        65.3633024798 Hartrees.
 NAtoms=    5 NActive=    5 NUniq=    5 SFac= 7.50D-01 NAtFMM=   80 NAOKFM=F Big=F
 ------------------------------------------------------------------------------
 Polarizable Continuum Model (PCM)
 =================================
 Model                : PCM.
 Atomic radii         : SMD-Coulomb.
 Polarization charges : Total charges.
 Charge compensation  : None.
 Solution method      : Matrix inversion.
 Cavity type          : VdW (van der Waals Surface) (Alpha=1.000).
 Cavity algorithm     : GePol (No added spheres)
                        Default sphere list used, NSphG=    5.
                        Lebedev-Laikov grids with approx.  5.0 points / Ang**2.
                        Smoothing algorithm: Karplus/York (Gamma=1.0000).
                        Polarization charges: spherical gaussians, with
                                              point-specific exponents (IZeta= 3).
                        Self-potential: point-specific (ISelfS= 7).
                        Self-field    : sphere-specific E.n sum rule (ISelfD= 2).
 1st derivatives      : Analytical E(r).r(x)/FMM algorithm (CHGder, D1EAlg=3).
                        Cavity 1st derivative terms included.
 Solvent              : Water, Eps=  78.355300 Eps(inf)=   1.777849
 ------------------------------------------------------------------------------
 Spheres list:
 ISph  on   Nord    Re0     Alpha      Xe            Ye            Ze
    1   O      1    1.520   1.000      1.351648      0.522185      0.002823
    2   H      2    1.200   1.000      1.993033      1.245871      0.034671
    3   O      3    1.520   1.000      2.321688     -0.410132     -0.112414
    4   H      4    1.200   1.000      2.726867     -0.560938      0.750704
    5   I      5    1.980   1.000     -0.643521     -0.029837      0.001724
 ------------------------------------------------------------------------------
 ------------------------------------------------------------------------------
 Atomic radii for non-electrostatic terms: SMD-CDS.
 ------------------------------------------------------------------------------
 Nuclear repulsion after PCM non-electrostatic terms =       65.3654255210 Hartrees.
 One-electron integrals computed using PRISM.
   1 Symmetry operations used in ECPInt.
 ECPInt:  NShTT=     171 NPrTT=    1054 LenC2=     172 LenP2D=     977.
 LDataN:  DoStor=T MaxTD1= 4 Len=   56
 NBasis=    30 RedAO= T  NBF=    30
 NBsUse=    30 1.00D-06 NBFU=    30
 Defaulting to unpruned grid for atomic number  53.
 Initial guess read from the read-write file.
 B after Tr=     0.000000    0.000000    0.000000
         Rot=    1.000000    0.000000    0.000000    0.000000 Ang=   0.00 deg.
 Initial guess orbital symmetries:
       Occupied  (A) (A) (A) (A) (A) (A) (A) (A) (A) (A) (A) (A)
                 (A)
       Virtual   (A) (A) (A) (A) (A) (A) (A) (A) (A) (A) (A) (A)
                 (A) (A) (A) (A) (A)
 Requested convergence on RMS density matrix=1.00D-08 within 128 cycles.
 Requested convergence on MAX density matrix=1.00D-06.
 Requested convergence on             energy=1.00D-06.
 No special actions if energy rises.
 Keep R1 ints in memory in canonical form, NReq=3388859.
 Defaulting to unpruned grid for atomic number  53.
 Defaulting to unpruned grid for atomic number  53.
 Defaulting to unpruned grid for atomic number  53.
 Defaulting to unpruned grid for atomic number  53.
 Error on total polarization charges =  0.10410
 SCF Done:  E(RM062X) =  -162.857738367     A.U. after    9 cycles
             Convg  =    0.8057D-08             -V/T =  2.0504
 SMD-CDS (non-electrostatic) energy             (kcal/mol) =       1.33
 (included in total energy above)
   1 Symmetry operations used in ECPInt.
 ECPInt:  NShTT=     171 NPrTT=    1054 LenC2=     172 LenP2D=     977.
 LDataN:  DoStor=T MaxTD1= 5 Len=  102
 D1PCM: PCM CHGder 1st derivatives, ID1Alg=3 FixD1E=F DoIter=F DoCFld=F I1PDM=0.
 Calling FoFJK, ICntrl=      2127 FMM=F ISym2X=0 I1Cent= 0 IOpClX= 0 NMat=1 NMatS=1 NMatT=0.
 Defaulting to unpruned grid for atomic number  53.
 Defaulting to unpruned grid for atomic number  53.
 Defaulting to unpruned grid for atomic number  53.
 Defaulting to unpruned grid for atomic number  53.
 ***** Axes restored to original set *****
 -------------------------------------------------------------------
 Center     Atomic                   Forces (Hartrees/Bohr)
 Number     Number              X              Y              Z
 -------------------------------------------------------------------
      1        8           0.001092124    0.009382210   -0.142411356
      2        1          -0.041263613   -0.002536376   -0.037329025
      3        8           0.136072178   -0.018629216    0.026184523
      4        1           0.005137429    0.017045598    0.000789740
      5       53          -0.101038117   -0.005262216    0.152766118
 -------------------------------------------------------------------
 Cartesian Forces:  Max     0.152766118 RMS     0.071606588

 GradGradGradGradGradGradGradGradGradGradGradGradGradGradGradGradGradGrad
 Berny optimization.
 Internal  Forces:  Max     0.183222603 RMS     0.076547574
 Search for a saddle point.
 Step number   6 out of a maximum of   20
 All quantities printed in internal units (Hartrees-Bohrs-Radians)
 Swaping is turned off.
 Update second derivatives using D2CorX and points    1    2    3    4    5
                                                      6
 The second derivative matrix:
                          R1        R2        R3        R4        A1
           R1           0.53161
           R2          -0.00955   0.67006
           R3           0.01992  -0.00243   0.24702
           R4           0.00080  -0.00496  -0.00040   0.56613
           A1           0.01725   0.11418  -0.01477   0.00115   0.15016
           A2          -0.01887  -0.01973  -0.01373  -0.00142  -0.06466
           A3           0.00163  -0.09444   0.02842   0.00020  -0.08551
           A4          -0.00044   0.08042  -0.00241   0.00711   0.00938
           D1           0.00483   0.00812  -0.00142   0.00523   0.01047
           D2          -0.00164   0.00639   0.00128  -0.00049  -0.00222
                          A2        A3        A4        D1        D2
           A2           0.03069
           A3           0.03398   0.05154
           A4          -0.00136  -0.00793   0.25088
           D1          -0.00424  -0.00632   0.00605   0.08517
           D2          -0.00237   0.00434   0.00839  -0.07456   0.07298
     Eigenvalues ---   -0.00274   0.00530   0.15053   0.17959   0.23910
     Eigenvalues ---    0.25421   0.53474   0.56636   0.729021000.00000
 Eigenvectors required to have negative eigenvalues:
                          A2        A3        D2        D1        R3
   1                    0.63739  -0.60826   0.34885   0.29378   0.10022
                          R2        A1        R1        A4        R4
   1                   -0.06691  -0.02774   0.01874  -0.01090  -0.00094
 RFO step:  Lambda0=1.058495066D-04 Lambda=-1.23498176D-01.
 Linear search not attempted -- option 19 set.
 Maximum step size (   0.030) exceeded in Quadratic search.
    -- Step size scaled by   0.052
 Iteration  1 RMS(Cart)=  0.01062623 RMS(Int)=  0.00002167
 Iteration  2 RMS(Cart)=  0.00002915 RMS(Int)=  0.00000004
 Iteration  3 RMS(Cart)=  0.00000000 RMS(Int)=  0.00000004
 Variable       Old X    -DE/DX   Delta X   Delta X   Delta X     New X
                                 (Linear)    (Quad)   (Total)
    R1        1.82836   0.03781   0.00000   0.00190   0.00190   1.83027
    R2        2.55181   0.14192   0.00000   0.00942   0.00942   2.56123
    R3        3.91197   0.18322   0.00000   0.02482   0.02482   3.93679
    R4        1.82423   0.01734   0.00000   0.00140   0.00140   1.82563
    A1        1.61383   0.04479   0.00000   0.00525   0.00525   1.61908
    A2        2.56510  -0.02985   0.00000  -0.01070  -0.01070   2.55440
    A3        2.10388  -0.01504   0.00000   0.00543   0.00543   2.10931
    A4        1.91035  -0.00139   0.00000  -0.00200  -0.00200   1.90836
    D1        1.35126   0.00509   0.00000  -0.00213  -0.00213   1.34914
    D2       -1.81213   0.00172   0.00000  -0.00311  -0.00311  -1.81524
         Item               Value     Threshold  Converged?
 Maximum Force            0.183223     0.000450     NO 
 RMS     Force            0.076548     0.000300     NO 
 Maximum Displacement     0.021859     0.001800     NO 
 RMS     Displacement     0.010635     0.001200     NO 
 Predicted change in Energy=-6.320806D-03
 GradGradGradGradGradGradGradGradGradGradGradGradGradGradGradGradGradGrad

                          Input orientation:                          
 ---------------------------------------------------------------------
 Center     Atomic      Atomic             Coordinates (Angstroms)
 Number     Number       Type             X           Y           Z
 ---------------------------------------------------------------------
      1          8           0       -1.247909    0.723378    0.015285
      2          1           0       -1.267552    0.739046   -0.952924
      3          8           0        0.106894    0.717206    0.053131
      4          1           0        0.435979    1.608085   -0.123923
      5         53           0       -2.366122    0.658942    1.771821
 ---------------------------------------------------------------------
                    Distance matrix (angstroms):
                    1          2          3          4          5
     1  O    0.000000
     2  H    0.968535   0.000000
     3  O    1.355345   1.703445   0.000000
[...]
    R2        2.65237   0.07771   0.00000   0.00690   0.00690   2.65927
    R3        4.25253   0.11636   0.00000   0.02806   0.02806   4.28059
    R4        1.83940   0.00965   0.00000   0.00099   0.00099   1.84038
    A1        1.67347   0.02633   0.00000   0.00427   0.00427   1.67774
    A2        2.50096  -0.01873   0.00000  -0.00598  -0.00598   2.49498
    A3        2.10808  -0.00769   0.00000   0.00168   0.00168   2.10976
    A4        1.88305  -0.00262   0.00000  -0.00218  -0.00218   1.88088
    D1        1.36297   0.00356   0.00000   0.00101   0.00101   1.36398
    D2       -1.80944   0.00125   0.00000   0.00003   0.00003  -1.80940
         Item               Value     Threshold  Converged?
 Maximum Force            0.116355     0.000450     NO 
 RMS     Force            0.046057     0.000300     NO 
 Maximum Displacement     0.017579     0.001800     NO 
 RMS     Displacement     0.009064     0.001200     NO 
 Predicted change in Energy=-3.975291D-03
 GradGradGradGradGradGradGradGradGradGradGradGradGradGradGradGradGradGrad

                          Input orientation:                          
 ---------------------------------------------------------------------
 Center     Atomic      Atomic             Coordinates (Angstroms)
 Number     Number       Type             X           Y           Z
 ---------------------------------------------------------------------
      1          8           0       -1.230689    0.722660   -0.018900
      2          1           0       -1.296955    0.731639   -0.996282
      3          8           0        0.175446    0.718410    0.036278
      4          1           0        0.482278    1.626844   -0.134189
      5         53           0       -2.468791    0.647104    1.876483
 ---------------------------------------------------------------------
                    Distance matrix (angstroms):
                    1          2          3          4          5
     1  O    0.000000
     2  H    0.979667   0.000000
     3  O    1.407224   1.798422   0.000000
     4  H    1.940386   2.170315   0.973888   0.000000
     5  I    2.265188   3.103727   3.222332   3.702904   0.000000
 Stoichiometry    H2IO2(1-)
 Framework group  C1[X(H2IO2)]
 Deg. of freedom     9
 Full point group                 C1      NOp   1
 Largest Abelian subgroup         C1      NOp   1
 Largest concise Abelian subgroup C1      NOp   1
                         Standard orientation:                         
 ---------------------------------------------------------------------
 Center     Atomic      Atomic             Coordinates (Angstroms)
 Number     Number       Type             X           Y           Z
 ---------------------------------------------------------------------
      1          8           0        1.494615    0.543560    0.002543
      2          1           0        2.101662    1.312043    0.028537
      3          8           0        2.497840   -0.436490   -0.112868
      4          1           0        2.884817   -0.571098    0.770641
      5         53           0       -0.696719   -0.030141    0.001574
 ---------------------------------------------------------------------
 Rotational constants (GHZ):     47.1891352      2.4252542      2.3227467
 Standard basis: LANL2DZ (5D, 7F)
 There are    30 symmetry adapted basis functions of A   symmetry.
 Integral buffers will be    262144 words long.
 Raffenetti 2 integral format.
 Two-electron integral symmetry is turned on.
    30 basis functions,    70 primitive gaussians,    30 cartesian basis functions
    13 alpha electrons       13 beta electrons
       nuclear repulsion energy        61.9870999403 Hartrees.
 NAtoms=    5 NActive=    5 NUniq=    5 SFac= 7.50D-01 NAtFMM=   80 NAOKFM=F Big=F
 ------------------------------------------------------------------------------
 Polarizable Continuum Model (PCM)
 =================================
 Model                : PCM.
 Atomic radii         : SMD-Coulomb.
 Polarization charges : Total charges.
 Charge compensation  : None.
 Solution method      : Matrix inversion.
 Cavity type          : VdW (van der Waals Surface) (Alpha=1.000).
 Cavity algorithm     : GePol (No added spheres)
                        Default sphere list used, NSphG=    5.
                        Lebedev-Laikov grids with approx.  5.0 points / Ang**2.
                        Smoothing algorithm: Karplus/York (Gamma=1.0000).
                        Polarization charges: spherical gaussians, with
                                              point-specific exponents (IZeta= 3).
                        Self-potential: point-specific (ISelfS= 7).
                        Self-field    : sphere-specific E.n sum rule (ISelfD= 2).
 1st derivatives      : Analytical E(r).r(x)/FMM algorithm (CHGder, D1EAlg=3).
                        Cavity 1st derivative terms included.
 Solvent              : Water, Eps=  78.355300 Eps(inf)=   1.777849
 ------------------------------------------------------------------------------
 Spheres list:
 ISph  on   Nord    Re0     Alpha      Xe            Ye            Ze
    1   O      1    1.520   1.000      1.494615      0.543560      0.002543
    2   H      2    1.200   1.000      2.101662      1.312043      0.028537
    3   O      3    1.520   1.000      2.497840     -0.436490     -0.112868
    4   H      4    1.200   1.000      2.884817     -0.571098      0.770641
    5   I      5    1.980   1.000     -0.696719     -0.030141      0.001574
 ------------------------------------------------------------------------------
 ------------------------------------------------------------------------------
 Atomic radii for non-electrostatic terms: SMD-CDS.
 ------------------------------------------------------------------------------
 Nuclear repulsion after PCM non-electrostatic terms =       61.9892758167 Hartrees.
 One-electron integrals computed using PRISM.
   1 Symmetry operations used in ECPInt.
 ECPInt:  NShTT=     171 NPrTT=    1054 LenC2=     172 LenP2D=     972.
 LDataN:  DoStor=T MaxTD1= 4 Len=   56
 NBasis=    30 RedAO= T  NBF=    30
 NBsUse=    30 1.00D-06 NBFU=    30
 Defaulting to unpruned grid for atomic number  53.
 Initial guess read from the read-write file.
 B after Tr=     0.000000    0.000000    0.000000
         Rot=    1.000000    0.000000    0.000000    0.000000 Ang=   0.00 deg.
 Initial guess orbital symmetries:
       Occupied  (A) (A) (A) (A) (A) (A) (A) (A) (A) (A) (A) (A)
                 (A)
       Virtual   (A) (A) (A) (A) (A) (A) (A) (A) (A) (A) (A) (A)
                 (A) (A) (A) (A) (A)
 Requested convergence on RMS density matrix=1.00D-08 within 128 cycles.
 Requested convergence on MAX density matrix=1.00D-06.
 Requested convergence on             energy=1.00D-06.
 No special actions if energy rises.
 Keep R1 ints in memory in canonical form, NReq=3407326.
 Defaulting to unpruned grid for atomic number  53.
 Defaulting to unpruned grid for atomic number  53.
 Defaulting to unpruned grid for atomic number  53.
 Defaulting to unpruned grid for atomic number  53.
 Error on total polarization charges =  0.09964
 SCF Done:  E(RM062X) =  -162.927313497     A.U. after    9 cycles
             Convg  =    0.7375D-08             -V/T =  2.0536
 SMD-CDS (non-electrostatic) energy             (kcal/mol) =       1.37
 (included in total energy above)
   1 Symmetry operations used in ECPInt.
 ECPInt:  NShTT=     171 NPrTT=    1054 LenC2=     172 LenP2D=     972.
 LDataN:  DoStor=T MaxTD1= 5 Len=  102
 D1PCM: PCM CHGder 1st derivatives, ID1Alg=3 FixD1E=F DoIter=F DoCFld=F I1PDM=0.
 Calling FoFJK, ICntrl=      2127 FMM=F ISym2X=0 I1Cent= 0 IOpClX= 0 NMat=1 NMatS=1 NMatT=0.
 Defaulting to unpruned grid for atomic number  53.
 Defaulting to unpruned grid for atomic number  53.
 Defaulting to unpruned grid for atomic number  53.
 Defaulting to unpruned grid for atomic number  53.
 ***** Axes restored to original set *****
 -------------------------------------------------------------------
 Center     Atomic                   Forces (Hartrees/Bohr)
 Number     Number              X              Y              Z
 -------------------------------------------------------------------
      1        8           0.014549033    0.006997243   -0.089251516
      2        1          -0.024467844   -0.002167543   -0.017822589
      3        8           0.071892723   -0.010828808    0.013931419
      4        1           0.001417374    0.009586895    0.000961677
      5       53          -0.063391286   -0.003587787    0.092181008
 -------------------------------------------------------------------
 Cartesian Forces:  Max     0.092181008 RMS     0.042623082

 GradGradGradGradGradGradGradGradGradGradGradGradGradGradGradGradGradGrad
 Berny optimization.
 Internal  Forces:  Max     0.111929830 RMS     0.044125626
 Search for a saddle point.
 Step number  20 out of a maximum of   20
 All quantities printed in internal units (Hartrees-Bohrs-Radians)
 Swaping is turned off.
 Update second derivatives using D2CorX and points   10   11   12   13   14
                                                     15   16   17   18   19
                                                     20
 The second derivative matrix:
                          R1        R2        R3        R4        A1
           R1           0.52932
           R2          -0.01396   0.65671
           R3           0.00971  -0.03137   0.16466
           R4           0.00045  -0.00566  -0.00173   0.56607
           A1           0.01746   0.11282  -0.01838   0.00124   0.14929
           A2          -0.01683  -0.01588  -0.00762  -0.00111  -0.06561
           A3          -0.00062  -0.09689   0.02597  -0.00020  -0.08369
           A4          -0.00027   0.08041  -0.00168   0.00706   0.00925
           D1           0.00464   0.00724  -0.00348   0.00521   0.01029
           D2          -0.00123   0.00703   0.00188  -0.00040  -0.00248
                          A2        A3        A4        D1        D2
           A2           0.02868
           A3           0.03693   0.04678
           A4          -0.00108  -0.00808   0.25080
           D1          -0.00398  -0.00641   0.00605   0.08514
           D2          -0.00287   0.00511   0.00846  -0.07448   0.07287
     Eigenvalues ---   -0.00828   0.00485   0.15017   0.15728   0.18897
     Eigenvalues ---    0.24034   0.53110   0.56628   0.719381000.00000
 Eigenvectors required to have negative eigenvalues:
                          A2        A3        D2        D1        R3
   1                    0.67305  -0.65941   0.24109   0.18674   0.11380
                          R2        R1        A1        A4        R4
   1                   -0.07623   0.01560  -0.01211  -0.00512  -0.00079
 RFO step:  Lambda0=6.592186271D-05 Lambda=-6.82673626D-02.
 Linear search not attempted -- option 19 set.
 Maximum step size (   0.030) exceeded in Quadratic search.
    -- Step size scaled by   0.056
 Iteration  1 RMS(Cart)=  0.00956657 RMS(Int)=  0.00001253
 Iteration  2 RMS(Cart)=  0.00001797 RMS(Int)=  0.00000006
 Iteration  3 RMS(Cart)=  0.00000000 RMS(Int)=  0.00000006
 Variable       Old X    -DE/DX   Delta X   Delta X   Delta X     New X
                                 (Linear)    (Quad)   (Total)
    R1        1.85130   0.01940   0.00000   0.00119   0.00119   1.85249
    R2        2.65927   0.07384   0.00000   0.00686   0.00686   2.66613
    R3        4.28059   0.11193   0.00000   0.02747   0.02747   4.30805
    R4        1.84038   0.00918   0.00000   0.00095   0.00095   1.84133
    A1        1.67774   0.02517   0.00000   0.00425   0.00425   1.68199
    A2        2.49498  -0.01799   0.00000  -0.00779  -0.00779   2.48719
    A3        2.10976  -0.00726   0.00000   0.00350   0.00350   2.11325
    A4        1.88088  -0.00263   0.00000  -0.00212  -0.00212   1.87876
    D1        1.36398   0.00347   0.00000   0.00055   0.00055   1.36453
    D2       -1.80940   0.00123   0.00000  -0.00058  -0.00058  -1.80998
         Item               Value     Threshold  Converged?
 Maximum Force            0.111930     0.000450     NO 
 RMS     Force            0.044126     0.000300     NO 
 Maximum Displacement     0.019612     0.001800     NO 
 RMS     Displacement     0.009571     0.001200     NO 
 Predicted change in Energy=-3.762996D-03
 Optimization stopped.
    -- Number of steps exceeded,  NStep=  20
    -- Flag reset to prevent archiving.
                           ----------------------------
                           ! Non-Optimized Parameters !
                           ! (Angstroms and Degrees)  !
 --------------------------                            --------------------------
 ! Name  Definition              Value          Derivative Info.                !
 --------------------------------------------------------------------------------
 ! R1    R(1,2)                  0.9803         -DE/DX =    0.0194              !
 ! R2    R(1,3)                  1.4109         -DE/DX =    0.0738              !
 ! R3    R(1,5)                  2.2797         -DE/DX =    0.1119              !
 ! R4    R(3,4)                  0.9744         -DE/DX =    0.0092              !
 ! A1    A(2,1,3)               96.3708         -DE/DX =    0.0252              !
 ! A2    A(2,1,5)              142.5052         -DE/DX =   -0.018               !
 ! A3    A(3,1,5)              121.0805         -DE/DX =   -0.0073              !
 ! A4    A(1,3,4)              107.6449         -DE/DX =   -0.0026              !
 ! D1    D(2,1,3,4)             78.1817         -DE/DX =    0.0035              !
 ! D2    D(5,1,3,4)           -103.7044         -DE/DX =    0.0012              !
 --------------------------------------------------------------------------------
 GradGradGradGradGradGradGradGradGradGradGradGradGradGradGradGradGradGrad

                          Input orientation:                          
 ---------------------------------------------------------------------
 Center     Atomic      Atomic             Coordinates (Angstroms)
 Number     Number       Type             X           Y           Z
 ---------------------------------------------------------------------
      1          8           0       -1.230689    0.722660   -0.018900
      2          1           0       -1.296955    0.731639   -0.996282
      3          8           0        0.175446    0.718410    0.036278
      4          1           0        0.482278    1.626844   -0.134189
      5         53           0       -2.468791    0.647104    1.876483
 ---------------------------------------------------------------------
                    Distance matrix (angstroms):
                    1          2          3          4          5
     1  O    0.000000
     2  H    0.979667   0.000000
     3  O    1.407224   1.798422   0.000000
     4  H    1.940386   2.170315   0.973888   0.000000
     5  I    2.265188   3.103727   3.222332   3.702904   0.000000
 Stoichiometry    H2IO2(1-)
 Framework group  C1[X(H2IO2)]
 Deg. of freedom     9
 Full point group                 C1      NOp   1
 Largest Abelian subgroup         C1      NOp   1
 Largest concise Abelian subgroup C1      NOp   1
                         Standard orientation:                         
 ---------------------------------------------------------------------
 Center     Atomic      Atomic             Coordinates (Angstroms)
 Number     Number       Type             X           Y           Z
 ---------------------------------------------------------------------
      1          8           0        1.494615    0.543560    0.002543
      2          1           0        2.101662    1.312043    0.028537
      3          8           0        2.497840   -0.436490   -0.112868
      4          1           0        2.884817   -0.571098    0.770641
      5         53           0       -0.696719   -0.030141    0.001574
 ---------------------------------------------------------------------
 Rotational constants (GHZ):     47.1891352      2.4252542      2.3227467

 **********************************************************************

            Population analysis using the SCF density.

 **********************************************************************

 Orbital symmetries:
       Occupied  (A) (A) (A) (A) (A) (A) (A) (A) (A) (A) (A) (A)
                 (A)
       Virtual   (A) (A) (A) (A) (A) (A) (A) (A) (A) (A) (A) (A)
                 (A) (A) (A) (A) (A)
 The electronic state is 1-A.
 Alpha  occ. eigenvalues --  -19.68007 -19.67692  -1.27722  -1.00751  -0.67034
 Alpha  occ. eigenvalues --   -0.62837  -0.55463  -0.51075  -0.39450  -0.37327
 Alpha  occ. eigenvalues --   -0.25900  -0.25290  -0.19860
 Alpha virt. eigenvalues --    0.10860   0.15444   0.21207   0.43409   0.45751
 Alpha virt. eigenvalues --    0.45876   0.65477   0.70810   0.72337   0.76614
 Alpha virt. eigenvalues --    0.79869   0.93453   1.03126   1.09324   1.50888
 Alpha virt. eigenvalues --    1.79297   9.40656
          Condensed to atoms (all electrons):
              1          2          3          4          5
     1  O    8.722849   0.249858  -0.010437  -0.041486  -0.543995
     2  H    0.249858   0.334880  -0.049687  -0.000782   0.026033
     3  O   -0.010437  -0.049687   8.253963   0.271799   0.018441
     4  H   -0.041486  -0.000782   0.271799   0.330078  -0.004183
     5  I   -0.543995   0.026033   0.018441  -0.004183   8.527107
 Mulliken atomic charges:
              1
     1  O   -0.376789
     2  H    0.439697
     3  O   -0.484080
     4  H    0.444574
     5  I   -1.023403
 Sum of Mulliken atomic charges =  -1.00000
 Mulliken charges with hydrogens summed into heavy atoms:
              1
     1  O    0.062908
     3  O   -0.039506
     5  I   -1.023403
 Sum of Mulliken charges with hydrogens summed into heavy atoms =  -1.00000
 Electronic spatial extent (au):  <R**2>=            401.7655
 Charge=             -1.0000 electrons
 Dipole moment (field-independent basis, Debye):
    X=              6.8284    Y=              2.3104    Z=              2.4261  Tot=              7.6060
 Quadrupole moment (field-independent basis, Debye-Ang):
   XX=            -33.8422   YY=            -34.7428   ZZ=            -36.8243
   XY=              3.8046   XZ=              6.9744   YZ=             -1.2820
 Traceless Quadrupole moment (field-independent basis, Debye-Ang):
   XX=              1.2943   YY=              0.3936   ZZ=             -1.6879
   XY=              3.8046   XZ=              6.9744   YZ=             -1.2820
 Octapole moment (field-independent basis, Debye-Ang**2):
  XXX=             10.3579  YYY=              5.4145  ZZZ=              2.2446  XYY=              0.6645
  XXY=              8.5632  XXZ=             20.2787  XZZ=             -2.9891  YZZ=             -0.7388
  YYZ=              1.3542  XYZ=             -3.7315
 Hexadecapole moment (field-independent basis, Debye-Ang**3):
 XXXX=           -390.1776 YYYY=            -74.4959 ZZZZ=            -60.7297 XXXY=             13.4763
 XXXZ=             59.9835 YYYX=             11.8807 YYYZ=             -0.8854 ZZZX=              6.3867
 ZZZY=             -1.2402 XXYY=            -73.2458 XXZZ=            -77.3007 YYZZ=            -23.5964
 XXYZ=            -10.7743 YYXZ=              3.5692 ZZXY=             -1.5005
 N-N= 6.198927581673D+01 E-N=-5.098167931870D+02  KE= 1.546359259424D+02


 IF YOU BELIEVE CERTAIN WORDS, YOU BELIEVE THEIR HIDDEN ARGUMENTS.
 WHEN YOU BELIEVE SOMETHING IS RIGHT OR WRONG, TRUE OR FALSE, 
 YOU BELIEVE THE ASSUMPTIONS IN THE WORDS WHICH EXPRESS THE ARGUMENTS.
 SUCH ASSUMPTIONS ARE OFTEN FULL OF HOLES, BUT REMAIN MOST PRECIOUS 
 TO THE CONVINCED.

                 -- THE OPEN-ENDED PROOF FROM THE PANOPLIA PROPHETICA
                    CHILDREN OF DUNE BY FRANK HERBERT
 Error termination request processed by link 9999.
 Error termination via Lnk1e in C:\G09W\l9999.exe at Tue Feb 02 02:36:39 2021.
 Job cpu time:  0 days  0 hours  1 minutes 41.0 seconds.
 File lengths (MBytes):  RWF=     16 Int=      0 D2E=      0 Chk=      2 Scr=      1
