 Entering Link 1 = C:\G09W\l1.exe PID=      6892.
  
 Copyright (c) 1988,1990,1992,1993,1995,1998,2003,2009, Gaussian, Inc.
                  All Rights Reserved.
  
 This is part of the Gaussian(R) 09 program.  It is based on
 the Gaussian(R) 03 system (copyright 2003, Gaussian, Inc.),
 the Gaussian(R) 98 system (copyright 1998, Gaussian, Inc.),
 the Gaussian(R) 94 system (copyright 1995, Gaussian, Inc.),
 the Gaussian 92(TM) system (copyright 1992, Gaussian, Inc.),
 the Gaussian 90(TM) system (copyright 1990, Gaussian, Inc.),
 the Gaussian 88(TM) system (copyright 1988, Gaussian, Inc.),
 the Gaussian 86(TM) system (copyright 1986, Carnegie Mellon
 University), and the Gaussian 82(TM) system (copyright 1983,
 Carnegie Mellon University). Gaussian is a federally registered
 trademark of Gaussian, Inc.
  
 This software contains proprietary and confidential information,
 including trade secrets, belonging to Gaussian, Inc.
  
 This software is provided under written license and may be
 used, copied, transmitted, or stored only in accord with that
 written license.
  
 The following legend is applicable only to US Government
 contracts under FAR:
  
                    RESTRICTED RIGHTS LEGEND
  
 Use, reproduction and disclosure by the US Government is
 subject to restrictions as set forth in subparagraphs (a)
 and (c) of the Commercial Computer Software - Restricted
 Rights clause in FAR 52.227-19.
  
 Gaussian, Inc.
 340 Quinnipiac St., Bldg. 40, Wallingford CT 06492
  
  
 ---------------------------------------------------------------
 Warning -- This program may not be used in any manner that
 competes with the business of Gaussian, Inc. or will provide
 assistance to any competitor of Gaussian, Inc.  The licensee
 of this program is prohibited from giving any competitor of
 Gaussian, Inc. access to this program.  By using this program,
 the user acknowledges that Gaussian, Inc. is engaged in the
 business of creating and licensing software in the field of
 computational chemistry and represents and warrants to the
 licensee that it is not a competitor of Gaussian, Inc. and that
 it will not use this program in any manner prohibited above.
 ---------------------------------------------------------------
  

 Cite this work as:
 Gaussian 09, Revision A.02,
 M. J. Frisch, G. W. Trucks, H. B. Schlegel, G. E. Scuseria, 
 M. A. Robb, J. R. Cheeseman, G. Scalmani, V. Barone, B. Mennucci, 
 G. A. Petersson, H. Nakatsuji, M. Caricato, X. Li, H. P. Hratchian, 
 A. F. Izmaylov, J. Bloino, G. Zheng, J. L. Sonnenberg, M. Hada, 
 M. Ehara, K. Toyota, R. Fukuda, J. Hasegawa, M. Ishida, T. Nakajima, 
 Y. Honda, O. Kitao, H. Nakai, T. Vreven, J. A. Montgomery, Jr., 
 J. E. Peralta, F. Ogliaro, M. Bearpark, J. J. Heyd, E. Brothers, 
 K. N. Kudin, V. N. Staroverov, R. Kobayashi, J. Normand, 
 K. Raghavachari, A. Rendell, J. C. Burant, S. S. Iyengar, J. Tomasi, 
 M. Cossi, N. Rega, J. M. Millam, M. Klene, J. E. Knox, J. B. Cross, 
 V. Bakken, C. Adamo, J. Jaramillo, R. Gomperts, R. E. Stratmann, 
 O. Yazyev, A. J. Austin, R. Cammi, C. Pomelli, J. W. Ochterski, 
 R. L. Martin, K. Morokuma, V. G. Zakrzewski, G. A. Voth, 
 P. Salvador, J. J. Dannenberg, S. Dapprich, A. D. Daniels, 
 O. Farkas, J. B. Foresman, J. V. Ortiz, J. Cioslowski, 
 and D. J. Fox, Gaussian, Inc., Wallingford CT, 2009.
 
 ******************************************
 Gaussian 09:  IA32W-G09RevA.02 11-Jun-2009
                09-Oct-2020 
 ******************************************
 %chk=C:\Users\sagad\Documents\rayGit\FQ\quimicaComputacional\class4Metilo\reacti
 vos\hidroxilRadicalM062XTwo.chk
 %nprocshared=4
 Will use up to    4 processors via shared memory.
 %mem=1500MB
 -----------------------------
 #opt freq M062X/6-311++g(d,p)
 -----------------------------
 1/14=-1,18=20,19=15,26=3,38=1/1,3;
 2/9=110,12=2,17=6,18=5,40=1/2;
 3/5=4,6=6,7=1111,11=2,16=1,25=1,30=1,71=1,74=-55/1,2,3;
 4//1;
 5/5=2,38=5/2;
 6/7=2,8=2,9=2,10=2,28=1/1;
 7//1,2,3,16;
 1/14=-1,18=20,19=15/3(2);
 2/9=110/2;
 99//99;
 2/9=110/2;
 3/5=4,6=6,7=1111,11=2,16=1,25=1,30=1,71=1,74=-55/1,2,3;
 4/5=5,16=3/1;
 5/5=2,38=5/2;
 7//1,2,3,16;
 1/14=-1,18=20,19=15/3(-5);
 2/9=110/2;
 6/7=2,8=2,9=2,10=2,19=2,28=1/1;
 99/9=1/99;
 -------------------------------------------------------------
 Calculation of hidrixil radical with M062X with 6-311++g(d,p)
 -------------------------------------------------------------
 Symbolic Z-matrix:
 Charge =  0 Multiplicity = 2
 O                     0.86331   0.41353   0. 
 H                     1.82331   0.41353   0. 
 

 GradGradGradGradGradGradGradGradGradGradGradGradGradGradGradGradGradGrad
 Berny optimization.
 Initialization pass.
                           ----------------------------
                           !    Initial Parameters    !
                           ! (Angstroms and Degrees)  !
 --------------------------                            --------------------------
 ! Name  Definition              Value          Derivative Info.                !
 --------------------------------------------------------------------------------
 ! R1    R(1,2)                  0.96           estimate D2E/DX2                !
 --------------------------------------------------------------------------------
 Trust Radius=3.00D-01 FncErr=1.00D-07 GrdErr=1.00D-06
 Number of steps in this run=  20 maximum allowed number of steps= 100.
 GradGradGradGradGradGradGradGradGradGradGradGradGradGradGradGradGradGrad

                          Input orientation:                          
 ---------------------------------------------------------------------
 Center     Atomic      Atomic             Coordinates (Angstroms)
 Number     Number       Type             X           Y           Z
 ---------------------------------------------------------------------
      1          8           0        0.863308    0.413534    0.000000
      2          1           0        1.823308    0.413534    0.000000
 ---------------------------------------------------------------------
 Stoichiometry    HO(2)
 Framework group  C*V[C*(HO)]
 Deg. of freedom     1
 Full point group                 C*V     NOp   4
 Largest Abelian subgroup         C2V     NOp   4
 Largest concise Abelian subgroup C1      NOp   1
                         Standard orientation:                         
 ---------------------------------------------------------------------
 Center     Atomic      Atomic             Coordinates (Angstroms)
 Number     Number       Type             X           Y           Z
 ---------------------------------------------------------------------
      1          8           0        0.000000    0.000000    0.106667
      2          1           0        0.000000    0.000000   -0.853333
 ---------------------------------------------------------------------
 Rotational constants (GHZ):      0.0000000    578.3977110    578.3977110
 Standard basis: 6-311++G(d,p) (5D, 7F)
 There are    16 symmetry adapted basis functions of A1  symmetry.
 There are     1 symmetry adapted basis functions of A2  symmetry.
 There are     6 symmetry adapted basis functions of B1  symmetry.
 There are     6 symmetry adapted basis functions of B2  symmetry.
 Integral buffers will be    262144 words long.
 Raffenetti 2 integral format.
 Two-electron integral symmetry is turned on.
    29 basis functions,    45 primitive gaussians,    30 cartesian basis functions
     5 alpha electrons        4 beta electrons
       nuclear repulsion energy         4.4098100716 Hartrees.
 NAtoms=    2 NActive=    2 NUniq=    2 SFac= 7.50D-01 NAtFMM=   80 NAOKFM=F Big=F
 One-electron integrals computed using PRISM.
 NBasis=    29 RedAO= T  NBF=    16     1     6     6
 NBsUse=    29 1.00D-06 NBFU=    16     1     6     6
 Harris functional with IExCor= 1009 diagonalized for initial guess.
 ExpMin= 3.60D-02 ExpMax= 8.59D+03 ExpMxC= 1.30D+03 IAcc=3 IRadAn=         0 AccDes= 0.00D+00
 HarFok:  IExCor= 1009 AccDes= 0.00D+00 IRadAn=         0 IDoV= 1
 ScaDFX=  1.000000  1.000000  1.000000  1.000000
 FoFCou: FMM=F IPFlag=           0 FMFlag=      100000 FMFlg1=           0
         NFxFlg=           0 DoJE=T BraDBF=F KetDBF=T FulRan=T
         Omega=  0.000000  0.000000  1.000000  0.000000  0.000000 ICntrl=     500 IOpCl=  0
         NMat0=    1 NMatS0=    1 NMatT0=    0 NMatD0=    1 NMtDS0=    0 NMtDT0=    0
         I1Cent=           4 NGrid=           0.
 Petite list used in FoFCou.
 Initial guess orbital symmetries:
 Alpha Orbitals:
       Occupied  (SG) (SG) (SG) (PI) (PI)
       Virtual   (SG) (SG) (PI) (PI) (SG) (SG) (SG) (SG) (PI) (PI)
                 (SG) (PI) (PI) (SG) (SG) (DLTA) (DLTA) (PI) (PI)
                 (SG) (PI) (PI) (SG) (SG)
 Beta  Orbitals:
       Occupied  (SG) (SG) (SG) (PI)
       Virtual   (PI) (SG) (SG) (PI) (PI) (SG) (SG) (SG) (SG) (PI)
                 (PI) (SG) (PI) (PI) (SG) (SG) (DLTA) (DLTA) (PI)
                 (PI) (SG) (PI) (PI) (SG) (SG)
 Initial guess <Sx>= 0.0000 <Sy>= 0.0000 <Sz>= 0.5000 <S**2>= 0.7500 S= 0.5000
 Requested convergence on RMS density matrix=1.00D-08 within 128 cycles.
 Requested convergence on MAX density matrix=1.00D-06.
 Requested convergence on             energy=1.00D-06.
 No special actions if energy rises.
 Keep R1 and R2 ints in memory in canonical form, NReq=1110557.
 SCF Done:  E(UM062X) =  -75.7264396261     A.U. after   10 cycles
             Convg  =    0.3320D-08             -V/T =  2.0019
 <Sx>= 0.0000 <Sy>= 0.0000 <Sz>= 0.5000 <S**2>= 0.7527 S= 0.5013
 <L.S>= 0.000000000000E+00
 Annihilation of the first spin contaminant:
 S**2 before annihilation     0.7527,   after     0.7500

 **********************************************************************

            Population analysis using the SCF density.

 **********************************************************************

 Orbital symmetries:
 Alpha Orbitals:
       Occupied  (SG) (SG) (SG) (PI) (PI)
       Virtual   (SG) (SG) (PI) (PI) (SG) (SG) (SG) (PI) (SG) (PI)
                 (SG) (PI) (PI) (SG) (SG) (DLTA) (DLTA) (PI) (PI)
                 (SG) (PI) (PI) (SG) (SG)
 Beta  Orbitals:
       Occupied  (SG) (SG) (SG) (?A)
       Virtual   (?A) (SG) (SG) (?A) (?A) (SG) (SG) (SG) (SG) (?A)
                 (?A) (SG) (PI) (PI) (SG) (SG) (DLTA) (DLTA) (PI)
                 (PI) (SG) (PI) (PI) (SG) (SG)
 Unable to determine electronic state:  an orbital has unidentified symmetry.
 Alpha  occ. eigenvalues --  -19.69429  -1.15189  -0.57007  -0.50682  -0.44256
 Alpha virt. eigenvalues --   -0.00303   0.15733   0.16666   0.17222   0.17952
 Alpha virt. eigenvalues --    0.23894   0.54838   1.00030   1.01533   1.04215
 Alpha virt. eigenvalues --    1.34518   1.35833   1.37229   2.06207   2.47569
 Alpha virt. eigenvalues --    2.81749   2.81754   3.11579   3.16081   3.81446
 Alpha virt. eigenvalues --    4.93247   4.99979   5.48639  49.87599
  Beta  occ. eigenvalues --  -19.67818  -1.06883  -0.53702  -0.40570
  Beta virt. eigenvalues --   -0.10776  -0.00238   0.16303   0.17670   0.17785
  Beta virt. eigenvalues --    0.17965   0.22063   0.55560   1.02318   1.05297
  Beta virt. eigenvalues --    1.05456   1.36945   1.37332   1.37766   2.07909
  Beta virt. eigenvalues --    2.47713   2.87718   2.91306   3.16599   3.17897
  Beta virt. eigenvalues --    3.85495   5.01379   5.03602   5.50996  49.87132
          Condensed to atoms (all electrons):
              1          2
     1  O    7.992510   0.254400
     2  H    0.254400   0.498689
 Mulliken atomic charges:
              1
     1  O   -0.246910
     2  H    0.246910
 Sum of Mulliken atomic charges =   0.00000
 Mulliken charges with hydrogens summed into heavy atoms:
              1
     1  O    0.000000
 Sum of Mulliken charges with hydrogens summed into heavy atoms =   0.00000
          Atomic-Atomic Spin Densities.
              1          2
     1  O    1.014642   0.009869
     2  H    0.009869  -0.034380
 Mulliken atomic spin densities:
              1
     1  O    1.024511
     2  H   -0.024511
 Sum of Mulliken atomic spin densities =   1.00000
 Electronic spatial extent (au):  <R**2>=             15.6375
 Charge=              0.0000 electrons
 Dipole moment (field-independent basis, Debye):
    X=              0.0000    Y=              0.0000    Z=             -1.8463  Tot=              1.8463
 Quadrupole moment (field-independent basis, Debye-Ang):
   XX=             -5.5033   YY=             -6.8460   ZZ=             -4.7488
   XY=              0.0000   XZ=              0.0000   YZ=              0.0000
 Traceless Quadrupole moment (field-independent basis, Debye-Ang):
   XX=              0.1961   YY=             -1.1466   ZZ=              0.9506
   XY=              0.0000   XZ=              0.0000   YZ=              0.0000
 Octapole moment (field-independent basis, Debye-Ang**2):
  XXX=              0.0000  YYY=              0.0000  ZZZ=             -2.0421  XYY=              0.0000
  XXY=              0.0000  XXZ=             -0.2534  XZZ=              0.0000  YZZ=              0.0000
  YYZ=             -0.3711  XYZ=              0.0000
 Hexadecapole moment (field-independent basis, Debye-Ang**3):
 XXXX=             -4.0040 YYYY=             -6.1701 ZZZZ=             -5.7979 XXXY=              0.0000
 XXXZ=              0.0000 YYYX=              0.0000 YYYZ=              0.0000 ZZZX=              0.0000
 ZZZY=              0.0000 XXYY=             -1.6957 XXZZ=             -1.8531 YYZZ=             -2.2383
 XXYZ=              0.0000 YYXZ=              0.0000 ZZXY=              0.0000
 N-N= 4.409810071583D+00 E-N=-2.774982040126D+02  KE= 1.119847705435D+02
 Symmetry A1   KE= 1.024190967517D+02
 Symmetry A2   KE= 2.135367852267D-35
 Symmetry B1   KE= 2.514719511050D+00
 Symmetry B2   KE= 7.050954280778D+00
                          Isotropic Fermi Contact Couplings
        Atom                 a.u.       MegaHertz       Gauss      10(-4) cm-1
     1  O(17)              0.15358     -93.10032     -33.22051     -31.05492
     2  H(1)              -0.01575     -70.39875     -25.12002     -23.48250
 --------------------------------------------------------
       Center         ----  Spin Dipole Couplings  ----
                      3XX-RR        3YY-RR        3ZZ-RR
 --------------------------------------------------------
     1   Atom        3.759691     -1.877894     -1.881797
     2   Atom       -0.041374     -0.137712      0.179086
 --------------------------------------------------------
                        XY            XZ            YZ
 --------------------------------------------------------
     1   Atom        0.000000      0.000000      0.000000
     2   Atom        0.000000      0.000000      0.000000
 --------------------------------------------------------


 ---------------------------------------------------------------------------------
              Anisotropic Spin Dipole Couplings in Principal Axis System
 ---------------------------------------------------------------------------------

       Atom             a.u.   MegaHertz   Gauss  10(-4) cm-1        Axes

              Baa    -1.8818   136.165    48.587    45.420  0.0000  0.0000  1.0000
     1 O(17)  Bbb    -1.8779   135.883    48.486    45.326  0.0000  1.0000  0.0000
              Bcc     3.7597  -272.049   -97.074   -90.746  1.0000  0.0000  0.0000
 
              Baa    -0.1377   -73.476   -26.218   -24.509  0.0000  1.0000  0.0000
     2 H(1)   Bbb    -0.0414   -22.075    -7.877    -7.363  1.0000  0.0000  0.0000
              Bcc     0.1791    95.552    34.095    31.873  0.0000  0.0000  1.0000
 

 ---------------------------------------------------------------------------------

 Calling FoFJK, ICntrl=      2127 FMM=F ISym2X=1 I1Cent= 0 IOpClX= 1 NMat=1 NMatS=1 NMatT=0.
 ***** Axes restored to original set *****
 -------------------------------------------------------------------
 Center     Atomic                   Forces (Hartrees/Bohr)
 Number     Number              X              Y              Z
 -------------------------------------------------------------------
      1        8          -0.012073907    0.000000000    0.000000000
      2        1           0.012073907    0.000000000    0.000000000
 -------------------------------------------------------------------
 Cartesian Forces:  Max     0.012073907 RMS     0.006970874

 GradGradGradGradGradGradGradGradGradGradGradGradGradGradGradGradGradGrad
 Berny optimization.
 Internal  Forces:  Max     0.012073907 RMS     0.012073907
 Search for a local minimum.
 Step number   1 out of a maximum of   20
 All quantities printed in internal units (Hartrees-Bohrs-Radians)
 Mixed Optimization -- RFO/linear search
 Second derivative matrix not updated -- first step.
 The second derivative matrix:
                          R1
           R1           0.55473
     Eigenvalues ---    0.55473
 RFO step:  Lambda=-2.62666853D-04 EMin= 5.54734036D-01
 Linear search not attempted -- first point.
 Iteration  1 RMS(Cart)=  0.01538305 RMS(Int)=  0.00000000
 Iteration  2 RMS(Cart)=  0.00000000 RMS(Int)=  0.00000000
 ClnCor:  largest displacement from symmetrization is 0.00D+00 for atom     0.
 Variable       Old X    -DE/DX   Delta X   Delta X   Delta X     New X
                                 (Linear)    (Quad)   (Total)
    R1        1.81414   0.01207   0.00000   0.02175   0.02175   1.83589
         Item               Value     Threshold  Converged?
 Maximum Force            0.012074     0.000450     NO 
 RMS     Force            0.012074     0.000300     NO 
 Maximum Displacement     0.010877     0.001800     NO 
 RMS     Displacement     0.015383     0.001200     NO 
 Predicted change in Energy=-1.313956D-04
 GradGradGradGradGradGradGradGradGradGradGradGradGradGradGradGradGradGrad

                          Input orientation:                          
 ---------------------------------------------------------------------
 Center     Atomic      Atomic             Coordinates (Angstroms)
 Number     Number       Type             X           Y           Z
 ---------------------------------------------------------------------
      1          8           0        0.857552    0.413534    0.000000
      2          1           0        1.829064    0.413534    0.000000
 ---------------------------------------------------------------------
 Stoichiometry    HO(2)
 Framework group  C*V[C*(HO)]
 Deg. of freedom     1
 Full point group                 C*V     NOp   4
 Largest Abelian subgroup         C2V     NOp   4
 Largest concise Abelian subgroup C1      NOp   1
                         Standard orientation:                         
 ---------------------------------------------------------------------
 Center     Atomic      Atomic             Coordinates (Angstroms)
 Number     Number       Type             X           Y           Z
 ---------------------------------------------------------------------
      1          8           0        0.000000    0.000000    0.107946
      2          1           0        0.000000    0.000000   -0.863566
 ---------------------------------------------------------------------
 Rotational constants (GHZ):      0.0000000    564.7711563    564.7711563
 Standard basis: 6-311++G(d,p) (5D, 7F)
 There are    16 symmetry adapted basis functions of A1  symmetry.
 There are     1 symmetry adapted basis functions of A2  symmetry.
 There are     6 symmetry adapted basis functions of B1  symmetry.
 There are     6 symmetry adapted basis functions of B2  symmetry.
 Integral buffers will be    262144 words long.
 Raffenetti 2 integral format.
 Two-electron integral symmetry is turned on.
    29 basis functions,    45 primitive gaussians,    30 cartesian basis functions
     5 alpha electrons        4 beta electrons
       nuclear repulsion energy         4.3575547905 Hartrees.
 NAtoms=    2 NActive=    2 NUniq=    2 SFac= 7.50D-01 NAtFMM=   80 NAOKFM=F Big=F
 One-electron integrals computed using PRISM.
 NBasis=    29 RedAO= T  NBF=    16     1     6     6
 NBsUse=    29 1.00D-06 NBFU=    16     1     6     6
 Initial guess read from the read-write file.
 B after Tr=     0.000000    0.000000    0.000000
         Rot=    1.000000    0.000000    0.000000    0.000000 Ang=   0.00 deg.
 Initial guess orbital symmetries:
 Alpha Orbitals:
       Occupied  (SG) (SG) (SG) (PI) (PI)
       Virtual   (SG) (SG) (PI) (PI) (SG) (SG) (SG) (PI) (SG) (PI)
                 (SG) (PI) (PI) (SG) (SG) (DLTA) (DLTA) (PI) (PI)
                 (SG) (PI) (PI) (SG) (SG)
 Beta  Orbitals:
       Occupied  (SG) (SG) (SG) (?A)
       Virtual   (?A) (SG) (SG) (?A) (?A) (SG) (SG) (SG) (SG) (?A)
                 (?A) (SG) (PI) (PI) (SG) (SG) (DLTA) (DLTA) (PI)
                 (PI) (SG) (PI) (PI) (SG) (SG)
 Initial guess <Sx>= 0.0000 <Sy>= 0.0000 <Sz>= 0.5000 <S**2>= 0.7527 S= 0.5013
 Requested convergence on RMS density matrix=1.00D-08 within 128 cycles.
 Requested convergence on MAX density matrix=1.00D-06.
 Requested convergence on             energy=1.00D-06.
 No special actions if energy rises.
 Keep R1 and R2 ints in memory in canonical form, NReq=1110557.
 SCF Done:  E(UM062X) =  -75.7265744178     A.U. after    9 cycles
             Convg  =    0.1361D-08             -V/T =  2.0021
 <Sx>= 0.0000 <Sy>= 0.0000 <Sz>= 0.5000 <S**2>= 0.7527 S= 0.5014
 <L.S>= 0.000000000000E+00
 Annihilation of the first spin contaminant:
 S**2 before annihilation     0.7527,   after     0.7500
 Calling FoFJK, ICntrl=      2127 FMM=F ISym2X=1 I1Cent= 0 IOpClX= 1 NMat=1 NMatS=1 NMatT=0.
 ***** Axes restored to original set *****
 -------------------------------------------------------------------
 Center     Atomic                   Forces (Hartrees/Bohr)
 Number     Number              X              Y              Z
 -------------------------------------------------------------------
      1        8          -0.000482321    0.000000000    0.000000000
      2        1           0.000482321    0.000000000    0.000000000
 -------------------------------------------------------------------
 Cartesian Forces:  Max     0.000482321 RMS     0.000278468

 GradGradGradGradGradGradGradGradGradGradGradGradGradGradGradGradGradGrad
 Berny optimization.
 Using GEDIIS/GDIIS optimizer.
 Internal  Forces:  Max     0.000482321 RMS     0.000482321
 Search for a local minimum.
 Step number   2 out of a maximum of   20
 All quantities printed in internal units (Hartrees-Bohrs-Radians)
 Mixed Optimization -- En-DIIS/RFO-DIIS
 Update second derivatives using D2CorX and points    1    2
 DE= -1.35D-04 DEPred=-1.31D-04 R= 1.03D+00
 SS=  1.41D+00  RLast= 2.18D-02 DXNew= 5.0454D-01 6.5265D-02
 Trust test= 1.03D+00 RLast= 2.18D-02 DXMaxT set to 3.00D-01
 The second derivative matrix:
                          R1
           R1           0.53283
 Use linear search instead of GDIIS.
     Eigenvalues ---    0.53283
 RFO step:  Lambda= 0.00000000D+00 EMin= 5.32826017D-01
 Quartic linear search produced a step of  0.04353.
 Iteration  1 RMS(Cart)=  0.00066958 RMS(Int)=  0.00000000
 Iteration  2 RMS(Cart)=  0.00000000 RMS(Int)=  0.00000000
 ClnCor:  largest displacement from symmetrization is 0.00D+00 for atom     0.
 Variable       Old X    -DE/DX   Delta X   Delta X   Delta X     New X
                                 (Linear)    (Quad)   (Total)
    R1        1.83589   0.00048   0.00095   0.00000   0.00095   1.83684
         Item               Value     Threshold  Converged?
 Maximum Force            0.000482     0.000450     NO 
 RMS     Force            0.000482     0.000300     NO 
 Maximum Displacement     0.000473     0.001800     YES
 RMS     Displacement     0.000670     0.001200     YES
 Predicted change in Energy=-2.178383D-07
 GradGradGradGradGradGradGradGradGradGradGradGradGradGradGradGradGradGrad

                          Input orientation:                          
 ---------------------------------------------------------------------
 Center     Atomic      Atomic             Coordinates (Angstroms)
 Number     Number       Type             X           Y           Z
 ---------------------------------------------------------------------
      1          8           0        0.857302    0.413534    0.000000
      2          1           0        1.829315    0.413534    0.000000
 ---------------------------------------------------------------------
 Stoichiometry    HO(2)
 Framework group  C*V[C*(HO)]
 Deg. of freedom     1
 Full point group                 C*V     NOp   4
 Largest Abelian subgroup         C2V     NOp   4
 Largest concise Abelian subgroup C1      NOp   1
                         Standard orientation:                         
 ---------------------------------------------------------------------
 Center     Atomic      Atomic             Coordinates (Angstroms)
 Number     Number       Type             X           Y           Z
 ---------------------------------------------------------------------
      1          8           0        0.000000    0.000000    0.108001
      2          1           0        0.000000    0.000000   -0.864012
 ---------------------------------------------------------------------
 Rotational constants (GHZ):      0.0000000    564.1890023    564.1890023
 Standard basis: 6-311++G(d,p) (5D, 7F)
 There are    16 symmetry adapted basis functions of A1  symmetry.
 There are     1 symmetry adapted basis functions of A2  symmetry.
 There are     6 symmetry adapted basis functions of B1  symmetry.
 There are     6 symmetry adapted basis functions of B2  symmetry.
 Integral buffers will be    262144 words long.
 Raffenetti 2 integral format.
 Two-electron integral symmetry is turned on.
    29 basis functions,    45 primitive gaussians,    30 cartesian basis functions
     5 alpha electrons        4 beta electrons
       nuclear repulsion energy         4.3553083744 Hartrees.
 NAtoms=    2 NActive=    2 NUniq=    2 SFac= 7.50D-01 NAtFMM=   80 NAOKFM=F Big=F
 One-electron integrals computed using PRISM.
 NBasis=    29 RedAO= T  NBF=    16     1     6     6
 NBsUse=    29 1.00D-06 NBFU=    16     1     6     6
 Initial guess read from the read-write file.
 B after Tr=     0.000000    0.000000    0.000000
         Rot=    1.000000    0.000000    0.000000    0.000000 Ang=   0.00 deg.
 Initial guess orbital symmetries:
 Alpha Orbitals:
       Occupied  (SG) (SG) (SG) (PI) (PI)
       Virtual   (SG) (SG) (PI) (PI) (SG) (SG) (SG) (PI) (SG) (PI)
                 (SG) (PI) (PI) (SG) (SG) (DLTA) (DLTA) (PI) (PI)
                 (SG) (PI) (PI) (SG) (SG)
 Beta  Orbitals:
       Occupied  (SG) (SG) (SG) (?A)
       Virtual   (?A) (SG) (SG) (?A) (?A) (SG) (SG) (SG) (SG) (?A)
                 (?A) (PI) (SG) (PI) (SG) (SG) (DLTA) (DLTA) (PI)
                 (PI) (SG) (PI) (PI) (SG) (SG)
 Initial guess <Sx>= 0.0000 <Sy>= 0.0000 <Sz>= 0.5000 <S**2>= 0.7527 S= 0.5014
 Requested convergence on RMS density matrix=1.00D-08 within 128 cycles.
 Requested convergence on MAX density matrix=1.00D-06.
 Requested convergence on             energy=1.00D-06.
 No special actions if energy rises.
 Keep R1 and R2 ints in memory in canonical form, NReq=1110557.
 SCF Done:  E(UM062X) =  -75.7265746458     A.U. after    6 cycles
             Convg  =    0.9911D-08             -V/T =  2.0021
 <Sx>= 0.0000 <Sy>= 0.0000 <Sz>= 0.5000 <S**2>= 0.7527 S= 0.5014
 <L.S>= 0.000000000000E+00
 Annihilation of the first spin contaminant:
 S**2 before annihilation     0.7527,   after     0.7500
 Calling FoFJK, ICntrl=      2127 FMM=F ISym2X=1 I1Cent= 0 IOpClX= 1 NMat=1 NMatS=1 NMatT=0.
 ***** Axes restored to original set *****
 -------------------------------------------------------------------
 Center     Atomic                   Forces (Hartrees/Bohr)
 Number     Number              X              Y              Z
 -------------------------------------------------------------------
      1        8           0.000000481    0.000000000    0.000000000
      2        1          -0.000000481    0.000000000    0.000000000
 -------------------------------------------------------------------
 Cartesian Forces:  Max     0.000000481 RMS     0.000000278

 GradGradGradGradGradGradGradGradGradGradGradGradGradGradGradGradGradGrad
 Berny optimization.
 Using GEDIIS/GDIIS optimizer.
 Internal  Forces:  Max     0.000000481 RMS     0.000000481
 Search for a local minimum.
 Step number   3 out of a maximum of   20
 All quantities printed in internal units (Hartrees-Bohrs-Radians)
 Mixed Optimization -- En-DIIS/RFO-DIIS
 Swaping is turned off.
 Update second derivatives using D2CorX and points    3
 DE= -2.28D-07 DEPred=-2.18D-07 R= 1.05D+00
 Trust test= 1.05D+00 RLast= 9.47D-04 DXMaxT set to 3.00D-01
 The second derivative matrix:
                          R1
           R1           0.53283
     Eigenvalues ---    0.53283
 En-DIIS/RFO-DIIS IScMMF=        0 using points:     3    2
 RFO step:  Lambda=-3.16580095D-13.
 Iteration  1 RMS(Cart)=  0.00000064 RMS(Int)=  0.00000000
 ClnCor:  largest displacement from symmetrization is 0.00D+00 for atom     0.
 Variable       Old X    -DE/DX   Delta X   Delta X   Delta X     New X
                                  (DIIS)     (GDIIS)  (Total)
    R1        1.83684   0.00000   0.00000   0.00000   0.00000   1.83684
         Item               Value     Threshold  Converged?
 Maximum Force            0.000000     0.000450     YES
 RMS     Force            0.000000     0.000300     YES
 Maximum Displacement     0.000000     0.001800     YES
 RMS     Displacement     0.000001     0.001200     YES
 Predicted change in Energy=-2.168666D-13
 Optimization completed.
    -- Stationary point found.
                           ----------------------------
                           !   Optimized Parameters   !
                           ! (Angstroms and Degrees)  !
 --------------------------                            --------------------------
 ! Name  Definition              Value          Derivative Info.                !
 --------------------------------------------------------------------------------
 ! R1    R(1,2)                  0.972          -DE/DX =    0.0                 !
 --------------------------------------------------------------------------------
 GradGradGradGradGradGradGradGradGradGradGradGradGradGradGradGradGradGrad

                          Input orientation:                          
 ---------------------------------------------------------------------
 Center     Atomic      Atomic             Coordinates (Angstroms)
 Number     Number       Type             X           Y           Z
 ---------------------------------------------------------------------
      1          8           0        0.857302    0.413534    0.000000
      2          1           0        1.829315    0.413534    0.000000
 ---------------------------------------------------------------------
 Stoichiometry    HO(2)
 Framework group  C*V[C*(HO)]
 Deg. of freedom     1
 Full point group                 C*V     NOp   4
 Largest Abelian subgroup         C2V     NOp   4
 Largest concise Abelian subgroup C1      NOp   1
                         Standard orientation:                         
 ---------------------------------------------------------------------
 Center     Atomic      Atomic             Coordinates (Angstroms)
 Number     Number       Type             X           Y           Z
 ---------------------------------------------------------------------
      1          8           0        0.000000    0.000000    0.108001
      2          1           0        0.000000    0.000000   -0.864012
 ---------------------------------------------------------------------
 Rotational constants (GHZ):      0.0000000    564.1890023    564.1890023

 **********************************************************************

            Population analysis using the SCF density.

 **********************************************************************

 Orbital symmetries:
 Alpha Orbitals:
       Occupied  (SG) (SG) (SG) (PI) (PI)
       Virtual   (SG) (SG) (PI) (PI) (SG) (SG) (SG) (PI) (SG) (PI)
                 (SG) (PI) (PI) (SG) (SG) (DLTA) (DLTA) (PI) (PI)
                 (SG) (PI) (PI) (SG) (SG)
 Beta  Orbitals:
       Occupied  (SG) (SG) (SG) (?A)
       Virtual   (?A) (SG) (SG) (?A) (?A) (SG) (SG) (SG) (SG) (?A)
                 (?A) (PI) (SG) (PI) (SG) (SG) (DLTA) (DLTA) (PI)
                 (PI) (SG) (PI) (PI) (SG) (SG)
 Unable to determine electronic state:  an orbital has unidentified symmetry.
 Alpha  occ. eigenvalues --  -19.69515  -1.14846  -0.56772  -0.50627  -0.44200
 Alpha virt. eigenvalues --   -0.00362   0.15494   0.16670   0.17225   0.17863
 Alpha virt. eigenvalues --    0.23917   0.54102   1.00019   1.01748   1.04200
 Alpha virt. eigenvalues --    1.34660   1.35620   1.36983   2.04261   2.47879
 Alpha virt. eigenvalues --    2.81805   2.81810   3.10393   3.14899   3.80315
 Alpha virt. eigenvalues --    4.93214   4.99948   5.46359  49.86927
  Beta  occ. eigenvalues --  -19.67901  -1.06508  -0.53491  -0.40505
  Beta virt. eigenvalues --   -0.10730  -0.00286   0.16146   0.17681   0.17790
  Beta virt. eigenvalues --    0.17792   0.22104   0.54829   1.02533   1.05288
  Beta virt. eigenvalues --    1.05462   1.37058   1.37109   1.37501   2.05959
  Beta virt. eigenvalues --    2.47995   2.87773   2.91349   3.15432   3.16715
  Beta virt. eigenvalues --    3.84328   5.01325   5.03561   5.48714  49.86466
          Condensed to atoms (all electrons):
              1          2
     1  O    7.994837   0.252845
     2  H    0.252845   0.499472
 Mulliken atomic charges:
              1
     1  O   -0.247683
     2  H    0.247683
 Sum of Mulliken atomic charges =   0.00000
 Mulliken charges with hydrogens summed into heavy atoms:
              1
     1  O    0.000000
 Sum of Mulliken charges with hydrogens summed into heavy atoms =   0.00000
          Atomic-Atomic Spin Densities.
              1          2
     1  O    1.015926   0.009535
     2  H    0.009535  -0.034995
 Mulliken atomic spin densities:
              1
     1  O    1.025461
     2  H   -0.025461
 Sum of Mulliken atomic spin densities =   1.00000
 Electronic spatial extent (au):  <R**2>=             15.7150
 Charge=              0.0000 electrons
 Dipole moment (field-independent basis, Debye):
    X=              0.0000    Y=              0.0000    Z=             -1.8549  Tot=              1.8549
 Quadrupole moment (field-independent basis, Debye-Ang):
   XX=             -5.5157   YY=             -6.8596   ZZ=             -4.7281
   XY=              0.0000   XZ=              0.0000   YZ=              0.0000
 Traceless Quadrupole moment (field-independent basis, Debye-Ang):
   XX=              0.1855   YY=             -1.1585   ZZ=              0.9731
   XY=              0.0000   XZ=              0.0000   YZ=              0.0000
 Octapole moment (field-independent basis, Debye-Ang**2):
  XXX=              0.0000  YYY=              0.0000  ZZZ=             -2.0715  XYY=              0.0000
  XXY=              0.0000  XXZ=             -0.2453  XZZ=              0.0000  YZZ=              0.0000
  YYZ=             -0.3654  XYZ=              0.0000
 Hexadecapole moment (field-independent basis, Debye-Ang**3):
 XXXX=             -4.0187 YYYY=             -6.1892 ZZZZ=             -5.8442 XXXY=              0.0000
 XXXZ=              0.0000 YYYX=              0.0000 YYYZ=              0.0000 ZZZX=              0.0000
 ZZZY=              0.0000 XXYY=             -1.7013 XXZZ=             -1.8745 YYZZ=             -2.2607
 XXYZ=              0.0000 YYXZ=              0.0000 ZZXY=              0.0000
 N-N= 4.355308374408D+00 E-N=-2.773229465969D+02  KE= 1.119512842597D+02
 Symmetry A1   KE= 1.023843128719D+02
 Symmetry A2   KE= 2.131794047686D-35
 Symmetry B1   KE= 2.515396036641D+00
 Symmetry B2   KE= 7.051575351191D+00
                          Isotropic Fermi Contact Couplings
        Atom                 a.u.       MegaHertz       Gauss      10(-4) cm-1
     1  O(17)              0.15231     -92.33124     -32.94608     -30.79838
     2  H(1)              -0.01586     -70.89043     -25.29547     -23.64650
 --------------------------------------------------------
       Center         ----  Spin Dipole Couplings  ----
                      3XX-RR        3YY-RR        3ZZ-RR
 --------------------------------------------------------
     1   Atom        3.759577     -1.879976     -1.879600
     2   Atom       -0.041855     -0.133781      0.175636
 --------------------------------------------------------
                        XY            XZ            YZ
 --------------------------------------------------------
     1   Atom        0.000000      0.000000      0.000000
     2   Atom        0.000000      0.000000      0.000000
 --------------------------------------------------------


 ---------------------------------------------------------------------------------
              Anisotropic Spin Dipole Couplings in Principal Axis System
 ---------------------------------------------------------------------------------

       Atom             a.u.   MegaHertz   Gauss  10(-4) cm-1        Axes

              Baa    -1.8800   136.034    48.540    45.376  0.0000  1.0000  0.0000
     1 O(17)  Bbb    -1.8796   136.007    48.531    45.367  0.0000  0.0000  1.0000
              Bcc     3.7596  -272.040   -97.071   -90.743  1.0000  0.0000  0.0000
 
              Baa    -0.1338   -71.379   -25.470   -23.810  0.0000  1.0000  0.0000
     2 H(1)   Bbb    -0.0419   -22.332    -7.969    -7.449  1.0000  0.0000  0.0000
              Bcc     0.1756    93.711    33.438    31.259  0.0000  0.0000  1.0000
 

 ---------------------------------------------------------------------------------

 1|1|UNPC-DESKTOP-319GPER|FOpt|UM062X|6-311++G(d,p)|H1O1(2)|SAGAD|09-Oc
 t-2020|0||#opt freq M062X/6-311++g(d,p)||Calculation of hidrixil radic
 al with M062X with 6-311++g(d,p)||0,2|O,0.8573016496,0.41353383,0.|H,1
 .8293149504,0.41353383,0.||Version=IA32W-G09RevA.02|HF=-75.7265746|S2=
 0.752708|S2-1=0.|S2A=0.750005|RMSD=9.911e-009|RMSF=2.776e-007|Dipole=0
 .7297846,0.,0.|Quadrupole=0.7234402,-0.8613215,0.1378813,0.,0.,0.|PG=C
 *V [C*(H1O1)]||@


 ONE OF THE BENEFITS OF A COLLEGE EDUCATION
 IS TO SHOW THE BOY ITS LITTLE AVAIL 
                                    EMERSON IN 'CULTURE'
 Job cpu time:  0 days  0 hours  0 minutes  7.0 seconds.
 File lengths (MBytes):  RWF=      5 Int=      0 D2E=      0 Chk=      1 Scr=      1
 Normal termination of Gaussian 09 at Fri Oct 09 00:02:46 2020.
 Link1:  Proceeding to internal job step number  2.
 ----------------------------------------------------------------------
 #N Geom=AllCheck Guess=TCheck SCRF=Check GenChk UM062X/6-311++G(d,p) F
 req
 ----------------------------------------------------------------------
 1/10=4,29=7,30=1,38=1,40=1/1,3;
 2/12=2,40=1/2;
 3/5=4,6=6,7=1111,11=2,14=-4,16=1,25=1,30=1,70=2,71=2,74=-55,116=2/1,2,3;
 4/5=101/1;
 5/5=2,98=1/2;
 8/6=4,10=90,11=11/1;
 11/6=1,8=1,9=11,15=111,16=1/1,2,10;
 10/6=1/2;
 6/7=2,8=2,9=2,10=2,18=1,28=1/1;
 7/8=1,10=1,25=1/1,2,3,16;
 1/10=4,30=1/3;
 99//99;
 -------------------------------------------------------------
 Calculation of hidrixil radical with M062X with 6-311++g(d,p)
 -------------------------------------------------------------
 Redundant internal coordinates taken from checkpoint file:
 C:\Users\sagad\Documents\rayGit\FQ\quimicaComputacional\class4Metilo\reactivos\hidroxilRadicalM062XTwo.chk
 Charge =  0 Multiplicity = 2
 O,0,0.8573016496,0.41353383,0.
 H,0,1.8293149504,0.41353383,0.
 Recover connectivity data from disk.

 GradGradGradGradGradGradGradGradGradGradGradGradGradGradGradGradGradGrad
 Berny optimization.
 Initialization pass.
                           ----------------------------
                           !    Initial Parameters    !
                           ! (Angstroms and Degrees)  !
 --------------------------                            --------------------------
 ! Name  Definition              Value          Derivative Info.                !
 --------------------------------------------------------------------------------
 ! R1    R(1,2)                  0.972          calculate D2E/DX2 analytically  !
 --------------------------------------------------------------------------------
 Trust Radius=3.00D-01 FncErr=1.00D-07 GrdErr=1.00D-07
 Number of steps in this run=   2 maximum allowed number of steps=   2.
 GradGradGradGradGradGradGradGradGradGradGradGradGradGradGradGradGradGrad

                          Input orientation:                          
 ---------------------------------------------------------------------
 Center     Atomic      Atomic             Coordinates (Angstroms)
 Number     Number       Type             X           Y           Z
 ---------------------------------------------------------------------
      1          8           0        0.857302    0.413534    0.000000
      2          1           0        1.829315    0.413534    0.000000
 ---------------------------------------------------------------------
 Stoichiometry    HO(2)
 Framework group  C*V[C*(HO)]
 Deg. of freedom     1
 Full point group                 C*V     NOp   4
 Largest Abelian subgroup         C2V     NOp   4
 Largest concise Abelian subgroup C1      NOp   1
                         Standard orientation:                         
 ---------------------------------------------------------------------
 Center     Atomic      Atomic             Coordinates (Angstroms)
 Number     Number       Type             X           Y           Z
 ---------------------------------------------------------------------
      1          8           0        0.000000    0.000000    0.108001
      2          1           0        0.000000    0.000000   -0.864012
 ---------------------------------------------------------------------
 Rotational constants (GHZ):      0.0000000    564.1890023    564.1890023
 Standard basis: 6-311++G(d,p) (5D, 7F)
 There are    16 symmetry adapted basis functions of A1  symmetry.
 There are     1 symmetry adapted basis functions of A2  symmetry.
 There are     6 symmetry adapted basis functions of B1  symmetry.
 There are     6 symmetry adapted basis functions of B2  symmetry.
 Integral buffers will be    262144 words long.
 Raffenetti 2 integral format.
 Two-electron integral symmetry is turned on.
    29 basis functions,    45 primitive gaussians,    30 cartesian basis functions
     5 alpha electrons        4 beta electrons
       nuclear repulsion energy         4.3553083744 Hartrees.
 NAtoms=    2 NActive=    2 NUniq=    2 SFac= 7.50D-01 NAtFMM=   80 NAOKFM=F Big=F
 One-electron integrals computed using PRISM.
 NBasis=    29 RedAO= T  NBF=    16     1     6     6
 NBsUse=    29 1.00D-06 NBFU=    16     1     6     6
 Initial guess read from the checkpoint file:  C:\Users\sagad\Documents\rayGit\FQ
 \quimicaComputacional\class4Metilo\reactivos\hidroxilRadicalM062XTwo.chk
 B after Tr=     0.000000    0.000000    0.000000
         Rot=    1.000000    0.000000    0.000000    0.000000 Ang=   0.00 deg.
 Initial guess orbital symmetries:
 Alpha Orbitals:
       Occupied  (SG) (SG) (SG) (PI) (PI)
       Virtual   (SG) (SG) (PI) (PI) (SG) (SG) (SG) (PI) (SG) (PI)
                 (SG) (PI) (PI) (SG) (SG) (DLTA) (DLTA) (PI) (PI)
                 (SG) (PI) (PI) (SG) (SG)
 Beta  Orbitals:
       Occupied  (SG) (SG) (SG) (?A)
       Virtual   (?A) (SG) (SG) (?A) (?A) (SG) (SG) (SG) (SG) (?A)
                 (?A) (PI) (SG) (PI) (SG) (SG) (DLTA) (DLTA) (PI)
                 (PI) (SG) (PI) (PI) (SG) (SG)
 Initial guess <Sx>= 0.0000 <Sy>= 0.0000 <Sz>= 0.5000 <S**2>= 0.7527 S= 0.5014
 Requested convergence on RMS density matrix=1.00D-08 within 128 cycles.
 Requested convergence on MAX density matrix=1.00D-06.
 Requested convergence on             energy=1.00D-06.
 No special actions if energy rises.
 Keep R1 and R2 ints in memory in canonical form, NReq=1110557.
 SCF Done:  E(UM062X) =  -75.7265746458     A.U. after    1 cycles
             Convg  =    0.2301D-08             -V/T =  2.0021
 <Sx>= 0.0000 <Sy>= 0.0000 <Sz>= 0.5000 <S**2>= 0.7527 S= 0.5014
 <L.S>= 0.000000000000E+00
 Annihilation of the first spin contaminant:
 S**2 before annihilation     0.7527,   after     0.7500
 Range of M.O.s used for correlation:     1    29
 NBasis=    29 NAE=     5 NBE=     4 NFC=     0 NFV=     0
 NROrb=     29 NOA=     5 NOB=     4 NVA=    24 NVB=    25
 Symmetrizing basis deriv contribution to polar:
 IMax=3 JMax=2 DiffMx= 0.00D+00
 G2DrvN: will do     3 centers at a time, making    1 passes doing MaxLOS=2.
 Calling FoFCou, ICntrl=  3107 FMM=F I1Cent=   0 AccDes= 0.00D+00.
 FoFDir/FoFCou used for L=0 through L=2.
 End of G2Drv Frequency-dependent properties file   721 does not exist.
 End of G2Drv Frequency-dependent properties file   722 does not exist.
          IDoAtm=11
          Differentiating once with respect to electric field.
                with respect to dipole field.
          Differentiating once with respect to nuclear coordinates.
          Keep R1 and R2 ints in memory in canonical form, NReq=1037352.
          There are     9 degrees of freedom in the 1st order CPHF.  IDoFFX=5.
      6 vectors produced by pass  0 Test12= 2.44D-15 1.11D-08 XBig12= 4.36D+00 8.82D-01.
 AX will form     6 AO Fock derivatives at one time.
      6 vectors produced by pass  1 Test12= 2.44D-15 1.11D-08 XBig12= 4.01D-01 2.30D-01.
      6 vectors produced by pass  2 Test12= 2.44D-15 1.11D-08 XBig12= 7.78D-03 2.90D-02.
      6 vectors produced by pass  3 Test12= 2.44D-15 1.11D-08 XBig12= 4.38D-05 2.72D-03.
      6 vectors produced by pass  4 Test12= 2.44D-15 1.11D-08 XBig12= 5.62D-07 2.54D-04.
      6 vectors produced by pass  5 Test12= 2.44D-15 1.11D-08 XBig12= 5.01D-09 2.97D-05.
      6 vectors produced by pass  6 Test12= 2.44D-15 1.11D-08 XBig12= 5.63D-11 2.71D-06.
      3 vectors produced by pass  7 Test12= 2.44D-15 1.11D-08 XBig12= 5.88D-13 3.37D-07.
      1 vectors produced by pass  8 Test12= 2.44D-15 1.11D-08 XBig12= 7.58D-15 3.96D-08.
 Inverted reduced A of dimension    46 with in-core refinement.
 Isotropic polarizability for W=    0.000000        4.87 Bohr**3.
 End of Minotr Frequency-dependent properties file   721 does not exist.
 End of Minotr Frequency-dependent properties file   722 does not exist.

 **********************************************************************

            Population analysis using the SCF density.

 **********************************************************************

 Orbital symmetries:
 Alpha Orbitals:
       Occupied  (SG) (SG) (SG) (PI) (PI)
       Virtual   (SG) (SG) (PI) (PI) (SG) (SG) (SG) (PI) (SG) (PI)
                 (SG) (PI) (PI) (SG) (SG) (DLTA) (DLTA) (PI) (PI)
                 (SG) (PI) (PI) (SG) (SG)
 Beta  Orbitals:
       Occupied  (SG) (SG) (SG) (?A)
       Virtual   (?A) (SG) (SG) (?A) (?A) (SG) (SG) (SG) (SG) (?A)
                 (?A) (PI) (SG) (PI) (SG) (SG) (DLTA) (DLTA) (PI)
                 (PI) (SG) (PI) (PI) (SG) (SG)
 Unable to determine electronic state:  an orbital has unidentified symmetry.
 Alpha  occ. eigenvalues --  -19.69515  -1.14846  -0.56772  -0.50627  -0.44200
 Alpha virt. eigenvalues --   -0.00362   0.15494   0.16670   0.17225   0.17863
 Alpha virt. eigenvalues --    0.23917   0.54102   1.00019   1.01748   1.04200
 Alpha virt. eigenvalues --    1.34660   1.35620   1.36983   2.04261   2.47879
 Alpha virt. eigenvalues --    2.81805   2.81810   3.10393   3.14899   3.80315
 Alpha virt. eigenvalues --    4.93214   4.99948   5.46359  49.86927
  Beta  occ. eigenvalues --  -19.67901  -1.06508  -0.53491  -0.40505
  Beta virt. eigenvalues --   -0.10730  -0.00286   0.16146   0.17681   0.17790
  Beta virt. eigenvalues --    0.17792   0.22104   0.54829   1.02533   1.05288
  Beta virt. eigenvalues --    1.05462   1.37058   1.37109   1.37501   2.05959
  Beta virt. eigenvalues --    2.47995   2.87773   2.91349   3.15432   3.16715
  Beta virt. eigenvalues --    3.84328   5.01325   5.03561   5.48714  49.86466
          Condensed to atoms (all electrons):
              1          2
     1  O    7.994837   0.252845
     2  H    0.252845   0.499472
 Mulliken atomic charges:
              1
     1  O   -0.247683
     2  H    0.247683
 Sum of Mulliken atomic charges =   0.00000
 Mulliken charges with hydrogens summed into heavy atoms:
              1
     1  O    0.000000
 Sum of Mulliken charges with hydrogens summed into heavy atoms =   0.00000
          Atomic-Atomic Spin Densities.
              1          2
     1  O    1.015926   0.009535
     2  H    0.009535  -0.034995
 Mulliken atomic spin densities:
              1
     1  O    1.025461
     2  H   -0.025461
 Sum of Mulliken atomic spin densities =   1.00000
 APT atomic charges:
              1
     1  O   -0.315642
     2  H    0.315642
 Sum of APT charges=   0.00000
 APT Atomic charges with hydrogens summed into heavy atoms:
              1
     1  O    0.000000
     2  H    0.000000
 Sum of APT charges=   0.00000
 Electronic spatial extent (au):  <R**2>=             15.7150
 Charge=              0.0000 electrons
 Dipole moment (field-independent basis, Debye):
    X=              0.0000    Y=              0.0000    Z=             -1.8549  Tot=              1.8549
 Quadrupole moment (field-independent basis, Debye-Ang):
   XX=             -5.5157   YY=             -6.8596   ZZ=             -4.7281
   XY=              0.0000   XZ=              0.0000   YZ=              0.0000
 Traceless Quadrupole moment (field-independent basis, Debye-Ang):
   XX=              0.1855   YY=             -1.1585   ZZ=              0.9731
   XY=              0.0000   XZ=              0.0000   YZ=              0.0000
 Octapole moment (field-independent basis, Debye-Ang**2):
  XXX=              0.0000  YYY=              0.0000  ZZZ=             -2.0715  XYY=              0.0000
  XXY=              0.0000  XXZ=             -0.2453  XZZ=              0.0000  YZZ=              0.0000
  YYZ=             -0.3654  XYZ=              0.0000
 Hexadecapole moment (field-independent basis, Debye-Ang**3):
 XXXX=             -4.0187 YYYY=             -6.1892 ZZZZ=             -5.8442 XXXY=              0.0000
 XXXZ=              0.0000 YYYX=              0.0000 YYYZ=              0.0000 ZZZX=              0.0000
 ZZZY=              0.0000 XXYY=             -1.7013 XXZZ=             -1.8745 YYZZ=             -2.2607
 XXYZ=              0.0000 YYXZ=              0.0000 ZZXY=              0.0000
 N-N= 4.355308374408D+00 E-N=-2.773229462622D+02  KE= 1.119512841048D+02
 Symmetry A1   KE= 1.023843127394D+02
 Symmetry A2   KE= 2.131793868500D-35
 Symmetry B1   KE= 2.515396072612D+00
 Symmetry B2   KE= 7.051575292837D+00
  Exact polarizability:   3.460   0.000   4.275   0.000   0.000   6.873
 Approx polarizability:   2.948   0.000   3.599   0.000   0.000   6.872
                          Isotropic Fermi Contact Couplings
        Atom                 a.u.       MegaHertz       Gauss      10(-4) cm-1
     1  O(17)              0.15231     -92.33129     -32.94610     -30.79840
     2  H(1)              -0.01586     -70.89064     -25.29554     -23.64657
 --------------------------------------------------------
       Center         ----  Spin Dipole Couplings  ----
                      3XX-RR        3YY-RR        3ZZ-RR
 --------------------------------------------------------
     1   Atom        3.759576     -1.879976     -1.879600
     2   Atom       -0.041855     -0.133781      0.175636
 --------------------------------------------------------
                        XY            XZ            YZ
 --------------------------------------------------------
     1   Atom        0.000000      0.000000      0.000000
     2   Atom        0.000000      0.000000      0.000000
 --------------------------------------------------------


 ---------------------------------------------------------------------------------
              Anisotropic Spin Dipole Couplings in Principal Axis System
 ---------------------------------------------------------------------------------

       Atom             a.u.   MegaHertz   Gauss  10(-4) cm-1        Axes

              Baa    -1.8800   136.034    48.540    45.376  0.0000  1.0000  0.0000
     1 O(17)  Bbb    -1.8796   136.007    48.531    45.367  0.0000  0.0000  1.0000
              Bcc     3.7596  -272.040   -97.071   -90.743  1.0000  0.0000  0.0000
 
              Baa    -0.1338   -71.379   -25.470   -23.810  0.0000  1.0000  0.0000
     2 H(1)   Bbb    -0.0419   -22.332    -7.969    -7.449  1.0000  0.0000  0.0000
              Bcc     0.1756    93.711    33.438    31.259  0.0000  0.0000  1.0000
 

 ---------------------------------------------------------------------------------

 Calling FoFJK, ICntrl=    100127 FMM=F ISym2X=1 I1Cent= 0 IOpClX= 1 NMat=1 NMatS=1 NMatT=0.
 Full mass-weighted force constant matrix:
 Low frequencies ---  -62.7420   -0.0022   -0.0020   -0.0008   87.0155 3766.8198
 Diagonal vibrational polarizability:
        0.0000000       0.0000000       0.0435133
 Harmonic frequencies (cm**-1), IR intensities (KM/Mole), Raman scattering
 activities (A**4/AMU), depolarization ratios for plane and unpolarized
 incident light, reduced masses (AMU), force constants (mDyne/A),
 and normal coordinates:
                     1
                    SG
 Frequencies --  3766.8198
 Red. masses --     1.0671
 Frc consts  --     8.9207
 IR Inten    --    22.9424
  Atom  AN      X      Y      Z
     1   8     0.00   0.00   0.06
     2   1     0.00   0.00  -1.00

 -------------------
 - Thermochemistry -
 -------------------
 Temperature   298.150 Kelvin.  Pressure   1.00000 Atm.
 Atom     1 has atomic number  8 and mass  15.99491
 Atom     2 has atomic number  1 and mass   1.00783
 Molecular mass:    17.00274 amu.
 Principal axes and moments of inertia in atomic units:
                           1         2         3
     Eigenvalues --     0.00000   3.19882   3.19882
           X            0.00000   0.00000   1.00000
           Y            0.00000   1.00000   0.00000
           Z            1.00000   0.00000   0.00000
 This molecule is a prolate symmetric top.
 Rotational symmetry number  1.
 Rotational temperature (Kelvin)     27.07677
 Rotational constant (GHZ):         564.189002
 Zero-point vibrational energy      22530.6 (Joules/Mol)
                                    5.38494 (Kcal/Mol)
 Vibrational temperatures:   5419.61
          (Kelvin)
 
 Zero-point correction=                           0.008581 (Hartree/Particle)
 Thermal correction to Energy=                    0.010942
 Thermal correction to Enthalpy=                  0.011886
 Thermal correction to Gibbs Free Energy=        -0.008340
 Sum of electronic and zero-point Energies=            -75.717993
 Sum of electronic and thermal Energies=               -75.715633
 Sum of electronic and thermal Enthalpies=             -75.714689
 Sum of electronic and thermal Free Energies=          -75.734914
 
                     E (Thermal)             CV                S
                      KCal/Mol        Cal/Mol-Kelvin    Cal/Mol-Kelvin
 Total                    6.866              4.968             42.568
 Electronic               0.000              0.000              1.377
 Translational            0.889              2.981             34.437
 Rotational               0.592              1.987              6.754
 Vibrational              5.385              0.000              0.000
                       Q            Log10(Q)             Ln(Q)
 Total Bot       0.685359D+04          3.835918          8.832528
 Total V=0       0.606878D+08          7.783102         17.921254
 Vib (Bot)       0.112932D-03         -3.947183         -9.088725
 Vib (V=0)       0.100000D+01          0.000000          0.000000
 Electronic      0.200000D+01          0.301030          0.693147
 Translational   0.275571D+07          6.440234         14.829186
 Rotational      0.110113D+02          1.041838          2.398921
 ***** Axes restored to original set *****
 -------------------------------------------------------------------
 Center     Atomic                   Forces (Hartrees/Bohr)
 Number     Number              X              Y              Z
 -------------------------------------------------------------------
      1        8           0.000000484    0.000000000    0.000000000
      2        1          -0.000000484    0.000000000    0.000000000
 -------------------------------------------------------------------
 Cartesian Forces:  Max     0.000000484 RMS     0.000000280

 GradGradGradGradGradGradGradGradGradGradGradGradGradGradGradGradGradGrad
 Berny optimization.
 Internal  Forces:  Max     0.000000484 RMS     0.000000484
 Search for a local minimum.
 Step number   1 out of a maximum of    2
 All quantities printed in internal units (Hartrees-Bohrs-Radians)
 Second derivative matrix not updated -- analytic derivatives used.
 The second derivative matrix:
                          R1
           R1           0.50908
     Eigenvalues ---    0.50908
 Angle between quadratic step and forces=  90.00 degrees.
 Linear search not attempted -- first point.
 Iteration  1 RMS(Cart)=  0.00000067 RMS(Int)=  0.00000000
 ClnCor:  largest displacement from symmetrization is 0.00D+00 for atom     0.
 Variable       Old X    -DE/DX   Delta X   Delta X   Delta X     New X
                                 (Linear)    (Quad)   (Total)
    R1        1.83684   0.00000   0.00000   0.00000   0.00000   1.83684
         Item               Value     Threshold  Converged?
 Maximum Force            0.000000     0.000450     YES
 RMS     Force            0.000000     0.000300     YES
 Maximum Displacement     0.000000     0.001800     YES
 RMS     Displacement     0.000001     0.001200     YES
 Predicted change in Energy=-2.304317D-13
 Optimization completed.
    -- Stationary point found.
                           ----------------------------
                           !   Optimized Parameters   !
                           ! (Angstroms and Degrees)  !
 --------------------------                            --------------------------
 ! Name  Definition              Value          Derivative Info.                !
 --------------------------------------------------------------------------------
 ! R1    R(1,2)                  0.972          -DE/DX =    0.0                 !
 --------------------------------------------------------------------------------
 GradGradGradGradGradGradGradGradGradGradGradGradGradGradGradGradGradGrad

 1|1|UNPC-DESKTOP-319GPER|Freq|UM062X|6-311++G(d,p)|H1O1(2)|SAGAD|09-Oc
 t-2020|0||#N Geom=AllCheck Guess=TCheck SCRF=Check GenChk UM062X/6-311
 ++G(d,p) Freq||Calculation of hidrixil radical with M062X with 6-311++
 g(d,p)||0,2|O,0.8573016496,0.41353383,0.|H,1.8293149504,0.41353383,0.|
 |Version=IA32W-G09RevA.02|HF=-75.7265746|S2=0.752708|S2-1=0.|S2A=0.750
 005|RMSD=2.301e-009|RMSF=2.797e-007|ZeroPoint=0.0085814|Thermal=0.0109
 419|Dipole=0.7297846,0.,0.|DipoleDeriv=-0.1493715,0.,0.,0.,-0.3979766,
 0.,0.,0.,-0.3995781,0.1493715,0.,0.,0.,0.3979766,0.,0.,0.,0.3995781|Po
 lar=6.8728364,0.,4.2752421,0.,0.,3.4599909|PG=C*V [C*(H1O1)]|NImag=0||
 0.50908384,0.,0.00027166,0.,0.,-0.00014124,-0.50908384,0.,0.,0.5090838
 4,0.,-0.00027166,0.,0.,0.00027166,0.,0.,0.00014124,0.,0.,-0.00014124||
 -0.00000048,0.,0.,0.00000048,0.,0.|||@


 ONE OF THE BENEFITS OF A COLLEGE EDUCATION
 IS TO SHOW THE BOY ITS LITTLE AVAIL 
                                    EMERSON IN 'CULTURE'
 Job cpu time:  0 days  0 hours  0 minutes  5.0 seconds.
 File lengths (MBytes):  RWF=      5 Int=      0 D2E=      0 Chk=      1 Scr=      1
 Normal termination of Gaussian 09 at Fri Oct 09 00:02:51 2020.
