 Entering Link 1 = C:\G09W\l1.exe PID=      9204.
  
 Copyright (c) 1988,1990,1992,1993,1995,1998,2003,2009, Gaussian, Inc.
                  All Rights Reserved.
  
 This is part of the Gaussian(R) 09 program.  It is based on
 the Gaussian(R) 03 system (copyright 2003, Gaussian, Inc.),
 the Gaussian(R) 98 system (copyright 1998, Gaussian, Inc.),
 the Gaussian(R) 94 system (copyright 1995, Gaussian, Inc.),
 the Gaussian 92(TM) system (copyright 1992, Gaussian, Inc.),
 the Gaussian 90(TM) system (copyright 1990, Gaussian, Inc.),
 the Gaussian 88(TM) system (copyright 1988, Gaussian, Inc.),
 the Gaussian 86(TM) system (copyright 1986, Carnegie Mellon
 University), and the Gaussian 82(TM) system (copyright 1983,
 Carnegie Mellon University). Gaussian is a federally registered
 trademark of Gaussian, Inc.
  
 This software contains proprietary and confidential information,
 including trade secrets, belonging to Gaussian, Inc.
  
 This software is provided under written license and may be
 used, copied, transmitted, or stored only in accord with that
 written license.
  
 The following legend is applicable only to US Government
 contracts under FAR:
  
                    RESTRICTED RIGHTS LEGEND
  
 Use, reproduction and disclosure by the US Government is
 subject to restrictions as set forth in subparagraphs (a)
 and (c) of the Commercial Computer Software - Restricted
 Rights clause in FAR 52.227-19.
  
 Gaussian, Inc.
 340 Quinnipiac St., Bldg. 40, Wallingford CT 06492
  
  
 ---------------------------------------------------------------
 Warning -- This program may not be used in any manner that
 competes with the business of Gaussian, Inc. or will provide
 assistance to any competitor of Gaussian, Inc.  The licensee
 of this program is prohibited from giving any competitor of
 Gaussian, Inc. access to this program.  By using this program,
 the user acknowledges that Gaussian, Inc. is engaged in the
 business of creating and licensing software in the field of
 computational chemistry and represents and warrants to the
 licensee that it is not a competitor of Gaussian, Inc. and that
 it will not use this program in any manner prohibited above.
 ---------------------------------------------------------------
  

 Cite this work as:
 Gaussian 09, Revision A.02,
 M. J. Frisch, G. W. Trucks, H. B. Schlegel, G. E. Scuseria, 
 M. A. Robb, J. R. Cheeseman, G. Scalmani, V. Barone, B. Mennucci, 
 G. A. Petersson, H. Nakatsuji, M. Caricato, X. Li, H. P. Hratchian, 
 A. F. Izmaylov, J. Bloino, G. Zheng, J. L. Sonnenberg, M. Hada, 
 M. Ehara, K. Toyota, R. Fukuda, J. Hasegawa, M. Ishida, T. Nakajima, 
 Y. Honda, O. Kitao, H. Nakai, T. Vreven, J. A. Montgomery, Jr., 
 J. E. Peralta, F. Ogliaro, M. Bearpark, J. J. Heyd, E. Brothers, 
 K. N. Kudin, V. N. Staroverov, R. Kobayashi, J. Normand, 
 K. Raghavachari, A. Rendell, J. C. Burant, S. S. Iyengar, J. Tomasi, 
 M. Cossi, N. Rega, J. M. Millam, M. Klene, J. E. Knox, J. B. Cross, 
 V. Bakken, C. Adamo, J. Jaramillo, R. Gomperts, R. E. Stratmann, 
 O. Yazyev, A. J. Austin, R. Cammi, C. Pomelli, J. W. Ochterski, 
 R. L. Martin, K. Morokuma, V. G. Zakrzewski, G. A. Voth, 
 P. Salvador, J. J. Dannenberg, S. Dapprich, A. D. Daniels, 
 O. Farkas, J. B. Foresman, J. V. Ortiz, J. Cioslowski, 
 and D. J. Fox, Gaussian, Inc., Wallingford CT, 2009.
 
 ******************************************
 Gaussian 09:  IA32W-G09RevA.02 11-Jun-2009
                08-Oct-2020 
 ******************************************
 %chk=C:\Users\sagad\Documents\rayGit\FQ\quimicaComputacional\class4Metilo\reacti
 vos\methaneM062X.chk
 %nprocshared=4
 Will use up to    4 processors via shared memory.
 %mem=1500MB
 ---------------------------
 #opt freq M062X/6-31+g(d,p)
 ---------------------------
 1/14=-1,18=20,19=15,26=3,38=1/1,3;
 2/9=110,12=2,17=6,18=5,40=1/2;
 3/5=1,6=6,7=111,11=2,16=1,25=1,30=1,71=1,74=-55/1,2,3;
 4//1;
 5/5=2,38=5/2;
 6/7=2,8=2,9=2,10=2,28=1/1;
 7//1,2,3,16;
 1/14=-1,18=20,19=15/3(2);
 2/9=110/2;
 99//99;
 2/9=110/2;
 3/5=1,6=6,7=111,11=2,16=1,25=1,30=1,71=1,74=-55/1,2,3;
 4/5=5,16=3/1;
 5/5=2,38=5/2;
 7//1,2,3,16;
 1/14=-1,18=20,19=15/3(-5);
 2/9=110/2;
 6/7=2,8=2,9=2,10=2,19=2,28=1/1;
 99/9=1/99;
 ---------------------------------
 Calculation of methane with m062x
 ---------------------------------
 Symbolic Z-matrix:
 Charge =  0 Multiplicity = 1
 C                    -5.60103   1.03696  -0.87365 
 H                    -5.24438   0.02815  -0.87365 
 H                    -5.24436   1.54135   0. 
 H                    -5.24436   1.54135  -1.7473 
 H                    -6.67103   1.03697  -0.87365 
 

 GradGradGradGradGradGradGradGradGradGradGradGradGradGradGradGradGradGrad
 Berny optimization.
 Initialization pass.
                           ----------------------------
                           !    Initial Parameters    !
                           ! (Angstroms and Degrees)  !
 --------------------------                            --------------------------
 ! Name  Definition              Value          Derivative Info.                !
 --------------------------------------------------------------------------------
 ! R1    R(1,2)                  1.07           estimate D2E/DX2                !
 ! R2    R(1,3)                  1.07           estimate D2E/DX2                !
 ! R3    R(1,4)                  1.07           estimate D2E/DX2                !
 ! R4    R(1,5)                  1.07           estimate D2E/DX2                !
 ! A1    A(2,1,3)              109.4712         estimate D2E/DX2                !
 ! A2    A(2,1,4)              109.4712         estimate D2E/DX2                !
 ! A3    A(2,1,5)              109.4712         estimate D2E/DX2                !
 ! A4    A(3,1,4)              109.4713         estimate D2E/DX2                !
 ! A5    A(3,1,5)              109.4712         estimate D2E/DX2                !
 ! A6    A(4,1,5)              109.4712         estimate D2E/DX2                !
 ! D1    D(2,1,4,3)           -120.0            estimate D2E/DX2                !
 ! D2    D(2,1,5,3)            120.0            estimate D2E/DX2                !
 ! D3    D(2,1,5,4)           -120.0            estimate D2E/DX2                !
 ! D4    D(3,1,5,4)            120.0            estimate D2E/DX2                !
 --------------------------------------------------------------------------------
 Trust Radius=3.00D-01 FncErr=1.00D-07 GrdErr=1.00D-06
 Number of steps in this run=  24 maximum allowed number of steps= 100.
 GradGradGradGradGradGradGradGradGradGradGradGradGradGradGradGradGradGrad

                          Input orientation:                          
 ---------------------------------------------------------------------
 Center     Atomic      Atomic             Coordinates (Angstroms)
 Number     Number       Type             X           Y           Z
 ---------------------------------------------------------------------
      1          6           0       -5.601034    1.036955   -0.873652
      2          1           0       -5.244379    0.028145   -0.873652
      3          1           0       -5.244361    1.541353    0.000000
      4          1           0       -5.244361    1.541353   -1.747303
      5          1           0       -6.671034    1.036968   -0.873652
 ---------------------------------------------------------------------
                    Distance matrix (angstroms):
                    1          2          3          4          5
     1  C    0.000000
     2  H    1.070000   0.000000
     3  H    1.070000   1.747302   0.000000
     4  H    1.070000   1.747302   1.747303   0.000000
     5  H    1.070000   1.747303   1.747303   1.747303   0.000000
 Stoichiometry    CH4
 Framework group  T[O(C),4C3(H)]
 Deg. of freedom     1
 Full point group                 T       NOp  12
 Largest Abelian subgroup         D2      NOp   4
 Largest concise Abelian subgroup D2      NOp   4
                         Standard orientation:                         
 ---------------------------------------------------------------------
 Center     Atomic      Atomic             Coordinates (Angstroms)
 Number     Number       Type             X           Y           Z
 ---------------------------------------------------------------------
      1          6           0        0.000000    0.000000    0.000000
      2          1           0        0.617765    0.617765    0.617765
      3          1           0       -0.617765   -0.617765    0.617765
      4          1           0       -0.617765    0.617765   -0.617765
      5          1           0        0.617765   -0.617765   -0.617765
 ---------------------------------------------------------------------
 Rotational constants (GHZ):    164.2463794    164.2463794    164.2463794
 Standard basis: 6-31+G(d,p) (6D, 7F)
 There are    12 symmetry adapted basis functions of A   symmetry.
 There are     9 symmetry adapted basis functions of B1  symmetry.
 There are     9 symmetry adapted basis functions of B2  symmetry.
 There are     9 symmetry adapted basis functions of B3  symmetry.
 Integral buffers will be    262144 words long.
 Raffenetti 2 integral format.
 Two-electron integral symmetry is turned on.
    39 basis functions,    60 primitive gaussians,    39 cartesian basis functions
     5 alpha electrons        5 beta electrons
       nuclear repulsion energy        13.6865185901 Hartrees.
 NAtoms=    5 NActive=    5 NUniq=    2 SFac= 3.00D+00 NAtFMM=   80 NAOKFM=F Big=F
 One-electron integrals computed using PRISM.
 NBasis=    39 RedAO= T  NBF=    12     9     9     9
 NBsUse=    39 1.00D-06 NBFU=    12     9     9     9
 Harris functional with IExCor= 1009 diagonalized for initial guess.
 ExpMin= 4.38D-02 ExpMax= 3.05D+03 ExpMxC= 4.57D+02 IAcc=2 IRadAn=         0 AccDes= 0.00D+00
 HarFok:  IExCor= 1009 AccDes= 0.00D+00 IRadAn=         0 IDoV= 1
 ScaDFX=  1.000000  1.000000  1.000000  1.000000
 FoFCou: FMM=F IPFlag=           0 FMFlag=      100000 FMFlg1=           0
         NFxFlg=           0 DoJE=T BraDBF=F KetDBF=T FulRan=T
         Omega=  0.000000  0.000000  1.000000  0.000000  0.000000 ICntrl=     500 IOpCl=  0
         NMat0=    1 NMatS0=    1 NMatT0=    0 NMatD0=    1 NMtDS0=    0 NMtDT0=    0
         I1Cent=           4 NGrid=           0.
 Petite list used in FoFCou.
 Initial guess orbital symmetries:
       Occupied  (A) (A) (T) (T) (T)
       Virtual   (A) (T) (T) (T) (T) (T) (T) (A) (T) (T) (T) (T)
                 (T) (T) (A) (A) (E) (E) (T) (T) (T) (T) (T) (T)
                 (T) (T) (T) (E) (E) (A) (T) (T) (T) (A)
 The electronic state of the initial guess is 1-A.
 Requested convergence on RMS density matrix=1.00D-08 within 128 cycles.
 Requested convergence on MAX density matrix=1.00D-06.
 Requested convergence on             energy=1.00D-06.
 No special actions if energy rises.
 Keep R1 ints in memory in canonical form, NReq=1225720.
 SCF Done:  E(RM062X) =  -40.4868256106     A.U. after    8 cycles
             Convg  =    0.2815D-09             -V/T =  2.0070

 **********************************************************************

            Population analysis using the SCF density.

 **********************************************************************

 Orbital symmetries:
       Occupied  (A) (A) (T) (T) (T)
       Virtual   (A) (T) (T) (T) (T) (T) (T) (A) (T) (T) (T) (T)
                 (T) (T) (A) (A) (E) (E) (T) (T) (T) (T) (T) (T)
                 (T) (T) (T) (E) (E) (A) (T) (T) (T) (A)
 The electronic state is 1-A.
 Alpha  occ. eigenvalues --  -10.51851  -0.79330  -0.45963  -0.45963  -0.45963
 Alpha virt. eigenvalues --    0.03818   0.07086   0.07086   0.07086   0.23666
 Alpha virt. eigenvalues --    0.23666   0.23666   0.31841   0.68134   0.68134
 Alpha virt. eigenvalues --    0.68134   0.98644   0.98644   0.98644   1.12419
 Alpha virt. eigenvalues --    1.18876   1.42406   1.42406   2.10270   2.10270
 Alpha virt. eigenvalues --    2.10270   2.17694   2.17694   2.17694   2.67985
 Alpha virt. eigenvalues --    2.67985   2.67985   2.96911   2.96911   3.21997
 Alpha virt. eigenvalues --    3.45461   3.45461   3.45461   4.45202
          Condensed to atoms (all electrons):
              1          2          3          4          5
     1  C    5.059876   0.395567   0.395567   0.395567   0.395567
     2  H    0.395567   0.517220  -0.024441  -0.024441  -0.024441
     3  H    0.395567  -0.024441   0.517220  -0.024441  -0.024441
     4  H    0.395567  -0.024441  -0.024441   0.517220  -0.024441
     5  H    0.395567  -0.024441  -0.024441  -0.024441   0.517220
 Mulliken atomic charges:
              1
     1  C   -0.642144
     2  H    0.160536
     3  H    0.160536
     4  H    0.160536
     5  H    0.160536
 Sum of Mulliken atomic charges =   0.00000
 Mulliken charges with hydrogens summed into heavy atoms:
              1
     1  C    0.000000
 Sum of Mulliken charges with hydrogens summed into heavy atoms =   0.00000
 Electronic spatial extent (au):  <R**2>=             35.0987
 Charge=              0.0000 electrons
 Dipole moment (field-independent basis, Debye):
    X=              0.0000    Y=              0.0000    Z=              0.0000  Tot=              0.0000
 Quadrupole moment (field-independent basis, Debye-Ang):
   XX=             -8.4041   YY=             -8.4041   ZZ=             -8.4041
   XY=              0.0000   XZ=              0.0000   YZ=              0.0000
 Traceless Quadrupole moment (field-independent basis, Debye-Ang):
   XX=              0.0000   YY=              0.0000   ZZ=              0.0000
   XY=              0.0000   XZ=              0.0000   YZ=              0.0000
 Octapole moment (field-independent basis, Debye-Ang**2):
  XXX=              0.0000  YYY=              0.0000  ZZZ=              0.0000  XYY=              0.0000
  XXY=              0.0000  XXZ=              0.0000  XZZ=              0.0000  YZZ=              0.0000
  YYZ=              0.0000  XYZ=              0.6925
 Hexadecapole moment (field-independent basis, Debye-Ang**3):
 XXXX=            -16.5787 YYYY=            -16.5787 ZZZZ=            -16.5787 XXXY=              0.0000
 XXXZ=              0.0000 YYYX=              0.0000 YYYZ=              0.0000 ZZZX=              0.0000
 ZZZY=              0.0000 XXYY=             -5.0751 XXZZ=             -5.0751 YYZZ=             -5.0751
 XXYZ=              0.0000 YYXZ=              0.0000 ZZXY=              0.0000
 N-N= 1.368651859005D+01 E-N=-1.204541213298D+02  KE= 4.020678193892D+01
 Symmetry A    KE= 3.438753191635D+01
 Symmetry B1   KE= 1.939750007522D+00
 Symmetry B2   KE= 1.939750007522D+00
 Symmetry B3   KE= 1.939750007522D+00
 Calling FoFJK, ICntrl=      2127 FMM=F ISym2X=1 I1Cent= 0 IOpClX= 0 NMat=1 NMatS=1 NMatT=0.
 ***** Axes restored to original set *****
 -------------------------------------------------------------------
 Center     Atomic                   Forces (Hartrees/Bohr)
 Number     Number              X              Y              Z
 -------------------------------------------------------------------
      1        6           0.000000000    0.000000000    0.000000000
      2        1           0.004979082   -0.014083513   -0.000000012
      3        1           0.004979347    0.007041659    0.012196628
      4        1           0.004979328    0.007041673   -0.012196627
      5        1          -0.014937757    0.000000181    0.000000012
 -------------------------------------------------------------------
 Cartesian Forces:  Max     0.014937757 RMS     0.007713825

 GradGradGradGradGradGradGradGradGradGradGradGradGradGradGradGradGradGrad
 Berny optimization.
 Internal  Forces:  Max     0.014937757 RMS     0.007984567
 Search for a local minimum.
 Step number   1 out of a maximum of   24
 All quantities printed in internal units (Hartrees-Bohrs-Radians)
 Mixed Optimization -- RFO/linear search
 Second derivative matrix not updated -- first step.
 The second derivative matrix:
                          R1        R2        R3        R4        A1
           R1           0.37230
           R2           0.00000   0.37230
           R3           0.00000   0.00000   0.37230
           R4           0.00000   0.00000   0.00000   0.37230
           A1           0.00000   0.00000   0.00000   0.00000   0.16000
           A2           0.00000   0.00000   0.00000   0.00000   0.00000
           A3           0.00000   0.00000   0.00000   0.00000   0.00000
           A4           0.00000   0.00000   0.00000   0.00000   0.00000
           A5           0.00000   0.00000   0.00000   0.00000   0.00000
           A6           0.00000   0.00000   0.00000   0.00000   0.00000
           D1           0.00000   0.00000   0.00000   0.00000   0.00000
           D2           0.00000   0.00000   0.00000   0.00000   0.00000
           D3           0.00000   0.00000   0.00000   0.00000   0.00000
           D4           0.00000   0.00000   0.00000   0.00000   0.00000
                          A2        A3        A4        A5        A6
           A2           0.16000
           A3           0.00000   0.16000
           A4           0.00000   0.00000   0.16000
           A5           0.00000   0.00000   0.00000   0.16000
           A6           0.00000   0.00000   0.00000   0.00000   0.16000
           D1           0.00000   0.00000   0.00000   0.00000   0.00000
           D2           0.00000   0.00000   0.00000   0.00000   0.00000
           D3           0.00000   0.00000   0.00000   0.00000   0.00000
           D4           0.00000   0.00000   0.00000   0.00000   0.00000
                          D1        D2        D3        D4
           D1           0.00499
           D2           0.00000   0.00499
           D3           0.00000   0.00000   0.00499
           D4           0.00000   0.00000   0.00000   0.00499
     Eigenvalues ---    0.05269   0.05891   0.08766   0.16000   0.16000
     Eigenvalues ---    0.37230   0.37230   0.37230   0.372301000.00000
     Eigenvalues --- 1000.000001000.000001000.000001000.00000
 RFO step:  Lambda=-2.38213637D-03 EMin= 5.26881010D-02
 Linear search not attempted -- first point.
 Iteration  1 RMS(Cart)=  0.02131018 RMS(Int)=  0.00000000
 Iteration  2 RMS(Cart)=  0.00000000 RMS(Int)=  0.00000000
 ClnCor:  largest displacement from symmetrization is 5.45D-14 for atom     5.
 Variable       Old X    -DE/DX   Delta X   Delta X   Delta X     New X
                                 (Linear)    (Quad)   (Total)
    R1        2.02201   0.01494   0.00000   0.03987   0.03987   2.06187
    R2        2.02201   0.01494   0.00000   0.03987   0.03987   2.06187
    R3        2.02201   0.01494   0.00000   0.03987   0.03987   2.06187
    R4        2.02201   0.01494   0.00000   0.03987   0.03987   2.06187
    A1        1.91063   0.00000   0.00000   0.00000   0.00000   1.91063
    A2        1.91063   0.00000   0.00000   0.00000   0.00000   1.91063
    A3        1.91063   0.00000   0.00000   0.00000   0.00000   1.91063
    A4        1.91063   0.00000   0.00000   0.00000   0.00000   1.91063
    A5        1.91063   0.00000   0.00000   0.00000   0.00000   1.91063
    A6        1.91063   0.00000   0.00000   0.00000   0.00000   1.91063
    D1       -2.09440   0.00000   0.00000   0.00000   0.00000  -2.09440
    D2        2.09440   0.00000   0.00000   0.00000   0.00000   2.09440
    D3       -2.09440   0.00000   0.00000   0.00000   0.00000  -2.09440
    D4        2.09440   0.00000   0.00000   0.00000   0.00000   2.09440
         Item               Value     Threshold  Converged?
 Maximum Force            0.014938     0.000450     NO 
 RMS     Force            0.007985     0.000300     NO 
 Maximum Displacement     0.039868     0.001800     NO 
 RMS     Displacement     0.021310     0.001200     NO 
 Predicted change in Energy=-1.198640D-03
 GradGradGradGradGradGradGradGradGradGradGradGradGradGradGradGradGradGrad

                          Input orientation:                          
 ---------------------------------------------------------------------
 Center     Atomic      Atomic             Coordinates (Angstroms)
 Number     Number       Type             X           Y           Z
 ---------------------------------------------------------------------
      1          6           0       -5.601034    1.036955   -0.873652
      2          1           0       -5.237347    0.008255   -0.873652
      3          1           0       -5.237328    1.551298    0.017225
      4          1           0       -5.237329    1.551299   -1.764528
      5          1           0       -6.692131    1.036968   -0.873651
 ---------------------------------------------------------------------
                    Distance matrix (angstroms):
                    1          2          3          4          5
     1  C    0.000000
     2  H    1.091097   0.000000
     3  H    1.091097   1.781754   0.000000
     4  H    1.091097   1.781754   1.781754   0.000000
     5  H    1.091097   1.781754   1.781754   1.781754   0.000000
 Stoichiometry    CH4
 Framework group  TD[O(C),4C3(H)]
 Deg. of freedom     1
 Full point group                 TD      NOp  24
 Omega: Change in point group or standard orientation.

 Old FWG=T    [O(C1),4C3(H1)]
 New FWG=TD   [O(C1),4C3(H1)]
 Largest Abelian subgroup         D2      NOp   4
 Largest concise Abelian subgroup D2      NOp   4
                         Standard orientation:                         
 ---------------------------------------------------------------------
 Center     Atomic      Atomic             Coordinates (Angstroms)
 Number     Number       Type             X           Y           Z
 ---------------------------------------------------------------------
      1          6           0        0.000000    0.000000    0.000000
      2          1           0        0.629945    0.629945    0.629945
      3          1           0       -0.629945   -0.629945    0.629945
      4          1           0       -0.629945    0.629945   -0.629945
      5          1           0        0.629945   -0.629945   -0.629945
 ---------------------------------------------------------------------
 Rotational constants (GHZ):    157.9561632    157.9561632    157.9561632
 Standard basis: 6-31+G(d,p) (6D, 7F)
 There are    12 symmetry adapted basis functions of A   symmetry.
 There are     9 symmetry adapted basis functions of B1  symmetry.
 There are     9 symmetry adapted basis functions of B2  symmetry.
 There are     9 symmetry adapted basis functions of B3  symmetry.
 Integral buffers will be    262144 words long.
 Raffenetti 2 integral format.
 Two-electron integral symmetry is turned on.
    39 basis functions,    60 primitive gaussians,    39 cartesian basis functions
     5 alpha electrons        5 beta electrons
       nuclear repulsion energy        13.4218807904 Hartrees.
 NAtoms=    5 NActive=    5 NUniq=    2 SFac= 3.00D+00 NAtFMM=   80 NAOKFM=F Big=F
 One-electron integrals computed using PRISM.
 NBasis=    39 RedAO= T  NBF=    12     9     9     9
 NBsUse=    39 1.00D-06 NBFU=    12     9     9     9
 Initial guess read from the read-write file.
 B after Tr=     0.000000    0.000000    0.000000
         Rot=    1.000000    0.000000    0.000000    0.000000 Ang=   0.00 deg.
 Initial guess orbital symmetries:
       Occupied  (A1) (A1) (T2) (T2) (T2)
       Virtual   (A1) (T2) (T2) (T2) (T2) (T2) (T2) (A1) (T2) (T2)
                 (T2) (T2) (T2) (T2) (A1) (A1) (E) (E) (T1) (T1)
                 (T1) (T2) (T2) (T2) (T2) (T2) (T2) (E) (E) (A1)
                 (T2) (T2) (T2) (A1)
 Harris functional with IExCor= 1009 diagonalized for initial guess.
 ExpMin= 4.38D-02 ExpMax= 3.05D+03 ExpMxC= 4.57D+02 IAcc=2 IRadAn=         0 AccDes= 0.00D+00
 HarFok:  IExCor= 1009 AccDes= 0.00D+00 IRadAn=         0 IDoV= 1
 ScaDFX=  1.000000  1.000000  1.000000  1.000000
 FoFCou: FMM=F IPFlag=           0 FMFlag=      100000 FMFlg1=           0
         NFxFlg=           0 DoJE=T BraDBF=F KetDBF=T FulRan=T
         Omega=  0.000000  0.000000  1.000000  0.000000  0.000000 ICntrl=     500 IOpCl=  0
         NMat0=    1 NMatS0=    1 NMatT0=    0 NMatD0=    1 NMtDS0=    0 NMtDT0=    0
         I1Cent=           4 NGrid=           0.
 Petite list used in FoFCou.
 Requested convergence on RMS density matrix=1.00D-08 within 128 cycles.
 Requested convergence on MAX density matrix=1.00D-06.
 Requested convergence on             energy=1.00D-06.
 No special actions if energy rises.
 Keep R1 ints in memory in canonical form, NReq=1226406.
 SCF Done:  E(RM062X) =  -40.4879748307     A.U. after    7 cycles
             Convg  =    0.2495D-08             -V/T =  2.0099
 Calling FoFJK, ICntrl=      2127 FMM=F ISym2X=1 I1Cent= 0 IOpClX= 0 NMat=1 NMatS=1 NMatT=0.
 ***** Axes restored to original set *****
 -------------------------------------------------------------------
 Center     Atomic                   Forces (Hartrees/Bohr)
 Number     Number              X              Y              Z
 -------------------------------------------------------------------
      1        6           0.000000000    0.000000000    0.000000000
      2        1          -0.000081004    0.000229123    0.000000000
      3        1          -0.000081008   -0.000114560   -0.000198426
      4        1          -0.000081008   -0.000114560    0.000198426
      5        1           0.000243021   -0.000000003    0.000000000
 -------------------------------------------------------------------
 Cartesian Forces:  Max     0.000243021 RMS     0.000125495

 GradGradGradGradGradGradGradGradGradGradGradGradGradGradGradGradGradGrad
 Berny optimization.
 Using GEDIIS/GDIIS optimizer.
 Internal  Forces:  Max     0.000243021 RMS     0.000129900
 Search for a local minimum.
 Step number   2 out of a maximum of   24
 All quantities printed in internal units (Hartrees-Bohrs-Radians)
 Mixed Optimization -- En-DIIS/RFO-DIIS
 Update second derivatives using D2CorX and points    1    2
 DE= -1.15D-03 DEPred=-1.20D-03 R= 9.59D-01
 SS=  1.41D+00  RLast= 7.97D-02 DXNew= 5.0454D-01 2.3921D-01
 Trust test= 9.59D-01 RLast= 7.97D-02 DXMaxT set to 3.00D-01
 The second derivative matrix:
                          R1        R2        R3        R4        A1
           R1           0.37442
           R2           0.00212   0.37442
           R3           0.00212   0.00212   0.37442
           R4           0.00212   0.00212   0.00212   0.37442
           A1           0.00000   0.00000   0.00000   0.00000   0.16000
           A2           0.00000   0.00000   0.00000   0.00000   0.00000
           A3           0.00000   0.00000   0.00000   0.00000   0.00000
           A4           0.00000   0.00000   0.00000   0.00000   0.00000
           A5           0.00000   0.00000   0.00000   0.00000   0.00000
           A6           0.00000   0.00000   0.00000   0.00000   0.00000
           D1           0.00000   0.00000   0.00000   0.00000   0.00000
           D2           0.00000   0.00000   0.00000   0.00000   0.00000
           D3           0.00000   0.00000   0.00000   0.00000   0.00000
           D4           0.00000   0.00000   0.00000   0.00000   0.00000
                          A2        A3        A4        A5        A6
           A2           0.16000
           A3           0.00000   0.16000
           A4           0.00000   0.00000   0.16000
           A5           0.00000   0.00000   0.00000   0.16000
           A6           0.00000   0.00000   0.00000   0.00000   0.16000
           D1           0.00000   0.00000   0.00000   0.00000   0.00000
           D2           0.00000   0.00000   0.00000   0.00000   0.00000
           D3           0.00000   0.00000   0.00000   0.00000   0.00000
           D4           0.00000   0.00000   0.00000   0.00000   0.00000
                          D1        D2        D3        D4
           D1           0.00499
           D2           0.00000   0.00499
           D3           0.00000   0.00000   0.00499
           D4           0.00000   0.00000   0.00000   0.00499
 Use linear search instead of GDIIS.
     Eigenvalues ---    0.05269   0.05891   0.08766   0.16000   0.16000
     Eigenvalues ---    0.37230   0.37230   0.37230   0.380781000.00000
     Eigenvalues --- 1000.000001000.000001000.000001000.00000
 RFO step:  Lambda= 0.00000000D+00 EMin= 5.26881010D-02
 Quartic linear search produced a step of -0.01693.
 Iteration  1 RMS(Cart)=  0.00036071 RMS(Int)=  0.00000000
 Iteration  2 RMS(Cart)=  0.00000000 RMS(Int)=  0.00000000
 ClnCor:  largest displacement from symmetrization is 2.14D-14 for atom     4.
 Variable       Old X    -DE/DX   Delta X   Delta X   Delta X     New X
                                 (Linear)    (Quad)   (Total)
    R1        2.06187  -0.00024  -0.00067   0.00000  -0.00067   2.06120
    R2        2.06187  -0.00024  -0.00067   0.00000  -0.00067   2.06120
    R3        2.06187  -0.00024  -0.00067   0.00000  -0.00067   2.06120
    R4        2.06187  -0.00024  -0.00067   0.00000  -0.00067   2.06120
    A1        1.91063   0.00000   0.00000   0.00000   0.00000   1.91063
    A2        1.91063   0.00000   0.00000   0.00000   0.00000   1.91063
    A3        1.91063   0.00000   0.00000   0.00000   0.00000   1.91063
    A4        1.91063   0.00000   0.00000   0.00000   0.00000   1.91063
    A5        1.91063   0.00000   0.00000   0.00000   0.00000   1.91063
    A6        1.91063   0.00000   0.00000   0.00000   0.00000   1.91063
    D1       -2.09440   0.00000   0.00000   0.00000   0.00000  -2.09440
    D2        2.09440   0.00000   0.00000   0.00000   0.00000   2.09440
    D3       -2.09440   0.00000   0.00000   0.00000   0.00000  -2.09440
    D4        2.09440   0.00000   0.00000   0.00000   0.00000   2.09440
         Item               Value     Threshold  Converged?
 Maximum Force            0.000243     0.000450     YES
 RMS     Force            0.000130     0.000300     YES
 Maximum Displacement     0.000675     0.001800     YES
 RMS     Displacement     0.000361     0.001200     YES
 Predicted change in Energy=-3.091802D-07
 Optimization completed.
    -- Stationary point found.
                           ----------------------------
                           !   Optimized Parameters   !
                           ! (Angstroms and Degrees)  !
 --------------------------                            --------------------------
 ! Name  Definition              Value          Derivative Info.                !
 --------------------------------------------------------------------------------
 ! R1    R(1,2)                  1.0911         -DE/DX =   -0.0002              !
 ! R2    R(1,3)                  1.0911         -DE/DX =   -0.0002              !
 ! R3    R(1,4)                  1.0911         -DE/DX =   -0.0002              !
 ! R4    R(1,5)                  1.0911         -DE/DX =   -0.0002              !
 ! A1    A(2,1,3)              109.4712         -DE/DX =    0.0                 !
 ! A2    A(2,1,4)              109.4712         -DE/DX =    0.0                 !
 ! A3    A(2,1,5)              109.4712         -DE/DX =    0.0                 !
 ! A4    A(3,1,4)              109.4712         -DE/DX =    0.0                 !
 ! A5    A(3,1,5)              109.4712         -DE/DX =    0.0                 !
 ! A6    A(4,1,5)              109.4712         -DE/DX =    0.0                 !
 ! D1    D(2,1,4,3)           -120.0            -DE/DX =    0.0                 !
 ! D2    D(2,1,5,3)            120.0            -DE/DX =    0.0                 !
 ! D3    D(2,1,5,4)           -120.0            -DE/DX =    0.0                 !
 ! D4    D(3,1,5,4)            120.0            -DE/DX =    0.0                 !
 --------------------------------------------------------------------------------
 GradGradGradGradGradGradGradGradGradGradGradGradGradGradGradGradGradGrad

                          Input orientation:                          
 ---------------------------------------------------------------------
 Center     Atomic      Atomic             Coordinates (Angstroms)
 Number     Number       Type             X           Y           Z
 ---------------------------------------------------------------------
      1          6           0       -5.601034    1.036955   -0.873652
      2          1           0       -5.237347    0.008255   -0.873652
      3          1           0       -5.237328    1.551298    0.017225
      4          1           0       -5.237329    1.551299   -1.764528
      5          1           0       -6.692131    1.036968   -0.873651
 ---------------------------------------------------------------------
                    Distance matrix (angstroms):
                    1          2          3          4          5
     1  C    0.000000
     2  H    1.091097   0.000000
     3  H    1.091097   1.781754   0.000000
     4  H    1.091097   1.781754   1.781754   0.000000
     5  H    1.091097   1.781754   1.781754   1.781754   0.000000
 Stoichiometry    CH4
 Framework group  TD[O(C),4C3(H)]
 Deg. of freedom     1
 Full point group                 TD      NOp  24
 Largest Abelian subgroup         D2      NOp   4
 Largest concise Abelian subgroup D2      NOp   4
                         Standard orientation:                         
 ---------------------------------------------------------------------
 Center     Atomic      Atomic             Coordinates (Angstroms)
 Number     Number       Type             X           Y           Z
 ---------------------------------------------------------------------
      1          6           0        0.000000    0.000000    0.000000
      2          1           0        0.629945    0.629945    0.629945
      3          1           0       -0.629945   -0.629945    0.629945
      4          1           0       -0.629945    0.629945   -0.629945
      5          1           0        0.629945   -0.629945   -0.629945
 ---------------------------------------------------------------------
 Rotational constants (GHZ):    157.9561632    157.9561632    157.9561632

 **********************************************************************

            Population analysis using the SCF density.

 **********************************************************************

 Orbital symmetries:
       Occupied  (A1) (A1) (T2) (T2) (T2)
       Virtual   (A1) (T2) (T2) (T2) (T2) (T2) (T2) (A1) (T2) (T2)
                 (T2) (T2) (T2) (T2) (A1) (A1) (E) (E) (T1) (T1)
                 (T1) (T2) (T2) (T2) (T2) (T2) (T2) (E) (E) (A1)
                 (T2) (T2) (T2) (A1)
 The electronic state is 1-A1.
 Alpha  occ. eigenvalues --  -10.52762  -0.78604  -0.45551  -0.45551  -0.45551
 Alpha virt. eigenvalues --    0.03781   0.07103   0.07103   0.07103   0.22972
 Alpha virt. eigenvalues --    0.22972   0.22972   0.31070   0.68499   0.68499
 Alpha virt. eigenvalues --    0.68499   0.97655   0.97655   0.97655   1.11063
 Alpha virt. eigenvalues --    1.16861   1.42563   1.42563   2.09279   2.09279
 Alpha virt. eigenvalues --    2.09279   2.14447   2.14447   2.14447   2.64846
 Alpha virt. eigenvalues --    2.64846   2.64846   2.91990   2.91990   3.15370
 Alpha virt. eigenvalues --    3.41005   3.41005   3.41005   4.44494
          Condensed to atoms (all electrons):
              1          2          3          4          5
     1  C    5.073447   0.391717   0.391717   0.391717   0.391717
     2  H    0.391717   0.519938  -0.023912  -0.023912  -0.023912
     3  H    0.391717  -0.023912   0.519938  -0.023912  -0.023912
     4  H    0.391717  -0.023912  -0.023912   0.519938  -0.023912
     5  H    0.391717  -0.023912  -0.023912  -0.023912   0.519938
 Mulliken atomic charges:
              1
     1  C   -0.640317
     2  H    0.160079
     3  H    0.160079
     4  H    0.160079
     5  H    0.160079
 Sum of Mulliken atomic charges =   0.00000
 Mulliken charges with hydrogens summed into heavy atoms:
              1
     1  C    0.000000
 Sum of Mulliken charges with hydrogens summed into heavy atoms =   0.00000
 Electronic spatial extent (au):  <R**2>=             35.9023
 Charge=              0.0000 electrons
 Dipole moment (field-independent basis, Debye):
    X=              0.0000    Y=              0.0000    Z=              0.0000  Tot=              0.0000
 Quadrupole moment (field-independent basis, Debye-Ang):
   XX=             -8.4724   YY=             -8.4724   ZZ=             -8.4724
   XY=              0.0000   XZ=              0.0000   YZ=              0.0000
 Traceless Quadrupole moment (field-independent basis, Debye-Ang):
   XX=              0.0000   YY=              0.0000   ZZ=              0.0000
   XY=              0.0000   XZ=              0.0000   YZ=              0.0000
 Octapole moment (field-independent basis, Debye-Ang**2):
  XXX=              0.0000  YYY=              0.0000  ZZZ=              0.0000  XYY=              0.0000
  XXY=              0.0000  XXZ=              0.0000  XZZ=              0.0000  YZZ=              0.0000
  YYZ=              0.0000  XYZ=              0.7491
 Hexadecapole moment (field-independent basis, Debye-Ang**3):
 XXXX=            -17.1605 YYYY=            -17.1605 ZZZZ=            -17.1605 XXXY=              0.0000
 XXXZ=              0.0000 YYYX=              0.0000 YYYZ=              0.0000 ZZZX=              0.0000
 ZZZY=              0.0000 XXYY=             -5.2303 XXZZ=             -5.2303 YYZZ=             -5.2303
 XXYZ=              0.0000 YYXZ=              0.0000 ZZXY=              0.0000
 N-N= 1.342188079045D+01 E-N=-1.198433077514D+02  KE= 4.008969338898D+01
 Symmetry A    KE= 3.436291031914D+01
 Symmetry B1   KE= 1.908927689947D+00
 Symmetry B2   KE= 1.908927689947D+00
 Symmetry B3   KE= 1.908927689947D+00
 1|1|UNPC-DESKTOP-319GPER|FOpt|RM062X|6-31+G(d,p)|C1H4|SAGAD|08-Oct-202
 0|0||#opt freq M062X/6-31+g(d,p)||Calculation of methane with m062x||0
 ,1|C,-5.60103382,1.036955126,-0.873651501|H,-5.2373472811,0.0082545753
 ,-0.87365238|H,-5.2373278596,1.5512982803,0.0172254914|H,-5.2373292927
 ,1.5512992961,-1.7645284921|H,-6.6921308466,1.0369683524,-0.8736506234
 ||Version=IA32W-G09RevA.02|State=1-A1|HF=-40.4879748|RMSD=2.495e-009|R
 MSF=1.255e-004|Dipole=0.,0.,0.|Quadrupole=0.,0.,0.,0.,0.,0.|PG=TD [O(C
 1),4C3(H1)]||@


 THEREFORE SHALL EVIL COME UPON THEE...
 THOU SHALT NOT KNOW FROM WHENCE IT RISETH...
 AND MISCHIEF SHALL FALL UPON THEE...
 THOU SHALT NOT BE ABLE TO PUT IT OFF...
 AND DESOLATION SHALL COME UPON THEE SUDDENLY...
 WHICH THOU SHALT NOT KNOW...

                                         ISAIAH 47.11
 Job cpu time:  0 days  0 hours  0 minutes  6.0 seconds.
 File lengths (MBytes):  RWF=      5 Int=      0 D2E=      0 Chk=      1 Scr=      1
 Normal termination of Gaussian 09 at Thu Oct 08 01:28:12 2020.
 Link1:  Proceeding to internal job step number  2.
 ----------------------------------------------------------------------
 #N Geom=AllCheck Guess=TCheck SCRF=Check GenChk RM062X/6-31+G(d,p) Fre
 q
 ----------------------------------------------------------------------
 1/10=4,29=7,30=1,38=1,40=1/1,3;
 2/12=2,40=1/2;
 3/5=1,6=6,7=111,11=2,14=-4,16=1,25=1,30=1,70=2,71=2,74=-55,116=1/1,2,3;
 4/5=101/1;
 5/5=2,98=1/2;
 8/6=4,10=90,11=11/1;
 11/6=1,8=1,9=11,15=111,16=1/1,2,10;
 10/6=1/2;
 6/7=2,8=2,9=2,10=2,18=1,28=1/1;
 7/8=1,10=1,25=1/1,2,3,16;
 1/10=4,30=1/3;
 99//99;
 ---------------------------------
 Calculation of methane with m062x
 ---------------------------------
 Redundant internal coordinates taken from checkpoint file:
 C:\Users\sagad\Documents\rayGit\FQ\quimicaComputacional\class4Metilo\reactivos\methaneM062X.chk
 Charge =  0 Multiplicity = 1
 C,0,-5.60103382,1.036955126,-0.873651501
 H,0,-5.2373472811,0.0082545753,-0.87365238
 H,0,-5.2373278596,1.5512982803,0.0172254914
 H,0,-5.2373292927,1.5512992961,-1.7645284921
 H,0,-6.6921308466,1.0369683524,-0.8736506234
 Recover connectivity data from disk.

 GradGradGradGradGradGradGradGradGradGradGradGradGradGradGradGradGradGrad
 Berny optimization.
 Initialization pass.
                           ----------------------------
                           !    Initial Parameters    !
                           ! (Angstroms and Degrees)  !
 --------------------------                            --------------------------
 ! Name  Definition              Value          Derivative Info.                !
 --------------------------------------------------------------------------------
 ! R1    R(1,2)                  1.0911         calculate D2E/DX2 analytically  !
 ! R2    R(1,3)                  1.0911         calculate D2E/DX2 analytically  !
 ! R3    R(1,4)                  1.0911         calculate D2E/DX2 analytically  !
 ! R4    R(1,5)                  1.0911         calculate D2E/DX2 analytically  !
 ! A1    A(2,1,3)              109.4712         calculate D2E/DX2 analytically  !
 ! A2    A(2,1,4)              109.4712         calculate D2E/DX2 analytically  !
 ! A3    A(2,1,5)              109.4712         calculate D2E/DX2 analytically  !
 ! A4    A(3,1,4)              109.4712         calculate D2E/DX2 analytically  !
 ! A5    A(3,1,5)              109.4712         calculate D2E/DX2 analytically  !
 ! A6    A(4,1,5)              109.4712         calculate D2E/DX2 analytically  !
 ! D1    D(2,1,4,3)           -120.0            calculate D2E/DX2 analytically  !
 ! D2    D(2,1,5,3)            120.0            calculate D2E/DX2 analytically  !
 ! D3    D(2,1,5,4)           -120.0            calculate D2E/DX2 analytically  !
 ! D4    D(3,1,5,4)            120.0            calculate D2E/DX2 analytically  !
 --------------------------------------------------------------------------------
 Trust Radius=3.00D-01 FncErr=1.00D-07 GrdErr=1.00D-07
 Number of steps in this run=   2 maximum allowed number of steps=   2.
 GradGradGradGradGradGradGradGradGradGradGradGradGradGradGradGradGradGrad

                          Input orientation:                          
 ---------------------------------------------------------------------
 Center     Atomic      Atomic             Coordinates (Angstroms)
 Number     Number       Type             X           Y           Z
 ---------------------------------------------------------------------
      1          6           0       -5.601034    1.036955   -0.873652
      2          1           0       -5.237347    0.008255   -0.873652
      3          1           0       -5.237328    1.551298    0.017225
      4          1           0       -5.237329    1.551299   -1.764528
      5          1           0       -6.692131    1.036968   -0.873651
 ---------------------------------------------------------------------
                    Distance matrix (angstroms):
                    1          2          3          4          5
     1  C    0.000000
     2  H    1.091097   0.000000
     3  H    1.091097   1.781754   0.000000
     4  H    1.091097   1.781754   1.781754   0.000000
     5  H    1.091097   1.781754   1.781754   1.781754   0.000000
 Stoichiometry    CH4
 Framework group  TD[O(C),4C3(H)]
 Deg. of freedom     1
 Full point group                 TD      NOp  24
 Largest Abelian subgroup         D2      NOp   4
 Largest concise Abelian subgroup D2      NOp   4
                         Standard orientation:                         
 ---------------------------------------------------------------------
 Center     Atomic      Atomic             Coordinates (Angstroms)
 Number     Number       Type             X           Y           Z
 ---------------------------------------------------------------------
      1          6           0        0.000000    0.000000    0.000000
      2          1           0        0.629945    0.629945    0.629945
      3          1           0       -0.629945   -0.629945    0.629945
      4          1           0       -0.629945    0.629945   -0.629945
      5          1           0        0.629945   -0.629945   -0.629945
 ---------------------------------------------------------------------
 Rotational constants (GHZ):    157.9561632    157.9561632    157.9561632
 Standard basis: 6-31+G(d,p) (6D, 7F)
 There are    12 symmetry adapted basis functions of A   symmetry.
 There are     9 symmetry adapted basis functions of B1  symmetry.
 There are     9 symmetry adapted basis functions of B2  symmetry.
 There are     9 symmetry adapted basis functions of B3  symmetry.
 Integral buffers will be    262144 words long.
 Raffenetti 2 integral format.
 Two-electron integral symmetry is turned on.
    39 basis functions,    60 primitive gaussians,    39 cartesian basis functions
     5 alpha electrons        5 beta electrons
       nuclear repulsion energy        13.4218807904 Hartrees.
 NAtoms=    5 NActive=    5 NUniq=    2 SFac= 3.00D+00 NAtFMM=   80 NAOKFM=F Big=F
 One-electron integrals computed using PRISM.
 NBasis=    39 RedAO= T  NBF=    12     9     9     9
 NBsUse=    39 1.00D-06 NBFU=    12     9     9     9
 Initial guess read from the checkpoint file:  C:\Users\sagad\Documents\rayGit\FQ
 \quimicaComputacional\class4Metilo\reactivos\methaneM062X.chk
 B after Tr=     0.000000    0.000000    0.000000
         Rot=    1.000000    0.000000    0.000000    0.000000 Ang=   0.00 deg.
 Initial guess orbital symmetries:
       Occupied  (A1) (A1) (T2) (T2) (T2)
       Virtual   (A1) (T2) (T2) (T2) (T2) (T2) (T2) (A1) (T2) (T2)
                 (T2) (T2) (T2) (T2) (A1) (A1) (E) (E) (T1) (T1)
                 (T1) (T2) (T2) (T2) (T2) (T2) (T2) (E) (E) (A1)
                 (T2) (T2) (T2) (A1)
 Requested convergence on RMS density matrix=1.00D-08 within 128 cycles.
 Requested convergence on MAX density matrix=1.00D-06.
 Requested convergence on             energy=1.00D-06.
 No special actions if energy rises.
 Keep R1 ints in memory in canonical form, NReq=1226406.
 SCF Done:  E(RM062X) =  -40.4879748307     A.U. after    1 cycles
             Convg  =    0.7562D-10             -V/T =  2.0099
 Range of M.O.s used for correlation:     1    39
 NBasis=    39 NAE=     5 NBE=     5 NFC=     0 NFV=     0
 NROrb=     39 NOA=     5 NOB=     5 NVA=    34 NVB=    34
 Symmetrizing basis deriv contribution to polar:
 IMax=3 JMax=2 DiffMx= 0.00D+00
 G2DrvN: will do     6 centers at a time, making    1 passes doing MaxLOS=2.
 Calling FoFCou, ICntrl=  3107 FMM=F I1Cent=   0 AccDes= 0.00D+00.
 FoFDir/FoFCou used for L=0 through L=2.
 End of G2Drv Frequency-dependent properties file   721 does not exist.
 End of G2Drv Frequency-dependent properties file   722 does not exist.
          IDoAtm=11111
          Differentiating once with respect to electric field.
                with respect to dipole field.
          Differentiating once with respect to nuclear coordinates.
          Keep R1 ints in memory in canonical form, NReq=1125958.
          There are     9 degrees of freedom in the 1st order CPHF.  IDoFFX=4.
      9 vectors produced by pass  0 Test12= 1.89D-15 1.11D-08 XBig12= 4.81D+00 1.26D+00.
 AX will form     9 AO Fock derivatives at one time.
      9 vectors produced by pass  1 Test12= 1.89D-15 1.11D-08 XBig12= 1.07D-01 1.70D-01.
      9 vectors produced by pass  2 Test12= 1.89D-15 1.11D-08 XBig12= 8.38D-04 1.27D-02.
      9 vectors produced by pass  3 Test12= 1.89D-15 1.11D-08 XBig12= 3.60D-06 8.41D-04.
      9 vectors produced by pass  4 Test12= 1.89D-15 1.11D-08 XBig12= 1.53D-08 3.97D-05.
      9 vectors produced by pass  5 Test12= 1.89D-15 1.11D-08 XBig12= 2.03D-11 2.56D-06.
      3 vectors produced by pass  6 Test12= 1.89D-15 1.11D-08 XBig12= 3.66D-14 9.07D-08.
 Inverted reduced A of dimension    57 with in-core refinement.
 Isotropic polarizability for W=    0.000000       13.77 Bohr**3.
 End of Minotr Frequency-dependent properties file   721 does not exist.
 End of Minotr Frequency-dependent properties file   722 does not exist.

 **********************************************************************

            Population analysis using the SCF density.

 **********************************************************************

 Orbital symmetries:
       Occupied  (A1) (A1) (T2) (T2) (T2)
       Virtual   (A1) (T2) (T2) (T2) (T2) (T2) (T2) (A1) (T2) (T2)
                 (T2) (T2) (T2) (T2) (A1) (A1) (E) (E) (T1) (T1)
                 (T1) (T2) (T2) (T2) (T2) (T2) (T2) (E) (E) (A1)
                 (T2) (T2) (T2) (A1)
 The electronic state is 1-A1.
 Alpha  occ. eigenvalues --  -10.52762  -0.78604  -0.45551  -0.45551  -0.45551
 Alpha virt. eigenvalues --    0.03781   0.07103   0.07103   0.07103   0.22972
 Alpha virt. eigenvalues --    0.22972   0.22972   0.31070   0.68499   0.68499
 Alpha virt. eigenvalues --    0.68499   0.97655   0.97655   0.97655   1.11063
 Alpha virt. eigenvalues --    1.16861   1.42563   1.42563   2.09279   2.09279
 Alpha virt. eigenvalues --    2.09279   2.14447   2.14447   2.14447   2.64846
 Alpha virt. eigenvalues --    2.64846   2.64846   2.91990   2.91990   3.15370
 Alpha virt. eigenvalues --    3.41005   3.41005   3.41005   4.44494
          Condensed to atoms (all electrons):
              1          2          3          4          5
     1  C    5.073447   0.391717   0.391717   0.391717   0.391717
     2  H    0.391717   0.519938  -0.023912  -0.023912  -0.023912
     3  H    0.391717  -0.023912   0.519938  -0.023912  -0.023912
     4  H    0.391717  -0.023912  -0.023912   0.519938  -0.023912
     5  H    0.391717  -0.023912  -0.023912  -0.023912   0.519938
 Mulliken atomic charges:
              1
     1  C   -0.640317
     2  H    0.160079
     3  H    0.160079
     4  H    0.160079
     5  H    0.160079
 Sum of Mulliken atomic charges =   0.00000
 Mulliken charges with hydrogens summed into heavy atoms:
              1
     1  C    0.000000
 Sum of Mulliken charges with hydrogens summed into heavy atoms =   0.00000
 APT atomic charges:
              1
     1  C   -0.040482
     2  H    0.010120
     3  H    0.010120
     4  H    0.010120
     5  H    0.010120
 Sum of APT charges=   0.00000
 APT Atomic charges with hydrogens summed into heavy atoms:
              1
     1  C    0.000000
     2  H    0.000000
     3  H    0.000000
     4  H    0.000000
     5  H    0.000000
 Sum of APT charges=   0.00000
 Electronic spatial extent (au):  <R**2>=             35.9023
 Charge=              0.0000 electrons
 Dipole moment (field-independent basis, Debye):
    X=              0.0000    Y=              0.0000    Z=              0.0000  Tot=              0.0000
 Quadrupole moment (field-independent basis, Debye-Ang):
   XX=             -8.4724   YY=             -8.4724   ZZ=             -8.4724
   XY=              0.0000   XZ=              0.0000   YZ=              0.0000
 Traceless Quadrupole moment (field-independent basis, Debye-Ang):
   XX=              0.0000   YY=              0.0000   ZZ=              0.0000
   XY=              0.0000   XZ=              0.0000   YZ=              0.0000
 Octapole moment (field-independent basis, Debye-Ang**2):
  XXX=              0.0000  YYY=              0.0000  ZZZ=              0.0000  XYY=              0.0000
  XXY=              0.0000  XXZ=              0.0000  XZZ=              0.0000  YZZ=              0.0000
  YYZ=              0.0000  XYZ=              0.7491
 Hexadecapole moment (field-independent basis, Debye-Ang**3):
 XXXX=            -17.1605 YYYY=            -17.1605 ZZZZ=            -17.1605 XXXY=              0.0000
 XXXZ=              0.0000 YYYX=              0.0000 YYYZ=              0.0000 ZZZX=              0.0000
 ZZZY=              0.0000 XXYY=             -5.2303 XXZZ=             -5.2303 YYZZ=             -5.2303
 XXYZ=              0.0000 YYXZ=              0.0000 ZZXY=              0.0000
 N-N= 1.342188079045D+01 E-N=-1.198433077501D+02  KE= 4.008969338891D+01
 Symmetry A    KE= 3.436291031747D+01
 Symmetry B1   KE= 1.908927690479D+00
 Symmetry B2   KE= 1.908927690479D+00
 Symmetry B3   KE= 1.908927690479D+00
  Exact polarizability:  13.767   0.000  13.767   0.000   0.000  13.767
 Approx polarizability:  13.624   0.000  13.624   0.000   0.000  13.624
 Calling FoFJK, ICntrl=    100127 FMM=F ISym2X=1 I1Cent= 0 IOpClX= 0 NMat=1 NMatS=1 NMatT=0.
 Full mass-weighted force constant matrix:
 Low frequencies ---   -0.0013   -0.0010   -0.0008  133.3629  133.3629  133.3629
 Low frequencies --- 1356.0574 1356.0574 1356.0574
 Diagonal vibrational polarizability:
        0.3369936       0.3369937       0.3369936
 Harmonic frequencies (cm**-1), IR intensities (KM/Mole), Raman scattering
 activities (A**4/AMU), depolarization ratios for plane and unpolarized
 incident light, reduced masses (AMU), force constants (mDyne/A),
 and normal coordinates:
                     1                      2                      3
                    T2                     T2                     T2
 Frequencies --  1356.0574              1356.0574              1356.0574
 Red. masses --     1.1785                 1.1785                 1.1785
 Frc consts  --     1.2769                 1.2769                 1.2769
 IR Inten    --    19.3331                19.3331                19.3331
  Atom  AN      X      Y      Z        X      Y      Z        X      Y      Z
     1   6     0.12  -0.02   0.00     0.02   0.12   0.00     0.00   0.00   0.12
     2   1    -0.40   0.27   0.21     0.18  -0.34   0.27     0.23   0.23  -0.36
     3   1    -0.39   0.28  -0.20     0.19  -0.34  -0.25    -0.23  -0.24  -0.38
     4   1    -0.34  -0.18   0.26    -0.28  -0.39  -0.20     0.22  -0.24  -0.37
     5   1    -0.34  -0.19  -0.25    -0.27  -0.40   0.21    -0.24   0.22  -0.37
                     4                      5                      6
                     E                      E                     A1
 Frequencies --  1575.4793              1575.4793              3069.8836
 Red. masses --     1.0078                 1.0078                 1.0078
 Frc consts  --     1.4739                 1.4739                 5.5960
 IR Inten    --     0.0000                 0.0000                 0.0000
  Atom  AN      X      Y      Z        X      Y      Z        X      Y      Z
     1   6     0.00   0.00   0.00     0.00   0.00   0.00     0.00   0.00   0.00
     2   1    -0.21  -0.20   0.41    -0.35   0.36   0.00    -0.29  -0.29  -0.29
     3   1     0.21   0.20   0.41     0.35  -0.36   0.00     0.29   0.29  -0.29
     4   1     0.21  -0.20  -0.41     0.35   0.36   0.00     0.29  -0.29   0.29
     5   1    -0.21   0.20  -0.41    -0.35  -0.36   0.00    -0.29   0.29   0.29
                     7                      8                      9
                    T2                     T2                     T2
 Frequencies --  3195.4510              3195.4510              3195.4510
 Red. masses --     1.1020                 1.1020                 1.1020
 Frc consts  --     6.6300                 6.6300                 6.6300
 IR Inten    --    20.5135                20.5135                20.5135
  Atom  AN      X      Y      Z        X      Y      Z        X      Y      Z
     1   6    -0.01   0.09   0.00     0.09   0.01   0.00     0.00   0.00   0.09
     2   1    -0.28  -0.26  -0.27    -0.30  -0.32  -0.32    -0.28  -0.28  -0.27
     3   1    -0.27  -0.25   0.26    -0.29  -0.31   0.31     0.30   0.30  -0.28
     4   1     0.31  -0.29   0.31    -0.26   0.28  -0.27    -0.30   0.29  -0.28
     5   1     0.32  -0.30  -0.32    -0.25   0.27   0.27     0.29  -0.29  -0.27

 -------------------
 - Thermochemistry -
 -------------------
 Temperature   298.150 Kelvin.  Pressure   1.00000 Atm.
 Atom     1 has atomic number  6 and mass  12.00000
 Atom     2 has atomic number  1 and mass   1.00783
 Atom     3 has atomic number  1 and mass   1.00783
 Atom     4 has atomic number  1 and mass   1.00783
 Atom     5 has atomic number  1 and mass   1.00783
 Molecular mass:    16.03130 amu.
 Principal axes and moments of inertia in atomic units:
                           1         2         3
     Eigenvalues --    11.42558  11.42558  11.42558
           X            0.99083  -0.04445  -0.12759
           Y            0.13511   0.32596   0.93568
           Z            0.00000   0.94434  -0.32898
 This molecule is a spherical top.
 Rotational symmetry number 12.
 Rotational temperatures (Kelvin)      7.58069     7.58069     7.58069
 Rotational constants (GHZ):         157.95616   157.95616   157.95616
 Zero-point vibrational energy     118881.1 (Joules/Mol)
                                   28.41326 (Kcal/Mol)
 Vibrational temperatures:   1951.06  1951.06  1951.06  2266.76  2266.76
          (Kelvin)           4416.87  4597.54  4597.54  4597.54
 
 Zero-point correction=                           0.045279 (Hartree/Particle)
 Thermal correction to Energy=                    0.048146
 Thermal correction to Enthalpy=                  0.049090
 Thermal correction to Gibbs Free Energy=         0.027961
 Sum of electronic and zero-point Energies=            -40.442695
 Sum of electronic and thermal Energies=               -40.439829
 Sum of electronic and thermal Enthalpies=             -40.438885
 Sum of electronic and thermal Free Energies=          -40.460013
 
                     E (Thermal)             CV                S
                      KCal/Mol        Cal/Mol-Kelvin    Cal/Mol-Kelvin
 Total                   30.212              6.445             44.469
 Electronic               0.000              0.000              0.000
 Translational            0.889              2.981             34.261
 Rotational               0.889              2.981             10.126
 Vibrational             28.435              0.484              0.082
                       Q            Log10(Q)             Ln(Q)
 Total Bot       0.137613D-12        -12.861341        -29.614333
 Total V=0       0.924062D+08          7.965701         18.341705
 Vib (Bot)       0.149716D-20        -20.824732        -47.950718
 Vib (V=0)       0.100533D+01          0.002310          0.005319
 Electronic      0.100000D+01          0.000000          0.000000
 Translational   0.252295D+07          6.401908         14.740939
 Rotational      0.364320D+02          1.561483          3.595447
 ***** Axes restored to original set *****
 -------------------------------------------------------------------
 Center     Atomic                   Forces (Hartrees/Bohr)
 Number     Number              X              Y              Z
 -------------------------------------------------------------------
      1        6           0.000000000    0.000000000    0.000000000
      2        1          -0.000081004    0.000229123    0.000000000
      3        1          -0.000081008   -0.000114560   -0.000198426
      4        1          -0.000081008   -0.000114560    0.000198426
      5        1           0.000243021   -0.000000003    0.000000000
 -------------------------------------------------------------------
 Cartesian Forces:  Max     0.000243021 RMS     0.000125495

 GradGradGradGradGradGradGradGradGradGradGradGradGradGradGradGradGradGrad
 Berny optimization.
 Internal  Forces:  Max     0.000243021 RMS     0.000129900
 Search for a local minimum.
 Step number   1 out of a maximum of    2
 All quantities printed in internal units (Hartrees-Bohrs-Radians)
 Second derivative matrix not updated -- analytic derivatives used.
 The second derivative matrix:
                          R1        R2        R3        R4        A1
           R1           0.35500
           R2           0.00148   0.35500
           R3           0.00148   0.00148   0.35500
           R4           0.00148   0.00148   0.00148   0.35500
           A1           0.00189   0.00189  -0.00119  -0.00260   0.01987
           A2           0.00297  -0.00077   0.00330  -0.00551  -0.00881
           A3           0.00580  -0.00466  -0.00516   0.00401  -0.01317
           A4          -0.00077   0.00297   0.00330  -0.00551  -0.00881
           A5          -0.00466   0.00580  -0.00516   0.00401  -0.01317
           A6          -0.00524  -0.00524   0.00489   0.00560   0.02410
           D1          -0.00367  -0.00367  -0.00259   0.00993  -0.01353
           D2           0.00302   0.00302  -0.00777   0.00173   0.00821
           D3          -0.00398   0.00700  -0.00389   0.00086   0.00410
           D4          -0.00700   0.00398   0.00389  -0.00086  -0.00410
                          A2        A3        A4        A5        A6
           A2           0.03745
           A3          -0.02276   0.07317
           A4          -0.00209   0.02499   0.03745
           A5           0.02499  -0.03548  -0.02276   0.07317
           A6          -0.02878  -0.02675  -0.02878  -0.02675   0.08697
           D1          -0.01086   0.01476  -0.01086   0.01476   0.00574
           D2          -0.00943   0.00696  -0.00943   0.00696  -0.00326
           D3          -0.01431  -0.00055   0.00488   0.00750  -0.00163
           D4          -0.00488  -0.00750   0.01431   0.00055   0.00163
                          D1        D2        D3        D4
           D1           0.02988
           D2           0.00150   0.01857
           D3           0.00075   0.00928   0.01886
           D4          -0.00075  -0.00928   0.00957   0.01886
     Eigenvalues ---    0.03812   0.04295   0.06526   0.13229   0.13281
     Eigenvalues ---    0.35436   0.35438   0.35463   0.359441000.00000
     Eigenvalues --- 1000.000001000.000001000.000001000.00000
 Angle between quadratic step and forces=   0.00 degrees.
 Linear search not attempted -- first point.
 Iteration  1 RMS(Cart)=  0.00036140 RMS(Int)=  0.00000000
 Iteration  2 RMS(Cart)=  0.00000000 RMS(Int)=  0.00000000
 ClnCor:  largest displacement from symmetrization is 6.75D-13 for atom     5.
 Variable       Old X    -DE/DX   Delta X   Delta X   Delta X     New X
                                 (Linear)    (Quad)   (Total)
    R1        2.06187  -0.00024   0.00000  -0.00068  -0.00068   2.06120
    R2        2.06187  -0.00024   0.00000  -0.00068  -0.00068   2.06120
    R3        2.06187  -0.00024   0.00000  -0.00068  -0.00068   2.06120
    R4        2.06187  -0.00024   0.00000  -0.00068  -0.00068   2.06120
    A1        1.91063   0.00000   0.00000   0.00000   0.00000   1.91063
    A2        1.91063   0.00000   0.00000   0.00000   0.00000   1.91063
    A3        1.91063   0.00000   0.00000   0.00000   0.00000   1.91063
    A4        1.91063   0.00000   0.00000   0.00000   0.00000   1.91063
    A5        1.91063   0.00000   0.00000   0.00000   0.00000   1.91063
    A6        1.91063   0.00000   0.00000   0.00000   0.00000   1.91063
    D1       -2.09440   0.00000   0.00000   0.00000   0.00000  -2.09440
    D2        2.09440   0.00000   0.00000   0.00000   0.00000   2.09440
    D3       -2.09440   0.00000   0.00000   0.00000   0.00000  -2.09440
    D4        2.09440   0.00000   0.00000   0.00000   0.00000   2.09440
         Item               Value     Threshold  Converged?
 Maximum Force            0.000243     0.000450     YES
 RMS     Force            0.000130     0.000300     YES
 Maximum Displacement     0.000676     0.001800     YES
 RMS     Displacement     0.000361     0.001200     YES
 Predicted change in Energy=-3.286219D-07
 Optimization completed.
    -- Stationary point found.
                           ----------------------------
                           !   Optimized Parameters   !
                           ! (Angstroms and Degrees)  !
 --------------------------                            --------------------------
 ! Name  Definition              Value          Derivative Info.                !
 --------------------------------------------------------------------------------
 ! R1    R(1,2)                  1.0911         -DE/DX =   -0.0002              !
 ! R2    R(1,3)                  1.0911         -DE/DX =   -0.0002              !
 ! R3    R(1,4)                  1.0911         -DE/DX =   -0.0002              !
 ! R4    R(1,5)                  1.0911         -DE/DX =   -0.0002              !
 ! A1    A(2,1,3)              109.4712         -DE/DX =    0.0                 !
 ! A2    A(2,1,4)              109.4712         -DE/DX =    0.0                 !
 ! A3    A(2,1,5)              109.4712         -DE/DX =    0.0                 !
 ! A4    A(3,1,4)              109.4712         -DE/DX =    0.0                 !
 ! A5    A(3,1,5)              109.4712         -DE/DX =    0.0                 !
 ! A6    A(4,1,5)              109.4712         -DE/DX =    0.0                 !
 ! D1    D(2,1,4,3)           -120.0            -DE/DX =    0.0                 !
 ! D2    D(2,1,5,3)            120.0            -DE/DX =    0.0                 !
 ! D3    D(2,1,5,4)           -120.0            -DE/DX =    0.0                 !
 ! D4    D(3,1,5,4)            120.0            -DE/DX =    0.0                 !
 --------------------------------------------------------------------------------
 GradGradGradGradGradGradGradGradGradGradGradGradGradGradGradGradGradGrad

 1|1|UNPC-DESKTOP-319GPER|Freq|RM062X|6-31+G(d,p)|C1H4|SAGAD|08-Oct-202
 0|0||#N Geom=AllCheck Guess=TCheck SCRF=Check GenChk RM062X/6-31+G(d,p
 ) Freq||Calculation of methane with m062x||0,1|C,-5.60103382,1.0369551
 26,-0.873651501|H,-5.2373472811,0.0082545753,-0.87365238|H,-5.23732785
 96,1.5512982803,0.0172254914|H,-5.2373292927,1.5512992961,-1.764528492
 1|H,-6.6921308466,1.0369683524,-0.8736506234||Version=IA32W-G09RevA.02
 |State=1-A1|HF=-40.4879748|RMSD=7.562e-011|RMSF=1.255e-004|ZeroPoint=0
 .0452794|Thermal=0.0481459|Dipole=0.,0.,0.|DipoleDeriv=-0.0404818,0.,0
 .,0.,-0.0404818,0.,0.,0.,-0.0404818,0.0576416,0.0672007,0.,0.0672007,-
 0.1086799,-0.0000002,0.,-0.0000002,0.0813997,0.057639,-0.0336017,-0.05
 82004,-0.0336017,0.0338811,-0.0823054,-0.0582004,-0.0823054,-0.0611588
 ,0.0576392,-0.0336016,0.0582001,-0.0336016,0.0338809,0.0823056,0.05820
 01,0.0823056,-0.0611588,-0.132438,0.0000026,0.0000002,0.0000026,0.0813
 997,0.,0.0000002,0.,0.0813997|Polar=13.7674632,0.,13.7674632,0.,0.,13.
 7674632|PG=TD [O(C1),4C3(H1)]|NImag=0||0.56481230,0.,0.56481230,0.,0.,
 0.56481230,-0.07828646,0.08897181,0.00000008,0.08024487,0.08897181,-0.
 29849138,-0.00000021,-0.09713657,0.32065753,0.00000008,-0.00000022,-0.
 04683139,-0.00000008,0.00000023,0.04590323,-0.07828982,-0.04448766,-0.
 07705563,0.00319608,0.00477440,0.01086569,0.08024853,-0.04448766,-0.10
 974464,-0.10896999,-0.01179773,-0.01227717,-0.02533189,0.04857021,0.11
 458990,-0.07705563,-0.10896999,-0.23557476,0.00129809,0.00173036,0.001
 34896,0.08412687,0.11896995,0.25196719,-0.07828957,-0.04448758,0.07705
 533,0.00319606,0.00477441,-0.01086569,0.00319632,0.00702301,-0.0095680
 9,0.08024826,-0.04448758,-0.10974489,0.10897021,-0.01179769,-0.0122772
 0,0.02533190,0.00702298,0.00816195,-0.01353095,0.04857011,0.11459017,0
 .07705533,0.10897021,-0.23557476,-0.00129811,-0.00173039,0.00134901,0.
 00956807,0.01353097,-0.01909040,-0.08412654,-0.11897018,0.25196719,-0.
 32994645,0.00000343,0.00000023,-0.00835054,-0.00138405,0.,-0.00835111,
 0.00069218,0.00119876,-0.00835107,0.00069218,-0.00119875,0.35499917,0.
 00000343,-0.04683139,0.,0.03176018,0.00238822,-0.00000002,-0.01587992,
 -0.00073003,0.00180063,-0.01587995,-0.00073002,-0.00180061,-0.00000375
 ,0.04590323,0.00000023,0.,-0.04683139,0.00000002,0.,-0.00176981,-0.027
 50499,0.00180097,0.00134901,0.02750499,-0.00180097,0.00134896,-0.00000
 025,0.,0.04590323||0.,0.,0.,0.00008100,-0.00022912,0.,0.00008101,0.000
 11456,0.00019843,0.00008101,0.00011456,-0.00019843,-0.00024302,0.,0.||
 |@


 THEREFORE SHALL EVIL COME UPON THEE...
 THOU SHALT NOT KNOW FROM WHENCE IT RISETH...
 AND MISCHIEF SHALL FALL UPON THEE...
 THOU SHALT NOT BE ABLE TO PUT IT OFF...
 AND DESOLATION SHALL COME UPON THEE SUDDENLY...
 WHICH THOU SHALT NOT KNOW...

                                         ISAIAH 47.11
 Job cpu time:  0 days  0 hours  0 minutes  7.0 seconds.
 File lengths (MBytes):  RWF=      5 Int=      0 D2E=      0 Chk=      1 Scr=      1
 Normal termination of Gaussian 09 at Thu Oct 08 01:28:20 2020.
