 Entering Link 1 = C:\G09W\l1.exe PID=      1516.
  
 Copyright (c) 1988,1990,1992,1993,1995,1998,2003,2009, Gaussian, Inc.
                  All Rights Reserved.
  
 This is part of the Gaussian(R) 09 program.  It is based on
 the Gaussian(R) 03 system (copyright 2003, Gaussian, Inc.),
 the Gaussian(R) 98 system (copyright 1998, Gaussian, Inc.),
 the Gaussian(R) 94 system (copyright 1995, Gaussian, Inc.),
 the Gaussian 92(TM) system (copyright 1992, Gaussian, Inc.),
 the Gaussian 90(TM) system (copyright 1990, Gaussian, Inc.),
 the Gaussian 88(TM) system (copyright 1988, Gaussian, Inc.),
 the Gaussian 86(TM) system (copyright 1986, Carnegie Mellon
 University), and the Gaussian 82(TM) system (copyright 1983,
 Carnegie Mellon University). Gaussian is a federally registered
 trademark of Gaussian, Inc.
  
 This software contains proprietary and confidential information,
 including trade secrets, belonging to Gaussian, Inc.
  
 This software is provided under written license and may be
 used, copied, transmitted, or stored only in accord with that
 written license.
  
 The following legend is applicable only to US Government
 contracts under FAR:
  
                    RESTRICTED RIGHTS LEGEND
  
 Use, reproduction and disclosure by the US Government is
 subject to restrictions as set forth in subparagraphs (a)
 and (c) of the Commercial Computer Software - Restricted
 Rights clause in FAR 52.227-19.
  
 Gaussian, Inc.
 340 Quinnipiac St., Bldg. 40, Wallingford CT 06492
  
  
 ---------------------------------------------------------------
 Warning -- This program may not be used in any manner that
 competes with the business of Gaussian, Inc. or will provide
 assistance to any competitor of Gaussian, Inc.  The licensee
 of this program is prohibited from giving any competitor of
 Gaussian, Inc. access to this program.  By using this program,
 the user acknowledges that Gaussian, Inc. is engaged in the
 business of creating and licensing software in the field of
 computational chemistry and represents and warrants to the
 licensee that it is not a competitor of Gaussian, Inc. and that
 it will not use this program in any manner prohibited above.
 ---------------------------------------------------------------
  

 Cite this work as:
 Gaussian 09, Revision A.02,
 M. J. Frisch, G. W. Trucks, H. B. Schlegel, G. E. Scuseria, 
 M. A. Robb, J. R. Cheeseman, G. Scalmani, V. Barone, B. Mennucci, 
 G. A. Petersson, H. Nakatsuji, M. Caricato, X. Li, H. P. Hratchian, 
 A. F. Izmaylov, J. Bloino, G. Zheng, J. L. Sonnenberg, M. Hada, 
 M. Ehara, K. Toyota, R. Fukuda, J. Hasegawa, M. Ishida, T. Nakajima, 
 Y. Honda, O. Kitao, H. Nakai, T. Vreven, J. A. Montgomery, Jr., 
 J. E. Peralta, F. Ogliaro, M. Bearpark, J. J. Heyd, E. Brothers, 
 K. N. Kudin, V. N. Staroverov, R. Kobayashi, J. Normand, 
 K. Raghavachari, A. Rendell, J. C. Burant, S. S. Iyengar, J. Tomasi, 
 M. Cossi, N. Rega, J. M. Millam, M. Klene, J. E. Knox, J. B. Cross, 
 V. Bakken, C. Adamo, J. Jaramillo, R. Gomperts, R. E. Stratmann, 
 O. Yazyev, A. J. Austin, R. Cammi, C. Pomelli, J. W. Ochterski, 
 R. L. Martin, K. Morokuma, V. G. Zakrzewski, G. A. Voth, 
 P. Salvador, J. J. Dannenberg, S. Dapprich, A. D. Daniels, 
 O. Farkas, J. B. Foresman, J. V. Ortiz, J. Cioslowski, 
 and D. J. Fox, Gaussian, Inc., Wallingford CT, 2009.
 
 ******************************************
 Gaussian 09:  IA32W-G09RevA.02 11-Jun-2009
                19-Jan-2021 
 ******************************************
 %chk=D:\Documents\rayGit\FQ\quimicaComputacional\p4Pka\reactivos\4WATERSM062X.ch
 k
 %mem=1500MB
 %nprocshared=4
 Will use up to    4 processors via shared memory.
 ------------------------------------------------------------
 # opt freq geom=check guess=check 6-31+g(d,p) scrf=smd m062x
 ------------------------------------------------------------
 1/14=-1,18=20,19=15,26=3,29=2,38=1/1,3;
 2/9=110,12=2,40=1/2;
 3/5=1,6=6,7=111,11=2,14=-4,16=1,25=1,30=1,70=32201,71=1,72=1,74=-55,116=-2/1,2,3;
 4/5=1/1;
 5/5=2,38=6/2;
 6/7=2,8=2,9=2,10=2,28=1/1;
 7//1,2,3,16;
 1/14=-1,18=20,19=15/3(2);
 2/9=110/2;
 99//99;
 2/9=110/2;
 3/5=1,6=6,7=111,11=2,14=-2,16=1,25=1,30=1,70=32205,71=1,74=-55/1,2,3;
 4/5=5,16=3/1;
 5/5=2,38=5/2;
 7//1,2,3,16;
 1/14=-1,18=20,19=15/3(-5);
 2/9=110/2;
 6/7=2,8=2,9=2,10=2,19=2,28=1/1;
 99/9=1/99;
 ------------------------------
 Hidronio m062x con 4 aguas two
 ------------------------------
 Redundant internal coordinates taken from checkpoint file:
 D:\Documents\rayGit\FQ\quimicaComputacional\p4Pka\reactivos\4WATERSM062X.chk
 Charge =  0 Multiplicity = 1
 O,0,0.2287432785,0.8555804894,0.5661391149
 H,0,-0.2484256431,0.4200092519,1.2957636024
 H,0,1.0186247624,0.3097338176,0.4005526756
 O,0,2.5631889371,-0.6809055151,0.0677653916
 O,0,-1.3631349348,-0.8002580026,-3.0990461642
 O,0,-1.228564403,-0.3844413341,2.6676132053
 H,0,3.3444050504,-0.116884049,0.1380427226
 H,0,2.5812774272,-1.0239606851,-0.8360600654
 H,0,-0.8566547898,-0.1962913641,-3.6563205789
 H,0,-2.1667074329,-0.3132574739,-2.8768503748
 H,0,-0.9444972245,-0.0382346811,3.5240874202
 H,0,-2.1649721174,-0.1538886739,2.6054050507
 Recover connectivity data from disk.

 GradGradGradGradGradGradGradGradGradGradGradGradGradGradGradGradGradGrad
 Berny optimization.
 Initialization pass.
                           ----------------------------
                           !    Initial Parameters    !
                           ! (Angstroms and Degrees)  !
 --------------------------                            --------------------------
 ! Name  Definition              Value          Derivative Info.                !
 --------------------------------------------------------------------------------
 ! R1    R(1,2)                  0.9746         estimate D2E/DX2                !
 ! R2    R(1,3)                  0.9743         estimate D2E/DX2                !
 ! R3    R(1,5)                  4.3254         estimate D2E/DX2                !
 ! R4    R(1,9)                  4.4848         estimate D2E/DX2                !
 ! R5    R(1,10)                 4.3541         estimate D2E/DX2                !
 ! R6    R(2,5)                  4.6953         estimate D2E/DX2                !
 ! R7    R(2,6)                  1.8681         estimate D2E/DX2                !
 ! R8    R(3,4)                  1.8649         estimate D2E/DX2                !
 ! R9    R(3,5)                  4.3763         estimate D2E/DX2                !
 ! R10   R(4,7)                  0.9661         estimate D2E/DX2                !
 ! R11   R(4,8)                  0.9669         estimate D2E/DX2                !
 ! R12   R(5,9)                  0.9653         estimate D2E/DX2                !
 ! R13   R(5,10)                 0.9655         estimate D2E/DX2                !
 ! R14   R(6,11)                 0.9665         estimate D2E/DX2                !
 ! R15   R(6,12)                 0.9664         estimate D2E/DX2                !
 ! A1    A(2,1,3)              105.8898         estimate D2E/DX2                !
 ! A2    A(2,1,9)              118.7867         estimate D2E/DX2                !
 ! A3    A(2,1,10)             101.6923         estimate D2E/DX2                !
 ! A4    A(3,1,9)               84.5369         estimate D2E/DX2                !
 ! A5    A(3,1,10)              99.2786         estimate D2E/DX2                !
 ! A6    A(9,1,10)              19.8498         estimate D2E/DX2                !
 ! A7    A(5,2,6)              116.8002         estimate D2E/DX2                !
 ! A8    A(4,3,5)               99.9812         estimate D2E/DX2                !
 ! A9    A(3,4,7)              110.2812         estimate D2E/DX2                !
 ! A10   A(3,4,8)              111.7632         estimate D2E/DX2                !
 ! A11   A(7,4,8)              105.0702         estimate D2E/DX2                !
 ! A12   A(2,5,3)               19.3322         estimate D2E/DX2                !
 ! A13   A(2,5,9)              104.6657         estimate D2E/DX2                !
 ! A14   A(2,5,10)              81.437          estimate D2E/DX2                !
 ! A15   A(3,5,9)               90.9972         estimate D2E/DX2                !
 ! A16   A(3,5,10)              98.1051         estimate D2E/DX2                !
 ! A17   A(9,5,10)             104.7107         estimate D2E/DX2                !
 ! A18   A(2,6,11)             110.0171         estimate D2E/DX2                !
 ! A19   A(2,6,12)             111.0015         estimate D2E/DX2                !
 ! A20   A(11,6,12)            104.8558         estimate D2E/DX2                !
 ! A21   L(1,2,6,10,-1)        178.4635         estimate D2E/DX2                !
 ! A22   L(1,3,4,9,-1)         180.168          estimate D2E/DX2                !
 ! A23   L(1,2,6,10,-2)        181.9458         estimate D2E/DX2                !
 ! A24   L(1,3,4,9,-2)         177.9885         estimate D2E/DX2                !
 ! D1    D(2,1,4,7)           -124.0385         estimate D2E/DX2                !
 ! D2    D(2,1,4,8)            119.8444         estimate D2E/DX2                !
 ! D3    D(9,1,4,7)            117.4639         estimate D2E/DX2                !
 ! D4    D(9,1,4,8)              1.3468         estimate D2E/DX2                !
 ! D5    D(10,1,4,7)           130.4682         estimate D2E/DX2                !
 ! D6    D(10,1,4,8)            14.351          estimate D2E/DX2                !
 ! D7    D(3,1,6,11)            90.615          estimate D2E/DX2                !
 ! D8    D(3,1,6,12)          -154.0416         estimate D2E/DX2                !
 ! D9    D(9,1,6,11)          -176.3749         estimate D2E/DX2                !
 ! D10   D(9,1,6,12)           -61.0315         estimate D2E/DX2                !
 ! D11   D(10,1,6,11)         -166.0575         estimate D2E/DX2                !
 ! D12   D(10,1,6,12)          -50.7141         estimate D2E/DX2                !
 ! D13   D(6,2,5,3)           -142.0436         estimate D2E/DX2                !
 ! D14   D(6,2,5,9)            171.7153         estimate D2E/DX2                !
 ! D15   D(6,2,5,10)            68.6511         estimate D2E/DX2                !
 ! D16   D(5,2,6,11)          -177.7063         estimate D2E/DX2                !
 ! D17   D(5,2,6,12)           -62.1026         estimate D2E/DX2                !
 ! D18   D(5,3,4,7)            129.3908         estimate D2E/DX2                !
 ! D19   D(5,3,4,8)             12.9041         estimate D2E/DX2                !
 ! D20   D(4,3,5,2)            146.5414         estimate D2E/DX2                !
 ! D21   D(4,3,5,9)            -77.7919         estimate D2E/DX2                !
 ! D22   D(4,3,5,10)           177.1963         estimate D2E/DX2                !
 --------------------------------------------------------------------------------
 Trust Radius=3.00D-01 FncErr=1.00D-07 GrdErr=1.00D-06
 Number of steps in this run=  71 maximum allowed number of steps= 100.
 GradGradGradGradGradGradGradGradGradGradGradGradGradGradGradGradGradGrad

                          Input orientation:                          
 ---------------------------------------------------------------------
 Center     Atomic      Atomic             Coordinates (Angstroms)
 Number     Number       Type             X           Y           Z
 ---------------------------------------------------------------------
      1          8           0        0.228743    0.855580    0.566139
      2          1           0       -0.248426    0.420009    1.295764
      3          1           0        1.018625    0.309734    0.400553
      4          8           0        2.563189   -0.680906    0.067765
      5          8           0       -1.363135   -0.800258   -3.099046
      6          8           0       -1.228564   -0.384441    2.667613
      7          1           0        3.344405   -0.116884    0.138043
      8          1           0        2.581277   -1.023961   -0.836060
      9          1           0       -0.856655   -0.196291   -3.656321
     10          1           0       -2.166707   -0.313257   -2.876850
     11          1           0       -0.944497   -0.038235    3.524087
     12          1           0       -2.164972   -0.153889    2.605405
 ---------------------------------------------------------------------
                    Distance matrix (angstroms):
                    1          2          3          4          5
     1  O    0.000000
     2  H    0.974559   0.000000
     3  H    0.974310   1.555307   0.000000
     4  O    2.838803   3.259627   1.864884   0.000000
     5  O    4.325443   4.695315   4.376306   5.045687   0.000000
     6  O    2.842111   1.868096   3.266696   4.607005   5.783197
     7  H    3.291854   3.812742   2.379111   0.966104   5.753840
     8  H    3.321634   3.825826   2.397881   0.966910   4.552970
     9  H    4.484829   5.027217   4.497883   5.079271   0.965325
    10  H    4.354141   4.650612   4.612573   5.583713   0.965541
    11  H    3.305277   2.379061   3.705590   4.966191   6.679958
    12  H    3.302652   2.391165   3.900206   5.391926   5.796680
                    6          7          8          9         10
     6  O    0.000000
     7  H    5.232816   0.000000
     8  H    5.215324   1.534284   0.000000
     9  H    6.337654   5.661484   4.523083   0.000000
    10  H    5.623723   6.284943   5.216635   1.528886   0.000000
    11  H    0.966489   5.464995   5.693297   7.182685   6.522380
    12  H    0.966377   6.036761   5.926853   6.397085   5.484572
                   11         12
    11  H    0.000000
    12  H    1.531963   0.000000
 Stoichiometry    H8O4
 Framework group  C1[X(H8O4)]
 Deg. of freedom    30
 Full point group                 C1      NOp   1
 Largest Abelian subgroup         C1      NOp   1
 Largest concise Abelian subgroup C1      NOp   1
                         Standard orientation:                         
 ---------------------------------------------------------------------
 Center     Atomic      Atomic             Coordinates (Angstroms)
 Number     Number       Type             X           Y           Z
 ---------------------------------------------------------------------
      1          8           0        0.640691    0.080179    1.025952
      2          1           0        1.259270   -0.461953    0.503250
      3          1           0        0.510419    0.901130    0.517671
      4          8           0        0.255002    2.504957   -0.399004
      5          8           0       -3.340270   -1.032038   -0.248558
      6          8           0        2.414260   -1.564134   -0.466790
      7          1           0        0.475307    3.254366    0.169512
      8          1           0       -0.672090    2.636341   -0.640150
      9          1           0       -3.767252   -0.485792    0.423122
     10          1           0       -3.161977   -1.871064    0.194745
     11          1           0        3.329973   -1.390211   -0.211210
     12          1           0        2.268884   -2.494529   -0.249732
 ---------------------------------------------------------------------
 Rotational constants (GHZ):      2.3793659      1.4531402      0.9910728
 Standard basis: 6-31+G(d,p) (6D, 7F)
 There are   116 symmetry adapted basis functions of A   symmetry.
 Integral buffers will be    262144 words long.
 Raffenetti 2 integral format.
 Two-electron integral symmetry is turned on.
   116 basis functions,   184 primitive gaussians,   116 cartesian basis functions
    20 alpha electrons       20 beta electrons
       nuclear repulsion energy       116.2829089939 Hartrees.
 NAtoms=   12 NActive=   12 NUniq=   12 SFac= 7.50D-01 NAtFMM=   80 NAOKFM=F Big=F
 ------------------------------------------------------------------------------
 Polarizable Continuum Model (PCM)
 =================================
 Model                : PCM.
 Atomic radii         : SMD-Coulomb.
 Polarization charges : Total charges.
 Charge compensation  : None.
 Solution method      : Matrix inversion.
 Cavity type          : VdW (van der Waals Surface) (Alpha=1.000).
 Cavity algorithm     : GePol (No added spheres)
                        Default sphere list used, NSphG=   12.
                        Lebedev-Laikov grids with approx.  5.0 points / Ang**2.
                        Smoothing algorithm: Karplus/York (Gamma=1.0000).
                        Polarization charges: spherical gaussians, with
                                              point-specific exponents (IZeta= 3).
                        Self-potential: point-specific (ISelfS= 7).
                        Self-field    : sphere-specific E.n sum rule (ISelfD= 2).
 1st derivatives      : Analytical E(r).r(x)/FMM algorithm (CHGder, D1EAlg=3).
                        Cavity 1st derivative terms included.
 Solvent              : Water, Eps=  78.355300 Eps(inf)=   1.777849
 ------------------------------------------------------------------------------
 Spheres list:
 ISph  on   Nord    Re0     Alpha      Xe            Ye            Ze
    1   O      1    1.520   1.000      0.640691      0.080179      1.025952
    2   H      2    1.200   1.000      1.259270     -0.461953      0.503250
    3   H      3    1.200   1.000      0.510419      0.901130      0.517671
    4   O      4    1.520   1.000      0.255002      2.504957     -0.399004
    5   O      5    1.520   1.000     -3.340270     -1.032038     -0.248558
    6   O      6    1.520   1.000      2.414260     -1.564134     -0.466790
    7   H      7    1.200   1.000      0.475307      3.254366      0.169512
    8   H      8    1.200   1.000     -0.672090      2.636341     -0.640150
    9   H      9    1.200   1.000     -3.767252     -0.485792      0.423122
   10   H     10    1.200   1.000     -3.161977     -1.871064      0.194745
   11   H     11    1.200   1.000      3.329973     -1.390211     -0.211210
   12   H     12    1.200   1.000      2.268884     -2.494529     -0.249732
 ------------------------------------------------------------------------------
 Separa: There are  2 disjoint cavities,
 ------------------------------------------------------------------------------
 Atomic radii for non-electrostatic terms: SMD-CDS.
 ------------------------------------------------------------------------------
 Separa: There are  2 disjoint cavities,
 Nuclear repulsion after PCM non-electrostatic terms =      116.2905937442 Hartrees.
 One-electron integrals computed using PRISM.
 NBasis=   116 RedAO= T  NBF=   116
 NBsUse=   116 1.00D-06 NBFU=   116
 Initial guess read from the checkpoint file:  D:\Documents\rayGit\FQ\quimicaComp
 utacional\p4Pka\reactivos\4WATERSM062X.chk
 B after Tr=     0.000000    0.000000    0.000000
         Rot=    1.000000    0.000000    0.000000    0.000000 Ang=   0.00 deg.
 Initial guess orbital symmetries:
       Occupied  (A) (A) (A) (A) (A) (A) (A) (A) (A) (A) (A) (A)
                 (A) (A) (A) (A) (A) (A) (A) (A)
       Virtual   (A) (A) (A) (A) (A) (A) (A) (A) (A) (A) (A) (A)
                 (A) (A) (A) (A) (A) (A) (A) (A) (A) (A) (A) (A)
                 (A) (A) (A) (A) (A) (A) (A) (A) (A) (A) (A) (A)
                 (A) (A) (A) (A) (A) (A) (A) (A) (A) (A) (A) (A)
                 (A) (A) (A) (A) (A) (A) (A) (A) (A) (A) (A) (A)
                 (A) (A) (A) (A) (A) (A) (A) (A) (A) (A) (A) (A)
                 (A) (A) (A) (A) (A) (A) (A) (A) (A) (A) (A) (A)
                 (A) (A) (A) (A) (A) (A) (A) (A) (A) (A) (A) (A)
 Requested convergence on RMS density matrix=1.00D-08 within 128 cycles.
 Requested convergence on MAX density matrix=1.00D-06.
 Requested convergence on             energy=1.00D-06.
 No special actions if energy rises.
 Keep R1 ints in memory in canonical form, NReq=27027067.
 PCMQM: There is more than one cavity, setting IComp=0.
 PCMQM: There is more than one cavity, setting IComp=0.
 Error on total polarization charges =  0.05196
 SCF Done:  E(RM062X) =  -305.648457632     A.U. after    1 cycles
             Convg  =    0.1215D-08             -V/T =  2.0089
 SMD-CDS (non-electrostatic) energy             (kcal/mol) =       4.82
 (included in total energy above)

 **********************************************************************

            Population analysis using the SCF density.

 **********************************************************************

 Orbital symmetries:
       Occupied  (A) (A) (A) (A) (A) (A) (A) (A) (A) (A) (A) (A)
                 (A) (A) (A) (A) (A) (A) (A) (A)
       Virtual   (A) (A) (A) (A) (A) (A) (A) (A) (A) (A) (A) (A)
                 (A) (A) (A) (A) (A) (A) (A) (A) (A) (A) (A) (A)
                 (A) (A) (A) (A) (A) (A) (A) (A) (A) (A) (A) (A)
                 (A) (A) (A) (A) (A) (A) (A) (A) (A) (A) (A) (A)
                 (A) (A) (A) (A) (A) (A) (A) (A) (A) (A) (A) (A)
                 (A) (A) (A) (A) (A) (A) (A) (A) (A) (A) (A) (A)
                 (A) (A) (A) (A) (A) (A) (A) (A) (A) (A) (A) (A)
                 (A) (A) (A) (A) (A) (A) (A) (A) (A) (A) (A) (A)
 The electronic state is 1-A.
 Alpha  occ. eigenvalues --  -19.65618 -19.65611 -19.64842 -19.62550  -1.13905
 Alpha  occ. eigenvalues --   -1.13738  -1.12970  -1.10601  -0.60795  -0.60748
 Alpha  occ. eigenvalues --   -0.60113  -0.59326  -0.49896  -0.47934  -0.47608
 Alpha  occ. eigenvalues --   -0.45120  -0.40684  -0.40481  -0.40132  -0.38464
 Alpha virt. eigenvalues --    0.05653   0.08354   0.08973   0.12999   0.13464
 Alpha virt. eigenvalues --    0.13778   0.14273   0.17249   0.17795   0.18446
 Alpha virt. eigenvalues --    0.21018   0.22286   0.22795   0.24682   0.25121
 Alpha virt. eigenvalues --    0.26752   0.27448   0.27960   0.28740   0.31678
 Alpha virt. eigenvalues --    0.34517   0.34917   0.40437   0.41370   0.98612
 Alpha virt. eigenvalues --    0.99741   0.99917   1.07808   1.08957   1.09407
 Alpha virt. eigenvalues --    1.10725   1.12906   1.13277   1.14358   1.15997
 Alpha virt. eigenvalues --    1.18646   1.19757   1.21192   1.21733   1.22012
 Alpha virt. eigenvalues --    1.22425   1.23853   1.25316   1.29292   1.32182
 Alpha virt. eigenvalues --    1.40824   1.47474   1.50083   1.55742   1.56766
 Alpha virt. eigenvalues --    1.57040   1.57845   1.58271   1.58630   1.60166
 Alpha virt. eigenvalues --    1.63998   1.68293   1.71160   1.84375   1.86993
 Alpha virt. eigenvalues --    2.27636   2.28358   2.29217   2.29600   2.29864
 Alpha virt. eigenvalues --    2.30664   2.33231   2.50740   2.56268   2.56989
 Alpha virt. eigenvalues --    2.57677   2.63923   2.64715   2.65291   2.67619
 Alpha virt. eigenvalues --    2.69604   2.70074   2.70442   2.72556   2.73322
 Alpha virt. eigenvalues --    3.06221   3.06557   3.06619   3.07732   3.37710
 Alpha virt. eigenvalues --    3.38379   3.38903   3.52983   3.55285   3.55503
 Alpha virt. eigenvalues --    3.55667   3.69790   3.95510   4.03805   4.12323
 Alpha virt. eigenvalues --    4.19427
          Condensed to atoms (all electrons):
              1          2          3          4          5          6
     1  O    8.456988   0.264235   0.264164  -0.028943  -0.000676  -0.029091
     2  H    0.264235   0.286403  -0.013653   0.001311  -0.000005   0.002318
     3  H    0.264164  -0.013653   0.286807   0.001753  -0.000002   0.001359
     4  O   -0.028943   0.001311   0.001753   8.323152   0.000028   0.000287
     5  O   -0.000676  -0.000005  -0.000002   0.000028   8.277639   0.000026
     6  O   -0.029091   0.002318   0.001359   0.000287   0.000026   8.322255
     7  H    0.000764   0.000021  -0.000981   0.286936  -0.000002  -0.000011
     8  H    0.000697   0.000017  -0.000895   0.287039   0.000016  -0.000011
     9  H   -0.000018   0.000001   0.000001   0.000007   0.287211   0.000000
    10  H   -0.000015   0.000001   0.000002  -0.000002   0.287140  -0.000001
    11  H    0.000661  -0.001183  -0.000007  -0.000014   0.000000   0.287024
    12  H    0.000853  -0.000861   0.000032  -0.000011  -0.000001   0.286902
              7          8          9         10         11         12
     1  O    0.000764   0.000697  -0.000018  -0.000015   0.000661   0.000853
     2  H    0.000021   0.000017   0.000001   0.000001  -0.001183  -0.000861
     3  H   -0.000981  -0.000895   0.000001   0.000002  -0.000007   0.000032
     4  O    0.286936   0.287039   0.000007  -0.000002  -0.000014  -0.000011
     5  O   -0.000002   0.000016   0.287211   0.287140   0.000000  -0.000001
     6  O   -0.000011  -0.000011   0.000000  -0.000001   0.287024   0.286902
     7  H    0.292776  -0.016749   0.000000   0.000000   0.000000   0.000000
     8  H   -0.016749   0.292277  -0.000001   0.000000   0.000000   0.000000
     9  H    0.000000  -0.000001   0.303882  -0.016657   0.000000   0.000000
    10  H    0.000000   0.000000  -0.016657   0.303711   0.000000   0.000000
    11  H    0.000000   0.000000   0.000000   0.000000   0.293128  -0.016833
    12  H    0.000000   0.000000   0.000000   0.000000  -0.016833   0.292618
 Mulliken atomic charges:
              1
     1  O   -0.929619
     2  H    0.461395
     3  H    0.461421
     4  O   -0.871542
     5  O   -0.851373
     6  O   -0.871056
     7  H    0.437246
     8  H    0.437610
     9  H    0.425575
    10  H    0.425819
    11  H    0.437223
    12  H    0.437301
 Sum of Mulliken atomic charges =   0.00000
 Mulliken charges with hydrogens summed into heavy atoms:
              1
     1  O   -0.006803
     4  O    0.003314
     5  O    0.000021
     6  O    0.003468
 Sum of Mulliken charges with hydrogens summed into heavy atoms =   0.00000
 Electronic spatial extent (au):  <R**2>=           1123.5638
 Charge=              0.0000 electrons
 Dipole moment (field-independent basis, Debye):
    X=              0.8742    Y=              0.3544    Z=              1.6071  Tot=              1.8635
 Quadrupole moment (field-independent basis, Debye-Ang):
   XX=            -10.6149   YY=             -2.8845   ZZ=            -34.3862
   XY=             -8.8232   XZ=             -6.0879   YZ=             -1.4780
 Traceless Quadrupole moment (field-independent basis, Debye-Ang):
   XX=              5.3470   YY=             13.0774   ZZ=            -18.4244
   XY=             -8.8232   XZ=             -6.0879   YZ=             -1.4780
 Octapole moment (field-independent basis, Debye-Ang**2):
  XXX=             32.5367  YYY=             14.6709  ZZZ=             -3.6177  XYY=              4.5657
  XXY=            -22.9546  XXZ=             35.8413  XZZ=             -7.1417  YZZ=              1.7534
  YYZ=             12.0514  XYZ=              9.8748
 Hexadecapole moment (field-independent basis, Debye-Ang**3):
 XXXX=           -506.3788 YYYY=           -179.6548 ZZZZ=            -99.3280 XXXY=            -87.8734
 XXXZ=           -110.8790 YYYX=            -38.1162 YYYZ=             18.5963 ZZZX=             -6.0350
 ZZZY=             -3.4528 XXYY=           -110.9575 XXZZ=           -155.6615 YYZZ=            -94.9695
 XXYZ=            -38.5936 YYXZ=              6.2329 ZZXY=             -1.0474
 N-N= 1.162905937442D+02 E-N=-9.545421782065D+02  KE= 3.029494123549D+02
 D1PCM: PCM CHGder 1st derivatives, ID1Alg=3 FixD1E=F DoIter=F DoCFld=F I1PDM=0.
 Calling FoFJK, ICntrl=      2127 FMM=F ISym2X=0 I1Cent= 0 IOpClX= 0 NMat=1 NMatS=1 NMatT=0.
 ***** Axes restored to original set *****
 -------------------------------------------------------------------
 Center     Atomic                   Forces (Hartrees/Bohr)
 Number     Number              X              Y              Z
 -------------------------------------------------------------------
      1        8          -0.000149766    0.000038639    0.000040076
      2        1           0.000054579    0.000056600   -0.000180864
      3        1          -0.000003789   -0.000109557    0.000132266
      4        8          -0.000326174   -0.000322531   -0.000409926
      5        8          -0.000045928   -0.000208835    0.000071722
      6        8           0.000041252    0.000051205    0.000180087
      7        1           0.000295176    0.000086067   -0.000090414
      8        1           0.000098739    0.000226910    0.000471167
      9        1           0.000194237    0.000158919   -0.000123252
     10        1          -0.000104784    0.000032308    0.000079728
     11        1          -0.000057756   -0.000057631   -0.000020877
     12        1           0.000004216    0.000047906   -0.000149711
 -------------------------------------------------------------------
 Cartesian Forces:  Max     0.000471167 RMS     0.000172750

 GradGradGradGradGradGradGradGradGradGradGradGradGradGradGradGradGradGrad
 Berny optimization.
 Internal  Forces:  Max     0.000509859 RMS     0.000100670
 Search for a local minimum.
 Step number   1 out of a maximum of   71
 All quantities printed in internal units (Hartrees-Bohrs-Radians)
 Mixed Optimization -- En-DIIS/RFO-DIIS
 Second derivative matrix not updated -- first step.
     Eigenvalues ---    0.00230   0.00230   0.00230   0.00230   0.00375
     Eigenvalues ---    0.00788   0.03090   0.03182   0.04305   0.04718
     Eigenvalues ---    0.05401   0.05433   0.06494   0.07773   0.08862
     Eigenvalues ---    0.11378   0.13132   0.14233   0.15998   0.15998
     Eigenvalues ---    0.16000   0.16000   0.44741   0.49449   0.51803
     Eigenvalues ---    0.52519   0.54013   0.54101   0.54124   0.54181
     Eigenvalues --- 1000.000001000.000001000.000001000.000001000.00000
     Eigenvalues --- 1000.000001000.000001000.000001000.000001000.00000
     Eigenvalues --- 1000.000001000.000001000.000001000.000001000.00000
     Eigenvalues --- 1000.000001000.000001000.000001000.000001000.00000
     Eigenvalues --- 1000.000001000.000001000.000001000.000001000.00000
     Eigenvalues --- 1000.000001000.000001000.000001000.000001000.00000
     Eigenvalues --- 1000.00000
 RFO step:  Lambda=-6.63509211D-06 EMin= 2.30000000D-03
 Linear search not attempted -- first point.
 Iteration  1 RMS(Cart)=  0.01234164 RMS(Int)=  0.00007116
 Iteration  2 RMS(Cart)=  0.00012059 RMS(Int)=  0.00000426
 Iteration  3 RMS(Cart)=  0.00000000 RMS(Int)=  0.00000426
 Variable       Old X    -DE/DX   Delta X   Delta X   Delta X     New X
                                 (Linear)    (Quad)   (Total)
    R1        1.84165  -0.00012   0.00000  -0.00029  -0.00029   1.84136
    R2        1.84118   0.00008   0.00000   0.00020   0.00020   1.84138
    R3        8.17390   0.00001   0.00000  -0.00239  -0.00238   8.17152
    R4        8.47510   0.00001   0.00000  -0.00319  -0.00319   8.47191
    R5        8.22813  -0.00002   0.00000  -0.00199  -0.00199   8.22614
    R6        8.87286  -0.00006   0.00000  -0.00227  -0.00227   8.87059
    R7        3.53019   0.00001   0.00000   0.00011   0.00011   3.53030
    R8        3.52412   0.00006   0.00000   0.00110   0.00110   3.52522
    R9        8.27002   0.00002   0.00000  -0.00244  -0.00244   8.26758
   R10        1.82567   0.00029   0.00000   0.00053   0.00053   1.82620
   R11        1.82719  -0.00051   0.00000  -0.00094  -0.00094   1.82625
   R12        1.82420   0.00025   0.00000   0.00049   0.00049   1.82469
   R13        1.82461   0.00013   0.00000   0.00024   0.00024   1.82485
   R14        1.82640  -0.00005   0.00000  -0.00010  -0.00010   1.82630
   R15        1.82619   0.00000   0.00000   0.00000   0.00000   1.82619
    A1        1.84813  -0.00002   0.00000  -0.00027  -0.00027   1.84785
    A2        2.07322   0.00002   0.00000   0.00020   0.00020   2.07342
    A3        1.77487  -0.00002   0.00000  -0.00063  -0.00064   1.77423
    A4        1.47545  -0.00001   0.00000   0.00061   0.00061   1.47606
    A5        1.73274   0.00001   0.00000  -0.00007  -0.00007   1.73267
    A6        0.34644   0.00004   0.00000   0.00025   0.00025   0.34670
    A7        2.03855  -0.00007   0.00000  -0.00051  -0.00051   2.03804
    A8        1.74500  -0.00007   0.00000  -0.00058  -0.00059   1.74441
    A9        1.92477   0.00016   0.00000   0.00077   0.00076   1.92553
   A10        1.95064   0.00006   0.00000   0.00017   0.00016   1.95080
   A11        1.83382  -0.00013   0.00000  -0.00120  -0.00121   1.83261
   A12        0.33741   0.00000   0.00000   0.00004   0.00004   0.33746
   A13        1.82676  -0.00005   0.00000  -0.00061  -0.00061   1.82615
   A14        1.42134  -0.00003   0.00000  -0.00051  -0.00051   1.42083
   A15        1.58820  -0.00004   0.00000   0.00017   0.00017   1.58837
   A16        1.71226  -0.00002   0.00000   0.00018   0.00018   1.71244
   A17        1.82755   0.00003   0.00000   0.00045   0.00045   1.82800
   A18        1.92016   0.00014   0.00000   0.00095   0.00095   1.92111
   A19        1.93734  -0.00022   0.00000  -0.00131  -0.00131   1.93603
   A20        1.83008   0.00005   0.00000   0.00049   0.00049   1.83057
   A21        3.11478  -0.00006   0.00000  -0.00239  -0.00238   3.11239
   A22        3.14453  -0.00008   0.00000  -0.00460  -0.00460   3.13992
   A23        3.17555   0.00003   0.00000   0.00889   0.00889   3.18444
   A24        3.10649  -0.00003   0.00000  -0.01859  -0.01859   3.08790
    D1       -2.16488  -0.00003   0.00000  -0.00076  -0.00075  -2.16563
    D2        2.09168   0.00001   0.00000   0.00420   0.00421   2.09589
    D3        2.05013  -0.00004   0.00000  -0.00098  -0.00098   2.04916
    D4        0.02351   0.00000   0.00000   0.00398   0.00398   0.02748
    D5        2.27710   0.00000   0.00000  -0.00311  -0.00311   2.27399
    D6        0.25047   0.00004   0.00000   0.00185   0.00184   0.25232
    D7        1.58153   0.00001   0.00000   0.00141   0.00141   1.58294
    D8       -2.68853   0.00002   0.00000   0.00027   0.00027  -2.68826
    D9       -3.07832   0.00000   0.00000   0.00496   0.00496  -3.07336
   D10       -1.06520   0.00001   0.00000   0.00382   0.00382  -1.06138
   D11       -2.89825   0.00000   0.00000   0.00199   0.00198  -2.89627
   D12       -0.88513   0.00001   0.00000   0.00085   0.00084  -0.88429
   D13       -2.47913   0.00001   0.00000  -0.00929  -0.00929  -2.48842
   D14        2.99700  -0.00003   0.00000  -0.01273  -0.01273   2.98427
   D15        1.19819  -0.00006   0.00000  -0.01313  -0.01313   1.18505
   D16       -3.10156   0.00000   0.00000   0.00448   0.00448  -3.09708
   D17       -1.08390   0.00001   0.00000   0.00488   0.00488  -1.07901
   D18        2.25829   0.00000   0.00000  -0.00358  -0.00360   2.25470
   D19        0.22522   0.00002   0.00000  -0.00268  -0.00268   0.22254
   D20        2.55763   0.00008   0.00000   0.01928   0.01927   2.57690
   D21       -1.35772   0.00003   0.00000   0.01590   0.01590  -1.34182
   D22        3.09266   0.00001   0.00000   0.01541   0.01541   3.10807
         Item               Value     Threshold  Converged?
 Maximum Force            0.000510     0.000450     NO 
 RMS     Force            0.000101     0.000300     YES
 Maximum Displacement     0.032787     0.001800     NO 
 RMS     Displacement     0.012292     0.001200     NO 
 Predicted change in Energy=-3.321118D-06
 GradGradGradGradGradGradGradGradGradGradGradGradGradGradGradGradGradGrad

                          Input orientation:                          
 ---------------------------------------------------------------------
 Center     Atomic      Atomic             Coordinates (Angstroms)
 Number     Number       Type             X           Y           Z
 ---------------------------------------------------------------------
      1          8           0        0.234160    0.842552    0.572677
      2          1           0       -0.245723    0.408930    1.301480
      3          1           0        1.021195    0.292384    0.407221
      4          8           0        2.574064   -0.679812    0.055930
      5          8           0       -1.363206   -0.800783   -3.094259
      6          8           0       -1.242225   -0.380146    2.670544
      7          1           0        3.350601   -0.108864    0.125986
      8          1           0        2.590326   -1.014072   -0.850687
      9          1           0       -0.854963   -0.196632   -3.650174
     10          1           0       -2.165706   -0.312448   -2.870574
     11          1           0       -0.959744   -0.034753    3.527814
     12          1           0       -2.175495   -0.139154    2.601134
 ---------------------------------------------------------------------
                    Distance matrix (angstroms):
                    1          2          3          4          5
     1  O    0.000000
     2  H    0.974407   0.000000
     3  H    0.974415   1.555109   0.000000
     4  O    2.838973   3.269243   1.865468   0.000000
     5  O    4.324182   4.694113   4.375014   5.043850   0.000000
     6  O    2.841786   1.868153   3.270780   4.635738   5.781395
     7  H    3.288909   3.818827   2.380383   0.966384   5.750539
     8  H    3.320321   3.834048   2.398192   0.966410   4.550771
     9  H    4.483142   5.025610   4.496839   5.072169   0.965583
    10  H    4.353086   4.648952   4.611518   5.582544   0.965667
    11  H    3.305738   2.379757   3.710693   4.995786   6.678431
    12  H    3.299215   2.390296   3.901065   5.415596   5.790947
                    6          7          8          9         10
     6  O    0.000000
     7  H    5.257606   0.000000
     8  H    5.243031   1.533398   0.000000
     9  H    6.335229   5.652774   4.513906   0.000000
    10  H    5.617952   6.280960   5.214600   1.529456   0.000000
    11  H    0.966438   5.491539   5.721305   7.180578   6.516964
    12  H    0.966379   6.055164   5.949251   6.389519   5.474460
                   11         12
    11  H    0.000000
    12  H    1.532216   0.000000
 Stoichiometry    H8O4
 Framework group  C1[X(H8O4)]
 Deg. of freedom    30
 Full point group                 C1      NOp   1
 Largest Abelian subgroup         C1      NOp   1
 Largest concise Abelian subgroup C1      NOp   1
                         Standard orientation:                         
 ---------------------------------------------------------------------
 Center     Atomic      Atomic             Coordinates (Angstroms)
 Number     Number       Type             X           Y           Z
 ---------------------------------------------------------------------
      1          8           0        0.646100    0.091129    1.013281
      2          1           0        1.267999   -0.448772    0.492495
      3          1           0        0.507765    0.907824    0.500097
      4          8           0        0.222513    2.518304   -0.397096
      5          8           0       -3.327149   -1.061795   -0.244737
      6          8           0        2.428782   -1.558238   -0.462316
      7          1           0        0.436859    3.265176    0.177479
      8          1           0       -0.707863    2.639759   -0.628607
      9          1           0       -3.756718   -0.517091    0.426916
     10          1           0       -3.139603   -1.898045    0.200263
     11          1           0        3.343698   -1.377915   -0.208513
     12          1           0        2.285892   -2.486123   -0.233185
 ---------------------------------------------------------------------
 Rotational constants (GHZ):      2.3641264      1.4573514      0.9881225
 Standard basis: 6-31+G(d,p) (6D, 7F)
 There are   116 symmetry adapted basis functions of A   symmetry.
 Integral buffers will be    262144 words long.
 Raffenetti 2 integral format.
 Two-electron integral symmetry is turned on.
   116 basis functions,   184 primitive gaussians,   116 cartesian basis functions
    20 alpha electrons       20 beta electrons
       nuclear repulsion energy       116.2280531099 Hartrees.
 NAtoms=   12 NActive=   12 NUniq=   12 SFac= 7.50D-01 NAtFMM=   80 NAOKFM=F Big=F
 ------------------------------------------------------------------------------
 Polarizable Continuum Model (PCM)
 =================================
 Model                : PCM.
 Atomic radii         : SMD-Coulomb.
 Polarization charges : Total charges.
 Charge compensation  : None.
 Solution method      : Matrix inversion.
 Cavity type          : VdW (van der Waals Surface) (Alpha=1.000).
 Cavity algorithm     : GePol (No added spheres)
                        Default sphere list used, NSphG=   12.
                        Lebedev-Laikov grids with approx.  5.0 points / Ang**2.
                        Smoothing algorithm: Karplus/York (Gamma=1.0000).
                        Polarization charges: spherical gaussians, with
                                              point-specific exponents (IZeta= 3).
                        Self-potential: point-specific (ISelfS= 7).
                        Self-field    : sphere-specific E.n sum rule (ISelfD= 2).
 1st derivatives      : Analytical E(r).r(x)/FMM algorithm (CHGder, D1EAlg=3).
                        Cavity 1st derivative terms included.
 Solvent              : Water, Eps=  78.355300 Eps(inf)=   1.777849
 ------------------------------------------------------------------------------
 Spheres list:
 ISph  on   Nord    Re0     Alpha      Xe            Ye            Ze
    1   O      1    1.520   1.000      0.646100      0.091129      1.013281
    2   H      2    1.200   1.000      1.267999     -0.448772      0.492495
    3   H      3    1.200   1.000      0.507765      0.907824      0.500097
    4   O      4    1.520   1.000      0.222513      2.518304     -0.397096
    5   O      5    1.520   1.000     -3.327149     -1.061795     -0.244737
    6   O      6    1.520   1.000      2.428782     -1.558238     -0.462316
    7   H      7    1.200   1.000      0.436859      3.265176      0.177479
    8   H      8    1.200   1.000     -0.707863      2.639759     -0.628607
    9   H      9    1.200   1.000     -3.756718     -0.517091      0.426916
   10   H     10    1.200   1.000     -3.139603     -1.898045      0.200263
   11   H     11    1.200   1.000      3.343698     -1.377915     -0.208513
   12   H     12    1.200   1.000      2.285892     -2.486123     -0.233185
 ------------------------------------------------------------------------------
 Separa: There are  2 disjoint cavities,
 ------------------------------------------------------------------------------
 Atomic radii for non-electrostatic terms: SMD-CDS.
 ------------------------------------------------------------------------------
 Separa: There are  2 disjoint cavities,
 Nuclear repulsion after PCM non-electrostatic terms =      116.2357396285 Hartrees.
 One-electron integrals computed using PRISM.
 NBasis=   116 RedAO= T  NBF=   116
 NBsUse=   116 1.00D-06 NBFU=   116
 Initial guess read from the read-write file.
 B after Tr=     0.000000    0.000000    0.000000
         Rot=    1.000000    0.000000    0.000000    0.000000 Ang=   0.00 deg.
 Initial guess orbital symmetries:
       Occupied  (A) (A) (A) (A) (A) (A) (A) (A) (A) (A) (A) (A)
                 (A) (A) (A) (A) (A) (A) (A) (A)
       Virtual   (A) (A) (A) (A) (A) (A) (A) (A) (A) (A) (A) (A)
                 (A) (A) (A) (A) (A) (A) (A) (A) (A) (A) (A) (A)
                 (A) (A) (A) (A) (A) (A) (A) (A) (A) (A) (A) (A)
                 (A) (A) (A) (A) (A) (A) (A) (A) (A) (A) (A) (A)
                 (A) (A) (A) (A) (A) (A) (A) (A) (A) (A) (A) (A)
                 (A) (A) (A) (A) (A) (A) (A) (A) (A) (A) (A) (A)
                 (A) (A) (A) (A) (A) (A) (A) (A) (A) (A) (A) (A)
                 (A) (A) (A) (A) (A) (A) (A) (A) (A) (A) (A) (A)
 Harris functional with IExCor= 1009 diagonalized for initial guess.
 ExpMin= 8.45D-02 ExpMax= 5.48D+03 ExpMxC= 8.25D+02 IAcc=2 IRadAn=         0 AccDes= 0.00D+00
 HarFok:  IExCor= 1009 AccDes= 0.00D+00 IRadAn=         0 IDoV= 1
 ScaDFX=  1.000000  1.000000  1.000000  1.000000
 FoFCou: FMM=F IPFlag=           0 FMFlag=      100000 FMFlg1=           0
         NFxFlg=           0 DoJE=T BraDBF=F KetDBF=T FulRan=T
         Omega=  0.000000  0.000000  1.000000  0.000000  0.000000 ICntrl=     500 IOpCl=  0
         NMat0=    1 NMatS0=    1 NMatT0=    0 NMatD0=    1 NMtDS0=    0 NMtDT0=    0
         I1Cent=           4 NGrid=           0.
 Petite list used in FoFCou.
 Requested convergence on RMS density matrix=1.00D-08 within 128 cycles.
 Requested convergence on MAX density matrix=1.00D-06.
 Requested convergence on             energy=1.00D-06.
 No special actions if energy rises.
 Keep R1 ints in memory in canonical form, NReq=27030908.
 PCMQM: There is more than one cavity, setting IComp=0.
 PCMQM: There is more than one cavity, setting IComp=0.
 PCMQM: There is more than one cavity, setting IComp=0.
 PCMQM: There is more than one cavity, setting IComp=0.
 PCMQM: There is more than one cavity, setting IComp=0.
 PCMQM: There is more than one cavity, setting IComp=0.
 PCMQM: There is more than one cavity, setting IComp=0.
 PCMQM: There is more than one cavity, setting IComp=0.
 PCMQM: There is more than one cavity, setting IComp=0.
 Error on total polarization charges =  0.05198
 SCF Done:  E(RM062X) =  -305.648452965     A.U. after    8 cycles
             Convg  =    0.7071D-08             -V/T =  2.0089
 SMD-CDS (non-electrostatic) energy             (kcal/mol) =       4.82
 (included in total energy above)
 D1PCM: PCM CHGder 1st derivatives, ID1Alg=3 FixD1E=F DoIter=F DoCFld=F I1PDM=0.
 Calling FoFJK, ICntrl=      2127 FMM=F ISym2X=0 I1Cent= 0 IOpClX= 0 NMat=1 NMatS=1 NMatT=0.
 ***** Axes restored to original set *****
 -------------------------------------------------------------------
 Center     Atomic                   Forces (Hartrees/Bohr)
 Number     Number              X              Y              Z
 -------------------------------------------------------------------
      1        8           0.000035168   -0.000175898    0.000028164
      2        1          -0.000127032    0.000085574   -0.000077271
      3        1           0.000054344    0.000135503   -0.000009780
      4        8          -0.000043006    0.000018156    0.000028618
      5        8          -0.000005485   -0.000015901   -0.000044647
      6        8           0.000077463    0.000014074    0.000115379
      7        1           0.000025329   -0.000044889   -0.000002360
      8        1           0.000016332   -0.000027078   -0.000006389
      9        1           0.000020103    0.000016496    0.000042516
     10        1           0.000029203   -0.000022869    0.000019926
     11        1          -0.000099986   -0.000006342    0.000038993
     12        1           0.000017567    0.000023176   -0.000133149
 -------------------------------------------------------------------
 Cartesian Forces:  Max     0.000175898 RMS     0.000063833

 GradGradGradGradGradGradGradGradGradGradGradGradGradGradGradGradGradGrad
 Berny optimization.
 Using GEDIIS/GDIIS optimizer.
 Internal  Forces:  Max     0.000195022 RMS     0.000045824
 Search for a local minimum.
 Step number   2 out of a maximum of   71
 All quantities printed in internal units (Hartrees-Bohrs-Radians)
 Mixed Optimization -- En-DIIS/RFO-DIIS
 Swaping is turned off.
 Update second derivatives using D2CorX and points    1    2
 DE=  4.67D-06 DEPred=-3.32D-06 R=-1.41D+00
 Trust test=-1.41D+00 RLast= 4.40D-02 DXMaxT set to 1.50D-01
     Eigenvalues ---    0.00163   0.00230   0.00230   0.00367   0.00420
     Eigenvalues ---    0.00781   0.03106   0.03179   0.04275   0.04707
     Eigenvalues ---    0.05384   0.05410   0.06493   0.07757   0.08947
     Eigenvalues ---    0.11457   0.12641   0.14231   0.14578   0.15997
     Eigenvalues ---    0.15999   0.16165   0.44691   0.49448   0.51820
     Eigenvalues ---    0.52525   0.53986   0.54102   0.54142   0.54329
     Eigenvalues --- 1000.000001000.000001000.000001000.000001000.00000
     Eigenvalues --- 1000.000001000.000001000.000001000.000001000.00000
     Eigenvalues --- 1000.000001000.000001000.000001000.000001000.00000
     Eigenvalues --- 1000.000001000.000001000.000001000.000001000.00000
     Eigenvalues --- 1000.000001000.000001000.000001000.000001000.00000
     Eigenvalues --- 1000.000001000.000001000.000001000.000001000.00000
     Eigenvalues --- 1000.00000
 En-DIIS/RFO-DIIS IScMMF=        0 using points:     2    1
 RFO step:  Lambda=-4.57482076D-07.
 DIIS coeffs:      0.89577      0.10423
 Iteration  1 RMS(Cart)=  0.00390127 RMS(Int)=  0.00001299
 Iteration  2 RMS(Cart)=  0.00001283 RMS(Int)=  0.00000070
 Iteration  3 RMS(Cart)=  0.00000000 RMS(Int)=  0.00000070
 Variable       Old X    -DE/DX   Delta X   Delta X   Delta X     New X
                                  (DIIS)     (GDIIS)  (Total)
    R1        1.84136   0.00000   0.00003  -0.00017  -0.00014   1.84122
    R2        1.84138   0.00000  -0.00002   0.00013   0.00011   1.84149
    R3        8.17152   0.00000   0.00025  -0.00312  -0.00287   8.16865
    R4        8.47191  -0.00003   0.00033  -0.00386  -0.00353   8.46838
    R5        8.22614  -0.00001   0.00021  -0.00288  -0.00267   8.22347
    R6        8.87059  -0.00001   0.00024  -0.00301  -0.00277   8.86782
    R7        3.53030   0.00002  -0.00001   0.00032   0.00031   3.53061
    R8        3.52522   0.00002  -0.00011   0.00094   0.00083   3.52605
    R9        8.26758   0.00001   0.00025  -0.00241  -0.00216   8.26542
   R10        1.82620   0.00000  -0.00006   0.00029   0.00024   1.82644
   R11        1.82625   0.00003   0.00010  -0.00048  -0.00038   1.82587
   R12        1.82469   0.00000  -0.00005   0.00025   0.00020   1.82489
   R13        1.82485  -0.00002  -0.00002   0.00009   0.00006   1.82491
   R14        1.82630   0.00001   0.00001  -0.00004  -0.00003   1.82627
   R15        1.82619  -0.00002   0.00000  -0.00003  -0.00003   1.82616
    A1        1.84785   0.00013   0.00003   0.00092   0.00095   1.84880
    A2        2.07342  -0.00001  -0.00002   0.00015   0.00013   2.07355
    A3        1.77423  -0.00002   0.00007  -0.00057  -0.00050   1.77373
    A4        1.47606  -0.00001  -0.00006   0.00066   0.00060   1.47665
    A5        1.73267   0.00000   0.00001   0.00039   0.00040   1.73307
    A6        0.34670   0.00000  -0.00003   0.00022   0.00020   0.34689
    A7        2.03804  -0.00006   0.00005  -0.00066  -0.00061   2.03743
    A8        1.74441  -0.00007   0.00006  -0.00090  -0.00084   1.74358
    A9        1.92553   0.00007  -0.00008   0.00088   0.00080   1.92633
   A10        1.95080   0.00001  -0.00002   0.00020   0.00019   1.95099
   A11        1.83261  -0.00004   0.00013  -0.00078  -0.00065   1.83196
   A12        0.33746   0.00002   0.00000   0.00024   0.00024   0.33769
   A13        1.82615  -0.00002   0.00006  -0.00051  -0.00045   1.82570
   A14        1.42083  -0.00002   0.00005  -0.00050  -0.00045   1.42039
   A15        1.58837  -0.00003  -0.00002  -0.00014  -0.00016   1.58821
   A16        1.71244  -0.00001  -0.00002   0.00013   0.00012   1.71256
   A17        1.82800   0.00001  -0.00005   0.00028   0.00023   1.82823
   A18        1.92111   0.00016  -0.00010   0.00149   0.00139   1.92250
   A19        1.93603  -0.00020   0.00014  -0.00179  -0.00166   1.93438
   A20        1.83057   0.00001  -0.00005   0.00040   0.00035   1.83092
   A21        3.11239  -0.00004   0.00025  -0.00164  -0.00139   3.11100
   A22        3.13992  -0.00006   0.00048  -0.00126  -0.00078   3.13915
   A23        3.18444  -0.00007  -0.00093   0.00433   0.00340   3.18784
   A24        3.08790   0.00008   0.00194   0.00049   0.00243   3.09033
    D1       -2.16563  -0.00002   0.00008  -0.00128  -0.00120  -2.16683
    D2        2.09589  -0.00003  -0.00044  -0.00095  -0.00138   2.09450
    D3        2.04916   0.00000   0.00010  -0.00145  -0.00135   2.04781
    D4        0.02748  -0.00001  -0.00041  -0.00112  -0.00153   0.02595
    D5        2.27399   0.00000   0.00032  -0.00076  -0.00043   2.27355
    D6        0.25232  -0.00001  -0.00019  -0.00042  -0.00062   0.25170
    D7        1.58294   0.00001  -0.00015   0.00820   0.00805   1.59099
    D8       -2.68826   0.00001  -0.00003   0.00771   0.00768  -2.68059
    D9       -3.07336   0.00004  -0.00052   0.01089   0.01038  -3.06299
   D10       -1.06138   0.00004  -0.00040   0.01040   0.01000  -1.05138
   D11       -2.89627   0.00002  -0.00021   0.00902   0.00881  -2.88746
   D12       -0.88429   0.00003  -0.00009   0.00853   0.00844  -0.87585
   D13       -2.48842  -0.00002   0.00097  -0.00530  -0.00433  -2.49275
   D14        2.98427  -0.00002   0.00133  -0.00758  -0.00625   2.97802
   D15        1.18505  -0.00002   0.00137  -0.00780  -0.00643   1.17863
   D16       -3.09708   0.00001  -0.00047   0.01031   0.00984  -3.08724
   D17       -1.07901   0.00001  -0.00051   0.01063   0.01012  -1.06889
   D18        2.25470   0.00002   0.00037  -0.00107  -0.00069   2.25401
   D19        0.22254   0.00002   0.00028  -0.00078  -0.00050   0.22204
   D20        2.57690  -0.00001  -0.00201   0.00032  -0.00169   2.57522
   D21       -1.34182  -0.00001  -0.00166  -0.00194  -0.00360  -1.34542
   D22        3.10807  -0.00001  -0.00161  -0.00221  -0.00381   3.10425
         Item               Value     Threshold  Converged?
 Maximum Force            0.000195     0.000450     YES
 RMS     Force            0.000046     0.000300     YES
 Maximum Displacement     0.014565     0.001800     NO 
 RMS     Displacement     0.003900     0.001200     NO 
 Predicted change in Energy=-1.550139D-06
 GradGradGradGradGradGradGradGradGradGradGradGradGradGradGradGradGradGrad

                          Input orientation:                          
 ---------------------------------------------------------------------
 Center     Atomic      Atomic             Coordinates (Angstroms)
 Number     Number       Type             X           Y           Z
 ---------------------------------------------------------------------
      1          8           0        0.235474    0.841543    0.573979
      2          1           0       -0.243451    0.407075    1.302808
      3          1           0        1.023524    0.293080    0.407356
      4          8           0        2.575923   -0.679912    0.053872
      5          8           0       -1.362303   -0.800263   -3.091671
      6          8           0       -1.243184   -0.379713    2.671060
      7          1           0        3.353283   -0.109675    0.122297
      8          1           0        2.590877   -1.014386   -0.852472
      9          1           0       -0.856495   -0.193517   -3.647168
     10          1           0       -2.166022   -0.314846   -2.865884
     11          1           0       -0.967452   -0.029469    3.528540
     12          1           0       -2.176892   -0.142717    2.594375
 ---------------------------------------------------------------------
                    Distance matrix (angstroms):
                    1          2          3          4          5
     1  O    0.000000
     2  H    0.974333   0.000000
     3  H    0.974473   1.555653   0.000000
     4  O    2.839549   3.269595   1.865907   0.000000
     5  O    4.322662   4.692648   4.373872   5.041682   0.000000
     6  O    2.841769   1.868319   3.273373   4.639544   5.779284
     7  H    3.290830   3.820620   2.381438   0.966509   5.748326
     8  H    3.320716   3.833953   2.398589   0.966207   4.548350
     9  H    4.481275   5.023824   4.495599   5.071073   0.965691
    10  H    4.351675   4.647090   4.610518   5.580707   0.965699
    11  H    3.306831   2.380889   3.716156   5.005188   6.676618
    12  H    3.297011   2.389270   3.900722   5.415901   5.781613
                    6          7          8          9         10
     6  O    0.000000
     7  H    5.262758   0.000000
     8  H    5.245770   1.532951   0.000000
     9  H    6.332788   5.651383   4.513150   0.000000
    10  H    5.613695   6.279653   5.212607   1.529702   0.000000
    11  H    0.966423   5.502516   5.729313   7.178441   6.512040
    12  H    0.966363   6.057648   5.947451   6.379882   5.462982
                   11         12
    11  H    0.000000
    12  H    1.532395   0.000000
 Stoichiometry    H8O4
 Framework group  C1[X(H8O4)]
 Deg. of freedom    30
 Full point group                 C1      NOp   1
 Largest Abelian subgroup         C1      NOp   1
 Largest concise Abelian subgroup C1      NOp   1
                         Standard orientation:                         
 ---------------------------------------------------------------------
 Center     Atomic      Atomic             Coordinates (Angstroms)
 Number     Number       Type             X           Y           Z
 ---------------------------------------------------------------------
      1          8           0        0.646911    0.092938    1.012150
      2          1           0        1.269642   -0.445061    0.490529
      3          1           0        0.506387    0.910444    0.500746
      4          8           0        0.216220    2.520175   -0.397127
      5          8           0       -3.323256   -1.066915   -0.244002
      6          8           0        2.431168   -1.555996   -0.461991
      7          1           0        0.427850    3.268445    0.176846
      8          1           0       -0.714260    2.638829   -0.628827
      9          1           0       -3.753177   -0.525365    0.430127
     10          1           0       -3.132723   -1.904168    0.197903
     11          1           0        3.345844   -1.381096   -0.203628
     12          1           0        2.282086   -2.483644   -0.235934
 ---------------------------------------------------------------------
 Rotational constants (GHZ):      2.3617166      1.4589149      0.9882382
 Standard basis: 6-31+G(d,p) (6D, 7F)
 There are   116 symmetry adapted basis functions of A   symmetry.
 Integral buffers will be    262144 words long.
 Raffenetti 2 integral format.
 Two-electron integral symmetry is turned on.
   116 basis functions,   184 primitive gaussians,   116 cartesian basis functions
    20 alpha electrons       20 beta electrons
       nuclear repulsion energy       116.2266547595 Hartrees.
 NAtoms=   12 NActive=   12 NUniq=   12 SFac= 7.50D-01 NAtFMM=   80 NAOKFM=F Big=F
 ------------------------------------------------------------------------------
 Polarizable Continuum Model (PCM)
 =================================
 Model                : PCM.
 Atomic radii         : SMD-Coulomb.
 Polarization charges : Total charges.
 Charge compensation  : None.
 Solution method      : Matrix inversion.
 Cavity type          : VdW (van der Waals Surface) (Alpha=1.000).
 Cavity algorithm     : GePol (No added spheres)
                        Default sphere list used, NSphG=   12.
                        Lebedev-Laikov grids with approx.  5.0 points / Ang**2.
                        Smoothing algorithm: Karplus/York (Gamma=1.0000).
                        Polarization charges: spherical gaussians, with
                                              point-specific exponents (IZeta= 3).
                        Self-potential: point-specific (ISelfS= 7).
                        Self-field    : sphere-specific E.n sum rule (ISelfD= 2).
 1st derivatives      : Analytical E(r).r(x)/FMM algorithm (CHGder, D1EAlg=3).
                        Cavity 1st derivative terms included.
 Solvent              : Water, Eps=  78.355300 Eps(inf)=   1.777849
 ------------------------------------------------------------------------------
 Spheres list:
 ISph  on   Nord    Re0     Alpha      Xe            Ye            Ze
    1   O      1    1.520   1.000      0.646911      0.092938      1.012150
    2   H      2    1.200   1.000      1.269642     -0.445061      0.490529
    3   H      3    1.200   1.000      0.506387      0.910444      0.500746
    4   O      4    1.520   1.000      0.216220      2.520175     -0.397127
    5   O      5    1.520   1.000     -3.323256     -1.066915     -0.244002
    6   O      6    1.520   1.000      2.431168     -1.555996     -0.461991
    7   H      7    1.200   1.000      0.427850      3.268445      0.176846
    8   H      8    1.200   1.000     -0.714260      2.638829     -0.628827
    9   H      9    1.200   1.000     -3.753177     -0.525365      0.430127
   10   H     10    1.200   1.000     -3.132723     -1.904168      0.197903
   11   H     11    1.200   1.000      3.345844     -1.381096     -0.203628
   12   H     12    1.200   1.000      2.282086     -2.483644     -0.235934
 ------------------------------------------------------------------------------
 Separa: There are  2 disjoint cavities,
 ------------------------------------------------------------------------------
 Atomic radii for non-electrostatic terms: SMD-CDS.
 ------------------------------------------------------------------------------
 Separa: There are  2 disjoint cavities,
 Nuclear repulsion after PCM non-electrostatic terms =      116.2343424469 Hartrees.
 One-electron integrals computed using PRISM.
 NBasis=   116 RedAO= T  NBF=   116
 NBsUse=   116 1.00D-06 NBFU=   116
 Initial guess read from the read-write file.
 B after Tr=     0.000000    0.000000    0.000000
         Rot=    1.000000    0.000000    0.000000    0.000000 Ang=   0.00 deg.
 Initial guess orbital symmetries:
       Occupied  (A) (A) (A) (A) (A) (A) (A) (A) (A) (A) (A) (A)
                 (A) (A) (A) (A) (A) (A) (A) (A)
       Virtual   (A) (A) (A) (A) (A) (A) (A) (A) (A) (A) (A) (A)
                 (A) (A) (A) (A) (A) (A) (A) (A) (A) (A) (A) (A)
                 (A) (A) (A) (A) (A) (A) (A) (A) (A) (A) (A) (A)
                 (A) (A) (A) (A) (A) (A) (A) (A) (A) (A) (A) (A)
                 (A) (A) (A) (A) (A) (A) (A) (A) (A) (A) (A) (A)
                 (A) (A) (A) (A) (A) (A) (A) (A) (A) (A) (A) (A)
                 (A) (A) (A) (A) (A) (A) (A) (A) (A) (A) (A) (A)
                 (A) (A) (A) (A) (A) (A) (A) (A) (A) (A) (A) (A)
 Requested convergence on RMS density matrix=1.00D-08 within 128 cycles.
 Requested convergence on MAX density matrix=1.00D-06.
 Requested convergence on             energy=1.00D-06.
 No special actions if energy rises.
 Keep R1 ints in memory in canonical form, NReq=27032832.
 PCMQM: There is more than one cavity, setting IComp=0.
 PCMQM: There is more than one cavity, setting IComp=0.
 PCMQM: There is more than one cavity, setting IComp=0.
 PCMQM: There is more than one cavity, setting IComp=0.
 PCMQM: There is more than one cavity, setting IComp=0.
 PCMQM: There is more than one cavity, setting IComp=0.
 PCMQM: There is more than one cavity, setting IComp=0.
 PCMQM: There is more than one cavity, setting IComp=0.
 Error on total polarization charges =  0.05198
 SCF Done:  E(RM062X) =  -305.648453826     A.U. after    7 cycles
             Convg  =    0.4764D-08             -V/T =  2.0089
 SMD-CDS (non-electrostatic) energy             (kcal/mol) =       4.82
 (included in total energy above)
 D1PCM: PCM CHGder 1st derivatives, ID1Alg=3 FixD1E=F DoIter=F DoCFld=F I1PDM=0.
 Calling FoFJK, ICntrl=      2127 FMM=F ISym2X=0 I1Cent= 0 IOpClX= 0 NMat=1 NMatS=1 NMatT=0.
 ***** Axes restored to original set *****
 -------------------------------------------------------------------
 Center     Atomic                   Forces (Hartrees/Bohr)
 Number     Number              X              Y              Z
 -------------------------------------------------------------------
      1        8           0.000128617   -0.000117625   -0.000067130
      2        1          -0.000121231    0.000029637   -0.000036418
      3        1          -0.000037932    0.000121552    0.000047513
      4        8           0.000094703    0.000197381    0.000189858
      5        8           0.000025481    0.000040783   -0.000105784
      6        8           0.000101483   -0.000006610    0.000080003
      7        1          -0.000079513   -0.000103348    0.000043066
      8        1          -0.000029299   -0.000133483   -0.000208231
      9        1          -0.000054125   -0.000033873    0.000115503
     10        1           0.000072685   -0.000030558    0.000004877
     11        1          -0.000102974   -0.000020923    0.000018143
     12        1           0.000002104    0.000057066   -0.000081400
 -------------------------------------------------------------------
 Cartesian Forces:  Max     0.000208231 RMS     0.000092839

 GradGradGradGradGradGradGradGradGradGradGradGradGradGradGradGradGradGrad
 Berny optimization.
 Using GEDIIS/GDIIS optimizer.
 Internal  Forces:  Max     0.000251696 RMS     0.000054748
 Search for a local minimum.
 Step number   3 out of a maximum of   71
 All quantities printed in internal units (Hartrees-Bohrs-Radians)
 Mixed Optimization -- En-DIIS/RFO-DIIS
 Swaping is turned off.
 Update second derivatives using D2CorX and points    1    2    3
 DE= -8.61D-07 DEPred=-1.55D-06 R= 5.55D-01
 SS=  1.41D+00  RLast= 2.98D-02 DXNew= 2.5227D-01 8.9417D-02
 Trust test= 5.55D-01 RLast= 2.98D-02 DXMaxT set to 1.50D-01
     Eigenvalues ---    0.00116   0.00230   0.00234   0.00335   0.00364
     Eigenvalues ---    0.00784   0.03146   0.03292   0.03930   0.04704
     Eigenvalues ---    0.05385   0.05431   0.06492   0.07865   0.08945
     Eigenvalues ---    0.10351   0.11562   0.14066   0.14296   0.15998
     Eigenvalues ---    0.16003   0.16347   0.45203   0.49464   0.52156
     Eigenvalues ---    0.52524   0.54091   0.54140   0.54145   0.65114
     Eigenvalues --- 1000.000001000.000001000.000001000.000001000.00000
     Eigenvalues --- 1000.000001000.000001000.000001000.000001000.00000
     Eigenvalues --- 1000.000001000.000001000.000001000.000001000.00000
     Eigenvalues --- 1000.000001000.000001000.000001000.000001000.00000
     Eigenvalues --- 1000.000001000.000001000.000001000.000001000.00000
     Eigenvalues --- 1000.000001000.000001000.000001000.000001000.00000
     Eigenvalues --- 1000.00000
 En-DIIS/RFO-DIIS IScMMF=        0 using points:     3    2    1
 RFO step:  Lambda=-4.65721207D-07.
 DIIS coeffs:      1.98398     -1.15442      0.17044
 Iteration  1 RMS(Cart)=  0.00550253 RMS(Int)=  0.00002503
 Iteration  2 RMS(Cart)=  0.00002297 RMS(Int)=  0.00000278
 Iteration  3 RMS(Cart)=  0.00000000 RMS(Int)=  0.00000278
 Variable       Old X    -DE/DX   Delta X   Delta X   Delta X     New X
                                  (DIIS)     (GDIIS)  (Total)
    R1        1.84122   0.00003  -0.00009   0.00003  -0.00006   1.84116
    R2        1.84149  -0.00010   0.00007  -0.00025  -0.00018   1.84130
    R3        8.16865   0.00001  -0.00242  -0.00318  -0.00561   8.16304
    R4        8.46838  -0.00005  -0.00293  -0.00508  -0.00801   8.46037
    R5        8.22347  -0.00001  -0.00229  -0.00256  -0.00484   8.21863
    R6        8.86782   0.00000  -0.00234  -0.00264  -0.00497   8.86285
    R7        3.53061   0.00001   0.00029   0.00024   0.00053   3.53114
    R8        3.52605   0.00000   0.00063   0.00027   0.00090   3.52695
    R9        8.26542   0.00001  -0.00171  -0.00323  -0.00493   8.26049
   R10        1.82644  -0.00012   0.00014  -0.00014   0.00000   1.82644
   R11        1.82587   0.00025  -0.00022   0.00037   0.00016   1.82602
   R12        1.82489  -0.00010   0.00012  -0.00017  -0.00005   1.82484
   R13        1.82491  -0.00006   0.00002  -0.00008  -0.00005   1.82485
   R14        1.82627  -0.00002  -0.00001  -0.00012  -0.00013   1.82614
   R15        1.82616   0.00000  -0.00003   0.00003   0.00000   1.82616
    A1        1.84880   0.00006   0.00098   0.00009   0.00107   1.84987
    A2        2.07355  -0.00003   0.00010   0.00026   0.00035   2.07390
    A3        1.77373  -0.00002  -0.00039  -0.00095  -0.00134   1.77239
    A4        1.47665   0.00001   0.00048   0.00119   0.00168   1.47833
    A5        1.73307   0.00000   0.00040  -0.00009   0.00031   1.73337
    A6        0.34689  -0.00002   0.00015   0.00014   0.00029   0.34718
    A7        2.03743  -0.00004  -0.00051  -0.00058  -0.00110   2.03633
    A8        1.74358  -0.00006  -0.00072  -0.00088  -0.00161   1.74197
    A9        1.92633   0.00004   0.00065   0.00103   0.00168   1.92801
   A10        1.95099  -0.00002   0.00015   0.00020   0.00036   1.95134
   A11        1.83196   0.00001  -0.00044   0.00045   0.00001   1.83197
   A12        0.33769   0.00000   0.00023   0.00009   0.00032   0.33801
   A13        1.82570  -0.00001  -0.00034  -0.00118  -0.00152   1.82417
   A14        1.42039  -0.00002  -0.00035  -0.00083  -0.00118   1.41921
   A15        1.58821  -0.00001  -0.00019   0.00021   0.00003   1.58824
   A16        1.71256  -0.00002   0.00008   0.00025   0.00033   1.71289
   A17        1.82823  -0.00001   0.00015  -0.00013   0.00001   1.82824
   A18        1.92250   0.00016   0.00120   0.00160   0.00281   1.92531
   A19        1.93438  -0.00016  -0.00141  -0.00191  -0.00332   1.93106
   A20        1.83092  -0.00001   0.00026  -0.00017   0.00009   1.83101
   A21        3.11100  -0.00002  -0.00096  -0.00109  -0.00205   3.10895
   A22        3.13915  -0.00006   0.00002  -0.00136  -0.00134   3.13780
   A23        3.18784  -0.00006   0.00183   0.00089   0.00272   3.19056
   A24        3.09033   0.00003   0.00556  -0.00202   0.00354   3.09387
    D1       -2.16683  -0.00001  -0.00106  -0.00047  -0.00152  -2.16835
    D2        2.09450  -0.00004  -0.00208  -0.00126  -0.00334   2.09116
    D3        2.04781   0.00002  -0.00116  -0.00095  -0.00210   2.04570
    D4        0.02595  -0.00001  -0.00219  -0.00174  -0.00392   0.02203
    D5        2.27355   0.00002   0.00010   0.00035   0.00045   2.27400
    D6        0.25170  -0.00002  -0.00092  -0.00044  -0.00137   0.25033
    D7        1.59099   0.00001   0.00768   0.00198   0.00966   1.60065
    D8       -2.68059   0.00001   0.00751   0.00146   0.00896  -2.67163
    D9       -3.06299   0.00002   0.00936   0.00369   0.01306  -3.04992
   D10       -1.05138   0.00002   0.00919   0.00317   0.01236  -1.03902
   D11       -2.88746   0.00001   0.00833   0.00147   0.00980  -2.87766
   D12       -0.87585   0.00000   0.00816   0.00095   0.00910  -0.86675
   D13       -2.49275  -0.00001  -0.00268  -0.00121  -0.00388  -2.49663
   D14        2.97802  -0.00002  -0.00398  -0.00733  -0.01131   2.96671
   D15        1.17863  -0.00001  -0.00409  -0.00711  -0.01120   1.16742
   D16       -3.08724   0.00000   0.00892   0.00221   0.01113  -3.07611
   D17       -1.06889  -0.00001   0.00913   0.00184   0.01097  -1.05793
   D18        2.25401   0.00002  -0.00007  -0.00082  -0.00089   2.25311
   D19        0.22204  -0.00001  -0.00003  -0.00215  -0.00219   0.21985
   D20        2.57522  -0.00001  -0.00495   0.00232  -0.00263   2.57259
   D21       -1.34542  -0.00003  -0.00625  -0.00372  -0.00997  -1.35540
   D22        3.10425  -0.00002  -0.00638  -0.00363  -0.01001   3.09424
         Item               Value     Threshold  Converged?
 Maximum Force            0.000252     0.000450     YES
 RMS     Force            0.000055     0.000300     YES
 Maximum Displacement     0.018447     0.001800     NO 
 RMS     Displacement     0.005502     0.001200     NO 
 Predicted change in Energy=-1.792785D-06
 GradGradGradGradGradGradGradGradGradGradGradGradGradGradGradGradGradGrad

                          Input orientation:                          
 ---------------------------------------------------------------------
 Center     Atomic      Atomic             Coordinates (Angstroms)
 Number     Number       Type             X           Y           Z
 ---------------------------------------------------------------------
      1          8           0        0.237133    0.841552    0.574872
      2          1           0       -0.240724    0.406356    1.303925
      3          1           0        1.026325    0.295193    0.407306
      4          8           0        2.577478   -0.679912    0.051670
      5          8           0       -1.359186   -0.799509   -3.088248
      6          8           0       -1.243729   -0.379385    2.670765
      7          1           0        3.356485   -0.111638    0.117680
      8          1           0        2.590131   -1.016414   -0.854046
      9          1           0       -0.859560   -0.186386   -3.642292
     10          1           0       -2.166090   -0.321436   -2.858312
     11          1           0       -0.977214   -0.024273    3.529078
     12          1           0       -2.177766   -0.146947    2.584694
 ---------------------------------------------------------------------
                    Distance matrix (angstroms):
                    1          2          3          4          5
     1  O    0.000000
     2  H    0.974300   0.000000
     3  H    0.974376   1.556179   0.000000
     4  O    2.840037   3.269615   1.866383   0.000000
     5  O    4.319695   4.690016   4.371262   5.036935   0.000000
     6  O    2.841902   1.868599   3.275889   4.642370   5.775471
     7  H    3.293622   3.823010   2.383074   0.966511   5.743578
     8  H    3.321211   3.833386   2.399336   0.966290   4.542665
     9  H    4.477037   5.019896   4.493074   5.069729   0.965666
    10  H    4.349112   4.643375   4.608253   5.576553   0.965670
    11  H    3.309324   2.383100   3.723129   5.015781   6.673522
    12  H    3.293669   2.387185   3.899065   5.414112   5.768725
                    6          7          8          9         10
     6  O    0.000000
     7  H    5.268007   0.000000
     8  H    5.246769   1.533026   0.000000
     9  H    6.327678   5.649602   4.512608   0.000000
    10  H    5.605782   6.276892   5.207851   1.529667   0.000000
    11  H    0.966353   5.515996   5.737776   7.174167   6.503882
    12  H    0.966365   6.059319   5.942538   6.365106   5.445815
                   11         12
    11  H    0.000000
    12  H    1.532396   0.000000
 Stoichiometry    H8O4
 Framework group  C1[X(H8O4)]
 Deg. of freedom    30
 Full point group                 C1      NOp   1
 Largest Abelian subgroup         C1      NOp   1
 Largest concise Abelian subgroup C1      NOp   1
                         Standard orientation:                         
 ---------------------------------------------------------------------
 Center     Atomic      Atomic             Coordinates (Angstroms)
 Number     Number       Type             X           Y           Z
 ---------------------------------------------------------------------
      1          8           0        0.647441    0.095065    1.011831
      2          1           0        1.271555   -0.440538    0.489459
      3          1           0        0.504451    0.913373    0.502581
      4          8           0        0.208114    2.521410   -0.397299
      5          8           0       -3.317557   -1.072561   -0.243241
      6          8           0        2.433812   -1.552124   -0.461959
      7          1           0        0.415720    3.272146    0.174925
      8          1           0       -0.722493    2.635684   -0.631025
      9          1           0       -3.747113   -0.538390    0.436945
     10          1           0       -3.122135   -1.912708    0.190904
     11          1           0        3.348522   -1.384564   -0.199154
     12          1           0        2.277012   -2.479320   -0.239288
 ---------------------------------------------------------------------
 Rotational constants (GHZ):      2.3601492      1.4613005      0.9890243
 Standard basis: 6-31+G(d,p) (6D, 7F)
 There are   116 symmetry adapted basis functions of A   symmetry.
 Integral buffers will be    262144 words long.
 Raffenetti 2 integral format.
 Two-electron integral symmetry is turned on.
   116 basis functions,   184 primitive gaussians,   116 cartesian basis functions
    20 alpha electrons       20 beta electrons
       nuclear repulsion energy       116.2393938207 Hartrees.
 NAtoms=   12 NActive=   12 NUniq=   12 SFac= 7.50D-01 NAtFMM=   80 NAOKFM=F Big=F
 ------------------------------------------------------------------------------
 Polarizable Continuum Model (PCM)
 =================================
 Model                : PCM.
 Atomic radii         : SMD-Coulomb.
 Polarization charges : Total charges.
 Charge compensation  : None.
 Solution method      : Matrix inversion.
 Cavity type          : VdW (van der Waals Surface) (Alpha=1.000).
 Cavity algorithm     : GePol (No added spheres)
                        Default sphere list used, NSphG=   12.
                        Lebedev-Laikov grids with approx.  5.0 points / Ang**2.
                        Smoothing algorithm: Karplus/York (Gamma=1.0000).
                        Polarization charges: spherical gaussians, with
                                              point-specific exponents (IZeta= 3).
                        Self-potential: point-specific (ISelfS= 7).
                        Self-field    : sphere-specific E.n sum rule (ISelfD= 2).
 1st derivatives      : Analytical E(r).r(x)/FMM algorithm (CHGder, D1EAlg=3).
                        Cavity 1st derivative terms included.
 Solvent              : Water, Eps=  78.355300 Eps(inf)=   1.777849
 ------------------------------------------------------------------------------
 Spheres list:
 ISph  on   Nord    Re0     Alpha      Xe            Ye            Ze
    1   O      1    1.520   1.000      0.647441      0.095065      1.011831
    2   H      2    1.200   1.000      1.271555     -0.440538      0.489459
    3   H      3    1.200   1.000      0.504451      0.913373      0.502581
    4   O      4    1.520   1.000      0.208114      2.521410     -0.397299
    5   O      5    1.520   1.000     -3.317557     -1.072561     -0.243241
    6   O      6    1.520   1.000      2.433812     -1.552124     -0.461959
    7   H      7    1.200   1.000      0.415720      3.272146      0.174925
    8   H      8    1.200   1.000     -0.722493      2.635684     -0.631025
    9   H      9    1.200   1.000     -3.747113     -0.538390      0.436945
   10   H     10    1.200   1.000     -3.122135     -1.912708      0.190904
   11   H     11    1.200   1.000      3.348522     -1.384564     -0.199154
   12   H     12    1.200   1.000      2.277012     -2.479320     -0.239288
 ------------------------------------------------------------------------------
 Separa: There are  2 disjoint cavities,
 ------------------------------------------------------------------------------
 Atomic radii for non-electrostatic terms: SMD-CDS.
 ------------------------------------------------------------------------------
 Separa: There are  2 disjoint cavities,
 Nuclear repulsion after PCM non-electrostatic terms =      116.2470835872 Hartrees.
 One-electron integrals computed using PRISM.
 NBasis=   116 RedAO= T  NBF=   116
 NBsUse=   116 1.00D-06 NBFU=   116
 Initial guess read from the read-write file.
 B after Tr=     0.000000    0.000000    0.000000
         Rot=    1.000000    0.000000    0.000000    0.000000 Ang=   0.00 deg.
 Initial guess orbital symmetries:
       Occupied  (A) (A) (A) (A) (A) (A) (A) (A) (A) (A) (A) (A)
                 (A) (A) (A) (A) (A) (A) (A) (A)
       Virtual   (A) (A) (A) (A) (A) (A) (A) (A) (A) (A) (A) (A)
                 (A) (A) (A) (A) (A) (A) (A) (A) (A) (A) (A) (A)
                 (A) (A) (A) (A) (A) (A) (A) (A) (A) (A) (A) (A)
                 (A) (A) (A) (A) (A) (A) (A) (A) (A) (A) (A) (A)
                 (A) (A) (A) (A) (A) (A) (A) (A) (A) (A) (A) (A)
                 (A) (A) (A) (A) (A) (A) (A) (A) (A) (A) (A) (A)
                 (A) (A) (A) (A) (A) (A) (A) (A) (A) (A) (A) (A)
                 (A) (A) (A) (A) (A) (A) (A) (A) (A) (A) (A) (A)
 Requested convergence on RMS density matrix=1.00D-08 within 128 cycles.
 Requested convergence on MAX density matrix=1.00D-06.
 Requested convergence on             energy=1.00D-06.
 No special actions if energy rises.
 Keep R1 ints in memory in canonical form, NReq=27042479.
 PCMQM: There is more than one cavity, setting IComp=0.
 PCMQM: There is more than one cavity, setting IComp=0.
 PCMQM: There is more than one cavity, setting IComp=0.
 PCMQM: There is more than one cavity, setting IComp=0.
 PCMQM: There is more than one cavity, setting IComp=0.
 PCMQM: There is more than one cavity, setting IComp=0.
 PCMQM: There is more than one cavity, setting IComp=0.
 PCMQM: There is more than one cavity, setting IComp=0.
 Error on total polarization charges =  0.05198
 SCF Done:  E(RM062X) =  -305.648454630     A.U. after    7 cycles
             Convg  =    0.5646D-08             -V/T =  2.0089
 SMD-CDS (non-electrostatic) energy             (kcal/mol) =       4.83
 (included in total energy above)
[...]
 Vib (V=0)    6  0.171550D+01          0.234392          0.539706
 Vib (V=0)    7  0.162376D+01          0.210521          0.484742
 Vib (V=0)    8  0.158793D+01          0.200831          0.462431
 Vib (V=0)    9  0.157356D+01          0.196882          0.453338
 Vib (V=0)   10  0.142140D+01          0.152715          0.351640
 Vib (V=0)   11  0.140605D+01          0.148002          0.340788
 Vib (V=0)   12  0.133735D+01          0.126244          0.290688
 Vib (V=0)   13  0.132167D+01          0.121123          0.278896
 Vib (V=0)   14  0.129836D+01          0.113395          0.261102
 Vib (V=0)   15  0.113397D+01          0.054602          0.125727
 Vib (V=0)   16  0.107099D+01          0.029785          0.068582
 Vib (V=0)   17  0.106266D+01          0.026395          0.060776
 Electronic      0.100000D+01          0.000000          0.000000
 Translational   0.240346D+08          7.380836         16.995003
 Rotational      0.459239D+06          5.662039         13.037327
 ***** Axes restored to original set *****
 -------------------------------------------------------------------
 Center     Atomic                   Forces (Hartrees/Bohr)
 Number     Number              X              Y              Z
 -------------------------------------------------------------------
      1        8           0.000113764   -0.000126143    0.000204695
      2        1           0.000004588    0.000120472    0.000021355
      3        1          -0.000089955    0.000081794   -0.000208947
      4        8          -0.000129556   -0.000139991   -0.000043171
      5        8          -0.000124911   -0.000161658    0.000100521
      6        8          -0.000010090   -0.000009158    0.000014486
      7        1           0.000078901    0.000042133   -0.000007818
      8        1           0.000032266    0.000037048    0.000109196
      9        1           0.000184207    0.000195944   -0.000142961
     10        1           0.000003370   -0.000062054    0.000042437
     11        1          -0.000029604   -0.000001125   -0.000059343
     12        1          -0.000032979    0.000022740   -0.000030450
 -------------------------------------------------------------------
 Cartesian Forces:  Max     0.000208947 RMS     0.000100336

 GradGradGradGradGradGradGradGradGradGradGradGradGradGradGradGradGradGrad
 Berny optimization.
 Internal  Forces:  Max     0.000265826 RMS     0.000054762
 Search for a local minimum.
 Step number   1 out of a maximum of    2
 All quantities printed in internal units (Hartrees-Bohrs-Radians)
 Second derivative matrix not updated -- analytic derivatives used.
     Eigenvalues ---   -0.00002   0.00018   0.00044   0.00052   0.00096
     Eigenvalues ---    0.00116   0.00143   0.00147   0.00271   0.00377
     Eigenvalues ---    0.00417   0.00514   0.00768   0.00836   0.01174
     Eigenvalues ---    0.01218   0.01354   0.01408   0.06776   0.07035
     Eigenvalues ---    0.07058   0.08809   0.43002   0.47571   0.51189
     Eigenvalues ---    0.53117   0.53999   0.54016   0.54691   0.54754
     Eigenvalues --- 1000.000001000.000001000.000001000.000001000.00000
     Eigenvalues --- 1000.000001000.000001000.000001000.000001000.00000
     Eigenvalues --- 1000.000001000.000001000.000001000.000001000.00000
     Eigenvalues --- 1000.000001000.000001000.000001000.000001000.00000
     Eigenvalues --- 1000.000001000.000001000.000001000.000001000.00000
     Eigenvalues --- 1000.000001000.000001000.000001000.000001000.00000
     Eigenvalues --- 1000.00000
 Eigenvalue     1 is  -2.26D-05 should be greater than     0.000000 Eigenvector:
                          R9        R5        R3        R4        A4
   1                    0.58097   0.55461   0.28556   0.20594   0.17201
                          A5        A8        A16       A14       A2
   1                    0.15100   0.14436   0.13568   0.13241  -0.12799
 Quadratic step=1.356D+00 exceeds max=3.000D-01 adjusted using Lamda=-1.084D-04.
 Angle between NR and scaled steps=  29.94 degrees.
 Angle between quadratic step and forces=  74.55 degrees.
 Linear search not attempted -- first point.
 Iteration  1 RMS(Cart)=  0.07027922 RMS(Int)=  0.00118423
 Iteration  2 RMS(Cart)=  0.00144467 RMS(Int)=  0.00045352
 Iteration  3 RMS(Cart)=  0.00000092 RMS(Int)=  0.00045352
 Variable       Old X    -DE/DX   Delta X   Delta X   Delta X     New X
                                 (Linear)    (Quad)   (Total)
    R1        1.84145  -0.00004   0.00000  -0.00007  -0.00005   1.84140
    R2        1.84160  -0.00007   0.00000   0.00025   0.00080   1.84240
    R3        8.15821   0.00003   0.00000  -0.01532  -0.01506   8.14315
    R4        8.32321   0.00003   0.00000  -0.03514  -0.03494   8.28828
    R5        8.15582   0.00000   0.00000  -0.07792  -0.07755   8.07827
    R6        8.84720  -0.00002   0.00000  -0.04159  -0.04215   8.80506
    R7        3.53094  -0.00001   0.00000  -0.00024  -0.00024   3.53069
    R8        3.51923  -0.00001   0.00000  -0.00823  -0.00823   3.51100
    R9        8.21602  -0.00006   0.00000  -0.18163  -0.18194   8.03409
   R10        1.82601   0.00010   0.00000   0.00015   0.00015   1.82616
   R11        1.82658  -0.00011   0.00000  -0.00016  -0.00016   1.82642
   R12        1.82439   0.00027   0.00000   0.00050   0.00031   1.82470
   R13        1.82477   0.00001   0.00000   0.00001  -0.00005   1.82472
   R14        1.82633  -0.00006   0.00000  -0.00007  -0.00007   1.82626
   R15        1.82621   0.00002   0.00000   0.00009   0.00009   1.82629
    A1        1.84714   0.00012   0.00000   0.00068  -0.00004   1.84710
    A2        2.05541   0.00001   0.00000  -0.01262  -0.01332   2.04208
    A3        1.71375  -0.00003   0.00000  -0.01220  -0.01280   1.70095
    A4        1.51669  -0.00006   0.00000  -0.09048  -0.09043   1.42626
    A5        1.69786  -0.00004   0.00000  -0.08981  -0.08977   1.60809
    A6        0.35184   0.00003   0.00000   0.00229   0.00220   0.35404
    A7        2.03110  -0.00012   0.00000  -0.01944  -0.01964   2.01146
    A8        1.68727  -0.00001   0.00000  -0.06955  -0.07015   1.61712
    A9        1.98383  -0.00002   0.00000  -0.01159  -0.01157   1.97226
   A10        1.93106   0.00002   0.00000   0.01794   0.01796   1.94902
   A11        1.83291  -0.00002   0.00000  -0.00016  -0.00012   1.83278
   A12        0.33819   0.00001   0.00000   0.00102   0.00059   0.33878
   A13        1.73716  -0.00003   0.00000  -0.00724  -0.00740   1.72977
   A14        1.33907  -0.00003   0.00000  -0.03100  -0.03108   1.30799
   A15        1.57673  -0.00005   0.00000  -0.01202  -0.01224   1.56449
   A16        1.66709  -0.00002   0.00000  -0.03129  -0.03190   1.63519
   A17        1.82691   0.00006   0.00000   0.00074   0.00051   1.82742
   A18        1.93867  -0.00001   0.00000  -0.01084  -0.01092   1.92775
   A19        1.91173  -0.00002   0.00000  -0.00562  -0.00570   1.90602
   A20        1.83056   0.00001   0.00000  -0.00012  -0.00030   1.83027
   A21        3.11201  -0.00009   0.00000  -0.00608  -0.00563   3.10638
   A22        3.10871   0.00005   0.00000   0.02097   0.02110   3.12981
   A23        3.18574  -0.00005   0.00000   0.00418   0.00281   3.18855
   A24        3.11969   0.00005   0.00000   0.00951   0.00957   3.12927
    D1       -2.26038  -0.00002   0.00000  -0.03103  -0.02978  -2.29016
    D2        1.97456  -0.00001   0.00000  -0.04044  -0.03918   1.93538
    D3        1.96778  -0.00003   0.00000   0.00676   0.00591   1.97369
    D4       -0.08046  -0.00002   0.00000  -0.00265  -0.00350  -0.08396
    D5        2.26669   0.00001   0.00000   0.01011   0.01009   2.27678
    D6        0.21845   0.00001   0.00000   0.00071   0.00069   0.21913
    D7        1.63114   0.00004   0.00000   0.07552   0.07535   1.70649
    D8       -2.64472   0.00004   0.00000   0.06578   0.06576  -2.57896
    D9       -2.98470   0.00000   0.00000  -0.03561  -0.03536  -3.02007
   D10       -0.97737   0.00001   0.00000  -0.04535  -0.04496  -1.02233
   D11       -2.90705  -0.00002   0.00000  -0.02517  -0.02529  -2.93234
   D12       -0.89972  -0.00001   0.00000  -0.03490  -0.03488  -0.93460
   D13       -2.48587  -0.00004   0.00000   0.01042   0.00934  -2.47653
   D14        2.70374   0.00002   0.00000   0.02626   0.02619   2.72993
   D15        0.90672  -0.00004   0.00000   0.02767   0.02746   0.93417
   D16       -3.07455  -0.00001   0.00000  -0.02828  -0.02839  -3.10294
   D17       -1.06056  -0.00003   0.00000  -0.03801  -0.03826  -1.09882
   D18        2.18871   0.00001   0.00000   0.00859   0.00818   2.19690
   D19        0.13157   0.00003   0.00000   0.00396   0.00360   0.13516
   D20        2.54915  -0.00001   0.00000  -0.02320  -0.02370   2.52546
   D21       -1.66000   0.00004   0.00000  -0.01041  -0.00997  -1.66997
   D22        2.79446  -0.00002   0.00000  -0.00895  -0.00880   2.78567
         Item               Value     Threshold  Converged?
 Maximum Force            0.000266     0.000450     YES
 RMS     Force            0.000055     0.000300     YES
 Maximum Displacement     0.197063     0.001800     NO 
 RMS     Displacement     0.070698     0.001200     NO 
 Predicted change in Energy=-2.317219D-05
 GradGradGradGradGradGradGradGradGradGradGradGradGradGradGradGradGradGrad

 1|1|UNPC-DESKTOP-319GPER|Freq|RM062X|6-31+G(d,p)|H8O4|SAGAD|19-Jan-202
 1|0||#N Geom=AllCheck Guess=TCheck SCRF=Check GenChk RM062X/6-31+G(d,p
 ) Freq||Hidronio m062x con 4 aguas two||0,1|O,0.2527807646,0.886751598
 7,0.5861622751|H,-0.2349005491,0.4398260843,1.301696111|H,1.0432802018
 ,0.340985041,0.4219452321|O,2.5536311994,-0.6788213099,0.0385624452|O,
 -1.2366480911,-0.7874971419,-3.1038504642|O,-1.2498397289,-0.375870987
 6,2.6417708234|H,3.3739660936,-0.1682861334,0.0282483047|H,2.488296628
 6,-1.0657303818,-0.8447949054|H,-0.9264019985,0.0022934219,-3.56431685
 19|H,-2.0965020931,-0.5378925075,-2.7422039022|H,-1.0217947751,-0.0247
 552561,3.5128267551|H,-2.1825847422,-0.1538006477,2.5210461771||Versio
 n=IA32W-G09RevA.02|State=1-A|HF=-305.6485098|RMSD=1.936e-009|RMSF=1.00
 3e-004|ZeroPoint=0.0937689|Thermal=0.1056721|Dipole=-0.133874,0.512513
 8,0.3571127|DipoleDeriv=-1.1276648,-0.0211994,0.1205624,-0.0258721,-0.
 883393,-0.0758414,0.1166709,-0.0751175,-1.0328821,0.5743926,0.1320704,
 -0.1853782,0.1099342,0.4360002,-0.0593105,-0.1667269,-0.0767348,0.6529
 649,0.7294528,-0.159013,-0.0807056,-0.1357252,0.4832065,0.0948693,-0.0
 98807,0.1129644,0.4569533,-0.9100529,0.1373581,-0.0482921,0.1439528,-0
 .918561,-0.0121171,-0.0479717,-0.0093772,-0.7371304,-0.802895,-0.08535
 02,-0.0475476,-0.0856425,-0.6962212,-0.0498892,-0.0466139,-0.0496523,-
 0.9090541,-0.8212633,-0.1114803,0.0420976,-0.1158141,-0.8748128,0.1481
 527,0.0413452,0.1437814,-0.8700573,0.3729944,-0.0371904,0.040738,-0.02
 56987,0.4342164,-0.0031443,0.0649338,0.001374,0.4023,0.405211,0.001173
 3,0.0534694,-0.0165035,0.4534659,-0.0127608,0.0336569,-0.0229139,0.351
 1885,0.4290662,0.0354822,0.0120289,0.0098145,0.3231227,0.0517064,0.020
 7076,0.0366276,0.4514682,0.3744112,0.0497704,0.0360551,0.0765308,0.373
 3771,-0.0011595,0.0272194,0.0127599,0.4589288,0.4098223,0.0182721,0.04
 10547,0.0161727,0.4311072,-0.0545833,0.0127141,-0.0500605,0.3691866,0.
 3665256,0.0401069,0.0159173,0.048851,0.4384921,-0.0259223,0.0428717,-0
 .0236511,0.4061336|Polar=36.1712991,0.2721895,32.1984718,-2.0154625,0.
 039077,34.2533466|PG=C01 [X(H8O4)]|NImag=1||0.47120926,-0.12492635,0.3
 0934501,-0.24825332,-0.14255514,0.30610445,-0.13686567,-0.07356542,0.1
 5565417,0.15398792,-0.10544017,-0.12993436,0.17667447,0.08887205,0.121
 89419,0.18053468,0.15265255,-0.26130667,-0.17616308,-0.15474528,0.2644
 4562,-0.31774030,0.19480212,0.07964495,-0.01615924,0.01314408,0.001154
 56,0.33053518,0.22659407,-0.17642425,-0.03636548,-0.01800969,0.0112567
 8,0.00407130,-0.20339477,0.16774384,0.05463698,-0.01253056,-0.03691836
 ,0.02561213,-0.01929488,-0.00457090,-0.07901163,0.03063180,0.04618840,
 -0.01074355,0.00696600,0.00488348,-0.00008797,0.00149248,-0.00100008,0
 .00220171,-0.00337421,-0.00292041,0.43024957,0.00750108,-0.00110093,-0
 .00285494,0.00052515,-0.00137307,0.00069339,-0.00418756,-0.00299312,0.
 00082883,0.25570527,0.24852915,0.00431983,-0.00233228,0.00085648,-0.00
 020641,-0.00004759,0.00029557,-0.00194363,-0.00011544,-0.00347699,0.00
 263034,0.19568162,0.48970043,-0.00002097,-0.00005943,-0.00014961,-0.00
 002680,-0.00001169,0.00000471,0.00002483,0.00001019,0.00006117,-0.0000
 0918,0.00000839,-0.00003034,0.50253321,-0.00005873,-0.00008592,-0.0001
 9419,-0.00001839,-0.00001984,0.00000977,0.00002954,-0.00001020,0.00002
 826,-0.00001468,0.00002048,-0.00000717,-0.00241582,0.44686891,-0.00017
 012,-0.00020892,-0.00047286,-0.00001606,-0.00000997,0.00004420,0.00008
 017,-0.00000177,0.00005085,-0.00002233,0.00000959,-0.00000636,-0.26336
 185,-0.16498767,0.20386190,-0.00396888,-0.00351374,0.00793383,-0.00055
 461,0.00064752,-0.00513396,0.00071724,-0.00070926,0.00011352,-0.000311
 99,0.00022325,0.00009460,0.00001132,0.00000420,0.00000174,0.56368061,-
 0.00432000,0.00044074,0.00441322,0.00180339,-0.00306473,-0.00216707,0.
 00029396,-0.00106484,0.00083759,-0.00028060,0.00021509,0.00006576,0.00
 000421,0.00001455,0.00000225,-0.08468443,0.12013858,0.00871089,0.00413
 030,-0.00757414,-0.00563535,-0.00104611,0.00137328,-0.00056840,0.00151
 542,-0.00071128,0.00048939,-0.00032754,-0.00009567,-0.00000811,-0.0000
 1078,-0.00003793,0.15646244,0.17368961,0.48163014,0.00012277,0.0004024
 3,-0.00004363,0.00005707,-0.00002445,0.00002220,-0.00168437,-0.0007352
 3,0.00019935,-0.38566121,-0.24082421,-0.00700752,0.00000451,0.00000327
 ,0.00000254,0.00000672,0.00000270,-0.00000888,0.39123166,0.00127912,-0
 .00139966,-0.00052372,-0.00006522,-0.00004430,0.00006190,-0.00106187,0
 .00240549,0.00086182,-0.22447062,-0.15093534,-0.01968682,-0.00000121,-
 0.00000271,0.00000127,0.00002779,0.00001433,-0.00004020,0.24101342,0.1
 5953441,0.00056779,-0.00054474,-0.00011337,-0.00004678,-0.00001221,0.0
 0008603,-0.00074479,0.00110684,0.00010362,0.03670518,0.00760149,-0.039
 52977,0.00000908,0.00000190,0.00000442,0.00000434,0.00000863,-0.000023
 04,0.00041155,0.01543945,0.04143735,-0.00152535,0.00071974,-0.00019107
 ,0.00005406,0.00003926,-0.00005969,0.00206182,-0.00040757,0.00133360,-
 0.03565066,-0.01894116,0.00214127,0.00001861,-0.00000528,0.00000556,-0
 .00002716,-0.00002280,0.00001775,-0.00406434,-0.01672442,-0.03691024,0
 .03914660,0.00006316,0.00004818,0.00028118,0.00004103,0.00007329,0.000
 00117,0.00040010,-0.00090537,-0.00133207,-0.03600362,-0.09234993,-0.17
 356891,-0.00001275,-0.00001939,-0.00000875,-0.00000703,-0.00001334,0.0
 0001105,0.00016308,-0.00958069,-0.02360393,0.03533900,0.10273817,-0.00
 076188,0.00032484,0.00022737,-0.00001455,0.00004609,-0.00002892,0.0014
 8360,-0.00083698,-0.00077205,-0.04079935,-0.20161556,-0.44774298,0.000
 02452,-0.00000525,-0.00001108,-0.00002134,-0.00000939,0.00002165,0.006
 42547,0.00388883,-0.00196152,0.03366842,0.19820959,0.45026212,-0.00002
 089,-0.00000442,-0.00002137,0.00000480,0.00000270,-0.00000002,0.000008
 83,0.00000188,-0.00001274,0.00000854,-0.00001012,0.00001505,-0.0818497
 3,-0.09785016,0.07920258,-0.00000433,-0.00000078,-0.00000065,-0.000004
 66,0.00000064,-0.00000447,-0.00000629,0.00001458,-0.00000625,0.0958820
 5,-0.00000297,-0.00001517,-0.00004010,-0.00000028,0.00000143,-0.000002
 26,0.00000144,0.00000597,0.00000677,0.00000077,-0.00000665,0.00000096,
 -0.14367384,-0.37273604,0.21492262,0.,-0.00000327,0.00000006,0.0000001
 1,0.00000156,0.00000095,0.00000370,0.00000353,0.00000312,0.13324222,0.
 36651944,0.00000203,0.00002544,-0.00004560,-0.00000158,-0.00000349,-0.
 00001496,-0.00000306,-0.00000135,-0.00000506,0.00002310,-0.00000963,0.
 00001079,0.09636605,0.19056017,-0.12315070,-0.00000117,-0.00000352,0.0
 0001292,-0.00000576,0.00000100,-0.00000289,-0.00001589,0.00001177,-0.0
 0000346,-0.09972352,-0.20720659,0.13121057,0.00006081,0.00004274,0.000
 12221,0.00001227,0.00000290,-0.00001754,-0.00001924,0.00000055,-0.0000
 1039,0.00001614,-0.00000381,0.00000787,-0.42068251,0.10032624,0.184277
 26,-0.00000629,-0.00000266,0.00001183,-0.00000295,-0.00000044,-0.00000
 280,-0.00000889,0.00000277,-0.00000211,-0.01402027,0.01042874,0.003358
 79,0.43464795,0.00004313,-0.00000639,0.00005485,0.00000719,0.00000931,
 -0.00000893,-0.00000895,0.00000928,0.00000178,0.00000372,-0.00000776,0
 .00000157,0.14615300,-0.07402149,-0.04972162,-0.00000353,-0.00000960,0
 .00000364,-0.00000098,0.00000103,-0.00000066,-0.00000121,0.00000204,-0
 .00000300,-0.03539664,0.00622659,0.01662425,-0.11079680,0.06779050,0.0
 0012132,0.00003417,0.00012181,-0.00000517,-0.00000361,-0.00003634,-0.0
 0002576,0.00001191,0.00001078,0.00000999,-0.00000201,-0.00000602,0.167
 08605,-0.02539872,-0.08030007,0.00000463,0.00000032,0.00002462,-0.0000
 0014,-0.00000211,0.00000036,0.00000316,-0.00000046,0.00000901,0.020548
 67,-0.00768552,-0.00800477,-0.18774104,0.03304887,0.08819546,-0.001062
 29,-0.00088943,0.00082021,0.00171687,0.00159209,-0.00048869,0.00007122
 ,-0.00007618,0.00004008,-0.00004596,0.00002229,-0.00000779,-0.00000084
 ,0.00000045,0.00000506,-0.06621234,-0.02045896,-0.07901147,-0.00000252
 ,0.00000494,0.00000946,0.00000262,-0.00000071,-0.00000011,0.00000159,0
 .00000006,-0.00000109,-0.00000082,0.00000011,-0.00000357,0.07690111,-0
 .00072627,-0.00046737,0.00043616,0.00115990,0.00083088,0.00016721,-0.0
 0003886,-0.00006944,0.00001047,-0.00001987,0.00000650,0.00000503,0.000
 00067,-0.00000166,0.00000156,-0.04278824,-0.07824183,-0.18351472,-0.00
 000021,0.00000392,0.00000178,-0.00000005,0.00000117,-0.00000160,0.0000
 0006,0.00000092,0.00000062,-0.00000041,0.00000131,-0.00000122,0.036373
 45,0.07569736,-0.00006940,0.00011259,0.00042859,0.00027726,-0.00024391
 ,-0.00217047,0.00004778,-0.00000511,0.00001454,-0.00001663,0.00001019,
 0.00000631,0.00000134,0.00000091,0.00000228,-0.12506479,-0.16880160,-0
 .43140410,0.00000242,0.00000059,-0.00000070,-0.00000068,-0.00000115,-0
 .00000168,0.00000064,0.00000020,-0.00000183,-0.00000140,0.00000015,-0.
 00000160,0.11988845,0.17379350,0.44022573,0.00055505,0.00002575,-0.000
 39986,-0.00213870,-0.00031676,0.00114690,-0.00001766,0.00010022,-0.000
 04167,0.00003458,-0.00001856,-0.00001326,-0.00000244,-0.00000065,-0.00
 000455,-0.49333030,0.10766598,-0.08045945,-0.00000268,-0.00000212,0.00
 000167,-0.00000102,0.00000039,0.00000358,0.00000036,0.00000005,0.00000
 210,0.00000381,0.00000096,0.00000186,-0.01136864,0.00603983,0.00493501
 ,0.50626765,-0.00000607,-0.00039988,0.00067370,-0.00074970,0.00037042,
 -0.00073374,0.00002076,0.00004586,-0.00004981,-0.00000463,-0.00000442,
 0.00000327,-0.00000172,-0.00000668,0.00000140,0.13080348,-0.03842568,0
 .00558928,0.00000007,0.00000196,0.00000049,0.00000080,0.00000234,-0.00
 000067,0.00000004,0.00000171,0.00000132,0.00000018,0.00000519,-0.00000
 164,-0.01656811,0.00223825,-0.00486637,-0.11349510,0.03617092,0.000361
 19,0.00089175,-0.00130770,0.00054540,-0.00131353,0.00188356,-0.0001138
 0,-0.00001112,0.00008647,0.00001733,-0.00001543,-0.00001178,-0.0000030
 1,0.00000277,0.00001536,-0.03439385,-0.00803582,-0.04321644,0.00000241
 ,-0.00000200,-0.00000050,0.00000780,0.00000052,0.00000154,0.00000208,-
 0.00000022,-0.00000500,-0.00000269,-0.00000090,-0.00001323,-0.04125053
 ,0.00910121,-0.00709707,0.07482768,-0.00061723,0.04966479||-0.00011376
 ,0.00012614,-0.00020469,-0.00000459,-0.00012047,-0.00002136,0.00008996
 ,-0.00008179,0.00020895,0.00012956,0.00013999,0.00004317,0.00012491,0.
 00016166,-0.00010052,0.00001009,0.00000916,-0.00001449,-0.00007890,-0.
 00004213,0.00000782,-0.00003227,-0.00003705,-0.00010920,-0.00018421,-0
 .00019594,0.00014296,-0.00000337,0.00006205,-0.00004244,0.00002960,0.0
 0000113,0.00005934,0.00003298,-0.00002274,0.00003045|||@


 A COMPLEXITY IS MERELY A DISARRANGEMENT OF SIMPLICITIES.

                                    -- G. O. ABELL IN "EXPLORATION OF THE UNIVERSE"
 Job cpu time:  0 days  0 hours  1 minutes 16.0 seconds.
 File lengths (MBytes):  RWF=     38 Int=      0 D2E=      0 Chk=      4 Scr=      1
 Normal termination of Gaussian 09 at Tue Jan 19 23:18:40 2021.
