 Entering Link 1 = C:\G09W\l1.exe PID=      5220.
  
 Copyright (c) 1988,1990,1992,1993,1995,1998,2003,2009, Gaussian, Inc.
                  All Rights Reserved.
  
 This is part of the Gaussian(R) 09 program.  It is based on
 the Gaussian(R) 03 system (copyright 2003, Gaussian, Inc.),
 the Gaussian(R) 98 system (copyright 1998, Gaussian, Inc.),
 the Gaussian(R) 94 system (copyright 1995, Gaussian, Inc.),
 the Gaussian 92(TM) system (copyright 1992, Gaussian, Inc.),
 the Gaussian 90(TM) system (copyright 1990, Gaussian, Inc.),
 the Gaussian 88(TM) system (copyright 1988, Gaussian, Inc.),
 the Gaussian 86(TM) system (copyright 1986, Carnegie Mellon
 University), and the Gaussian 82(TM) system (copyright 1983,
 Carnegie Mellon University). Gaussian is a federally registered
 trademark of Gaussian, Inc.
  
 This software contains proprietary and confidential information,
 including trade secrets, belonging to Gaussian, Inc.
  
 This software is provided under written license and may be
 used, copied, transmitted, or stored only in accord with that
 written license.
  
 The following legend is applicable only to US Government
 contracts under FAR:
  
                    RESTRICTED RIGHTS LEGEND
  
 Use, reproduction and disclosure by the US Government is
 subject to restrictions as set forth in subparagraphs (a)
 and (c) of the Commercial Computer Software - Restricted
 Rights clause in FAR 52.227-19.
  
 Gaussian, Inc.
 340 Quinnipiac St., Bldg. 40, Wallingford CT 06492
  
  
 ---------------------------------------------------------------
 Warning -- This program may not be used in any manner that
 competes with the business of Gaussian, Inc. or will provide
 assistance to any competitor of Gaussian, Inc.  The licensee
 of this program is prohibited from giving any competitor of
 Gaussian, Inc. access to this program.  By using this program,
 the user acknowledges that Gaussian, Inc. is engaged in the
 business of creating and licensing software in the field of
 computational chemistry and represents and warrants to the
 licensee that it is not a competitor of Gaussian, Inc. and that
 it will not use this program in any manner prohibited above.
 ---------------------------------------------------------------
  

 Cite this work as:
 Gaussian 09, Revision A.02,
 M. J. Frisch, G. W. Trucks, H. B. Schlegel, G. E. Scuseria, 
 M. A. Robb, J. R. Cheeseman, G. Scalmani, V. Barone, B. Mennucci, 
 G. A. Petersson, H. Nakatsuji, M. Caricato, X. Li, H. P. Hratchian, 
 A. F. Izmaylov, J. Bloino, G. Zheng, J. L. Sonnenberg, M. Hada, 
 M. Ehara, K. Toyota, R. Fukuda, J. Hasegawa, M. Ishida, T. Nakajima, 
 Y. Honda, O. Kitao, H. Nakai, T. Vreven, J. A. Montgomery, Jr., 
 J. E. Peralta, F. Ogliaro, M. Bearpark, J. J. Heyd, E. Brothers, 
 K. N. Kudin, V. N. Staroverov, R. Kobayashi, J. Normand, 
 K. Raghavachari, A. Rendell, J. C. Burant, S. S. Iyengar, J. Tomasi, 
 M. Cossi, N. Rega, J. M. Millam, M. Klene, J. E. Knox, J. B. Cross, 
 V. Bakken, C. Adamo, J. Jaramillo, R. Gomperts, R. E. Stratmann, 
 O. Yazyev, A. J. Austin, R. Cammi, C. Pomelli, J. W. Ochterski, 
 R. L. Martin, K. Morokuma, V. G. Zakrzewski, G. A. Voth, 
 P. Salvador, J. J. Dannenberg, S. Dapprich, A. D. Daniels, 
 O. Farkas, J. B. Foresman, J. V. Ortiz, J. Cioslowski, 
 and D. J. Fox, Gaussian, Inc., Wallingford CT, 2009.
 
 ******************************************
 Gaussian 09:  IA32W-G09RevA.02 11-Jun-2009
                19-Jan-2021 
 ******************************************
 %chk=D:\Documents\rayGit\FQ\quimicaComputacional\p4Pka\reactivos\4WATERSM062X.ch
 k
 %mem=1500MB
 %nprocshared=4
 Will use up to    4 processors via shared memory.
 -------------------------------------
 # opt freq 6-31+g(d,p) scrf=smd m062x
 -------------------------------------
 1/14=-1,18=20,19=15,26=3,38=1/1,3;
 2/9=110,12=2,17=6,18=5,40=1/2;
 3/5=1,6=6,7=111,11=2,16=1,25=1,30=1,70=32201,71=1,72=1,74=-55/1,2,3;
 4//1;
 5/5=2,38=5/2;
 6/7=2,8=2,9=2,10=2,28=1/1;
 7//1,2,3,16;
 1/14=-1,18=20,19=15/3(2);
 2/9=110/2;
 99//99;
 2/9=110/2;
 3/5=1,6=6,7=111,11=2,16=1,25=1,30=1,70=32205,71=1,74=-55/1,2,3;
 4/5=5,16=3/1;
 5/5=2,38=5/2;
 7//1,2,3,16;
 1/14=-1,18=20,19=15/3(-5);
 2/9=110/2;
 6/7=2,8=2,9=2,10=2,19=2,28=1/1;
 99/9=1/99;
 --------------------------
 Hidronio m062x con 4 aguas
 --------------------------
 Symbolic Z-matrix:
 Charge =  0 Multiplicity = 1
 O                    -0.00019   0.49534   0. 
 H                    -0.46115   0.16332   0.79709 
 H                     0.92173   0.16797   0. 
 O                     2.58026  -0.42097   0. 
 O                    -1.29     -0.43368  -2.23034 
 O                    -1.29     -0.43368   2.23034 
 H                     3.3108    0.20186   0. 
 H                     2.75439  -1.36505   0. 
 H                    -0.74916  -0.26653  -3.00568 
 H                    -2.13211   0.01756  -2.32426 
 H                    -0.74916  -0.26653   3.00568 
 H                    -2.13211   0.01756   2.32426 
 

 GradGradGradGradGradGradGradGradGradGradGradGradGradGradGradGradGradGrad
 Berny optimization.
 Initialization pass.
                           ----------------------------
                           !    Initial Parameters    !
                           ! (Angstroms and Degrees)  !
 --------------------------                            --------------------------
 ! Name  Definition              Value          Derivative Info.                !
 --------------------------------------------------------------------------------
 ! R1    R(1,2)                  0.9788         estimate D2E/DX2                !
 ! R2    R(1,3)                  0.9783         estimate D2E/DX2                !
 ! R3    R(1,5)                  2.7388         estimate D2E/DX2                !
 ! R4    R(1,9)                  3.1899         estimate D2E/DX2                !
 ! R5    R(1,10)                 3.1899         estimate D2E/DX2                !
 ! R6    R(2,5)                  3.1951         estimate D2E/DX2                !
 ! R7    R(2,6)                  1.76           estimate D2E/DX2                !
 ! R8    R(3,4)                  1.76           estimate D2E/DX2                !
 ! R9    R(3,5)                  3.1981         estimate D2E/DX2                !
 ! R10   R(4,7)                  0.96           estimate D2E/DX2                !
 ! R11   R(4,8)                  0.96           estimate D2E/DX2                !
 ! R12   R(5,9)                  0.96           estimate D2E/DX2                !
 ! R13   R(5,10)                 0.96           estimate D2E/DX2                !
 ! R14   R(6,11)                 0.96           estimate D2E/DX2                !
 ! R15   R(6,12)                 0.96           estimate D2E/DX2                !
 ! A1    A(2,1,3)              109.2858         estimate D2E/DX2                !
 ! A2    A(2,1,9)              125.1504         estimate D2E/DX2                !
 ! A3    A(2,1,10)             103.1679         estimate D2E/DX2                !
 ! A4    A(3,1,9)               98.1252         estimate D2E/DX2                !
 ! A5    A(3,1,10)             125.4283         estimate D2E/DX2                !
 ! A6    A(9,1,10)              28.4492         estimate D2E/DX2                !
 ! A7    A(5,2,6)              125.878          estimate D2E/DX2                !
 ! A8    A(4,3,5)              126.068          estimate D2E/DX2                !
 ! A9    A(3,4,7)              120.0            estimate D2E/DX2                !
 ! A10   A(3,4,8)              120.0            estimate D2E/DX2                !
 ! A11   A(7,4,8)              120.0            estimate D2E/DX2                !
 ! A12   A(2,5,3)               28.9151         estimate D2E/DX2                !
 ! A13   A(2,5,9)              125.9151         estimate D2E/DX2                !
 ! A14   A(2,5,10)             103.44           estimate D2E/DX2                !
 ! A15   A(3,5,9)               98.0988         estimate D2E/DX2                !
 ! A16   A(3,5,10)             125.9049         estimate D2E/DX2                !
 ! A17   A(9,5,10)             109.4712         estimate D2E/DX2                !
 ! A18   A(2,6,11)             109.4712         estimate D2E/DX2                !
 ! A19   A(2,6,12)             109.4712         estimate D2E/DX2                !
 ! A20   A(11,6,12)            109.4712         estimate D2E/DX2                !
 ! A21   L(1,2,6,10,-1)        180.0            estimate D2E/DX2                !
 ! A22   L(1,3,4,9,-1)         180.0            estimate D2E/DX2                !
 ! A23   L(1,2,6,10,-2)        180.0            estimate D2E/DX2                !
 ! A24   L(1,3,4,9,-2)         180.0            estimate D2E/DX2                !
 ! D1    D(2,1,4,7)           -120.372          estimate D2E/DX2                !
 ! D2    D(2,1,4,8)             59.628          estimate D2E/DX2                !
 ! D3    D(9,1,4,7)            107.8615         estimate D2E/DX2                !
 ! D4    D(9,1,4,8)            -72.1385         estimate D2E/DX2                !
 ! D5    D(10,1,4,7)           116.5947         estimate D2E/DX2                !
 ! D6    D(10,1,4,8)           -63.4053         estimate D2E/DX2                !
 ! D7    D(3,1,6,11)            49.0944         estimate D2E/DX2                !
 ! D8    D(3,1,6,12)           169.0944         estimate D2E/DX2                !
 ! D9    D(9,1,6,11)           164.5316         estimate D2E/DX2                !
 ! D10   D(9,1,6,12)           -75.4684         estimate D2E/DX2                !
 ! D11   D(10,1,6,11)         -175.4589         estimate D2E/DX2                !
 ! D12   D(10,1,6,12)          -55.4589         estimate D2E/DX2                !
 ! D13   D(6,2,5,3)           -148.6522         estimate D2E/DX2                !
 ! D14   D(6,2,5,9)           -166.5788         estimate D2E/DX2                !
 ! D15   D(6,2,5,10)            66.8193         estimate D2E/DX2                !
 ! D16   D(5,2,6,11)           168.499          estimate D2E/DX2                !
 ! D17   D(5,2,6,12)           -71.501          estimate D2E/DX2                !
 ! D18   D(5,3,4,7)            120.372          estimate D2E/DX2                !
 ! D19   D(5,3,4,8)            -59.628          estimate D2E/DX2                !
 ! D20   D(4,3,5,2)            148.5503         estimate D2E/DX2                !
 ! D21   D(4,3,5,9)            -46.0333         estimate D2E/DX2                !
 ! D22   D(4,3,5,10)          -167.2784         estimate D2E/DX2                !
 --------------------------------------------------------------------------------
 Trust Radius=3.00D-01 FncErr=1.00D-07 GrdErr=1.00D-06
 Number of steps in this run=  71 maximum allowed number of steps= 100.
 GradGradGradGradGradGradGradGradGradGradGradGradGradGradGradGradGradGrad

                          Input orientation:                          
 ---------------------------------------------------------------------
 Center     Atomic      Atomic             Coordinates (Angstroms)
 Number     Number       Type             X           Y           Z
 ---------------------------------------------------------------------
      1          8           0       -0.000191    0.495344    0.000000
      2          1           0       -0.461150    0.163324    0.797092
      3          1           0        0.921727    0.167973    0.000000
      4          8           0        2.580264   -0.420970    0.000000
      5          8           0       -1.289998   -0.433680   -2.230339
      6          8           0       -1.289998   -0.433680    2.230339
      7          1           0        3.310796    0.201865    0.000000
      8          1           0        2.754389   -1.365047    0.000000
      9          1           0       -0.749164   -0.266528   -3.005683
     10          1           0       -2.132114    0.017564   -2.324257
     11          1           0       -0.749164   -0.266528    3.005683
     12          1           0       -2.132114    0.017564    2.324257
 ---------------------------------------------------------------------
                    Distance matrix (angstroms):
                    1          2          3          4          5
     1  O    0.000000
     2  H    0.978814   0.000000
     3  H    0.978317   1.596160   0.000000
     4  O    2.738317   3.197961   1.760000   0.000000
     5  O    2.738814   3.195112   3.198144   4.466935   0.000000
     6  O    2.738814   1.760000   3.198144   4.466935   4.460678
     7  H    3.323968   3.855440   2.389310   0.960000   5.152246
     8  H    3.323968   3.648420   2.389310   0.960000   4.711574
     9  H    3.189912   3.837815   3.466237   4.488104   0.960000
    10  H    3.189912   3.543471   3.840669   5.272665   0.960000
    11  H    3.189912   2.268392   3.466237   4.488104   5.266533
    12  H    3.189912   2.268392   3.840669   5.272665   4.653722
                    6          7          8          9         10
     6  O    0.000000
     7  H    5.152246   0.000000
     8  H    4.711574   1.662769   0.000000
     9  H    5.266533   5.073145   4.745077   0.000000
    10  H    4.653722   5.921267   5.584953   1.567673   0.000000
    11  H    0.960000   5.073145   4.745077   6.011367   5.513758
    12  H    0.960000   5.921267   5.584953   5.513758   4.648515
                   11         12
    11  H    0.000000
    12  H    1.567673   0.000000
 Stoichiometry    H8O4
 Framework group  C1[X(H8O4)]
 Deg. of freedom    30
 Full point group                 C1      NOp   1
 Largest Abelian subgroup         C1      NOp   1
 Largest concise Abelian subgroup C1      NOp   1
                         Standard orientation:                         
 ---------------------------------------------------------------------
 Center     Atomic      Atomic             Coordinates (Angstroms)
 Number     Number       Type             X           Y           Z
 ---------------------------------------------------------------------
      1          8           0       -0.023788    0.030871    0.686640
      2          1           0       -0.768864   -0.502413    0.342335
      3          1           0        0.820233   -0.357178    0.379801
      4          8           0        2.338634   -1.055281   -0.172204
      5          8           0       -0.241641    2.589869   -0.264766
      6          8           0       -2.108580   -1.461310   -0.276758
      7          1           0        2.988674   -1.356736    0.466680
      8          1           0        2.516813   -1.134610   -1.112182
      9          1           0        0.570362    3.068847   -0.083574
     10          1           0       -0.976533    3.030666    0.167938
     11          1           0       -1.945590   -2.390663   -0.099736
     12          1           0       -2.922088   -1.191105    0.155440
 ---------------------------------------------------------------------
 Rotational constants (GHZ):      2.5160153      2.5009610      1.3346562
 Standard basis: 6-31+G(d,p) (6D, 7F)
 There are   116 symmetry adapted basis functions of A   symmetry.
 Integral buffers will be    262144 words long.
 Raffenetti 2 integral format.
 Two-electron integral symmetry is turned on.
   116 basis functions,   184 primitive gaussians,   116 cartesian basis functions
    20 alpha electrons       20 beta electrons
       nuclear repulsion energy       127.8673162555 Hartrees.
 NAtoms=   12 NActive=   12 NUniq=   12 SFac= 7.50D-01 NAtFMM=   80 NAOKFM=F Big=F
 ------------------------------------------------------------------------------
 Polarizable Continuum Model (PCM)
 =================================
 Model                : PCM.
 Atomic radii         : SMD-Coulomb.
 Polarization charges : Total charges.
 Charge compensation  : None.
 Solution method      : Matrix inversion.
 Cavity type          : VdW (van der Waals Surface) (Alpha=1.000).
 Cavity algorithm     : GePol (No added spheres)
                        Default sphere list used, NSphG=   12.
                        Lebedev-Laikov grids with approx.  5.0 points / Ang**2.
                        Smoothing algorithm: Karplus/York (Gamma=1.0000).
                        Polarization charges: spherical gaussians, with
                                              point-specific exponents (IZeta= 3).
                        Self-potential: point-specific (ISelfS= 7).
                        Self-field    : sphere-specific E.n sum rule (ISelfD= 2).
 1st derivatives      : Analytical E(r).r(x)/FMM algorithm (CHGder, D1EAlg=3).
                        Cavity 1st derivative terms included.
 Solvent              : Water, Eps=  78.355300 Eps(inf)=   1.777849
 ------------------------------------------------------------------------------
 Spheres list:
 ISph  on   Nord    Re0     Alpha      Xe            Ye            Ze
    1   O      1    1.520   1.000     -0.023788      0.030871      0.686640
    2   H      2    1.200   1.000     -0.768864     -0.502413      0.342335
    3   H      3    1.200   1.000      0.820233     -0.357178      0.379801
    4   O      4    1.520   1.000      2.338634     -1.055281     -0.172204
    5   O      5    1.520   1.000     -0.241641      2.589869     -0.264766
    6   O      6    1.520   1.000     -2.108580     -1.461310     -0.276758
    7   H      7    1.200   1.000      2.988674     -1.356736      0.466680
    8   H      8    1.200   1.000      2.516813     -1.134610     -1.112182
    9   H      9    1.200   1.000      0.570362      3.068847     -0.083574
   10   H     10    1.200   1.000     -0.976533      3.030666      0.167938
   11   H     11    1.200   1.000     -1.945590     -2.390663     -0.099736
   12   H     12    1.200   1.000     -2.922088     -1.191105      0.155440
 ------------------------------------------------------------------------------
 ------------------------------------------------------------------------------
 Atomic radii for non-electrostatic terms: SMD-CDS.
 ------------------------------------------------------------------------------
 Nuclear repulsion after PCM non-electrostatic terms =      127.8749794026 Hartrees.
 One-electron integrals computed using PRISM.
 NBasis=   116 RedAO= T  NBF=   116
 NBsUse=   116 1.00D-06 NBFU=   116
 Harris functional with IExCor= 1009 diagonalized for initial guess.
 ExpMin= 8.45D-02 ExpMax= 5.48D+03 ExpMxC= 8.25D+02 IAcc=2 IRadAn=         0 AccDes= 0.00D+00
 HarFok:  IExCor= 1009 AccDes= 0.00D+00 IRadAn=         0 IDoV= 1
 ScaDFX=  1.000000  1.000000  1.000000  1.000000
 FoFCou: FMM=F IPFlag=           0 FMFlag=      100000 FMFlg1=           0
         NFxFlg=           0 DoJE=T BraDBF=F KetDBF=T FulRan=T
         Omega=  0.000000  0.000000  1.000000  0.000000  0.000000 ICntrl=     500 IOpCl=  0
         NMat0=    1 NMatS0=    1 NMatT0=    0 NMatD0=    1 NMtDS0=    0 NMtDT0=    0
         I1Cent=           4 NGrid=           0.
 Petite list used in FoFCou.
 Initial guess orbital symmetries:
       Occupied  (A) (A) (A) (A) (A) (A) (A) (A) (A) (A) (A) (A)
                 (A) (A) (A) (A) (A) (A) (A) (A)
       Virtual   (A) (A) (A) (A) (A) (A) (A) (A) (A) (A) (A) (A)
                 (A) (A) (A) (A) (A) (A) (A) (A) (A) (A) (A) (A)
                 (A) (A) (A) (A) (A) (A) (A) (A) (A) (A) (A) (A)
                 (A) (A) (A) (A) (A) (A) (A) (A) (A) (A) (A) (A)
                 (A) (A) (A) (A) (A) (A) (A) (A) (A) (A) (A) (A)
                 (A) (A) (A) (A) (A) (A) (A) (A) (A) (A) (A) (A)
                 (A) (A) (A) (A) (A) (A) (A) (A) (A) (A) (A) (A)
                 (A) (A) (A) (A) (A) (A) (A) (A) (A) (A) (A) (A)
 The electronic state of the initial guess is 1-A.
 Requested convergence on RMS density matrix=1.00D-08 within 128 cycles.
 Requested convergence on MAX density matrix=1.00D-06.
 Requested convergence on             energy=1.00D-06.
 No special actions if energy rises.
 Keep R1 ints in memory in canonical form, NReq=27023229.
 Error on total polarization charges =  0.04861
 SCF Done:  E(RM062X) =  -305.634992751     A.U. after   10 cycles
             Convg  =    0.3476D-08             -V/T =  2.0086
 SMD-CDS (non-electrostatic) energy             (kcal/mol) =       4.81
 (included in total energy above)

 **********************************************************************

            Population analysis using the SCF density.

 **********************************************************************

 Orbital symmetries:
       Occupied  (A) (A) (A) (A) (A) (A) (A) (A) (A) (A) (A) (A)
                 (A) (A) (A) (A) (A) (A) (A) (A)
       Virtual   (A) (A) (A) (A) (A) (A) (A) (A) (A) (A) (A) (A)
                 (A) (A) (A) (A) (A) (A) (A) (A) (A) (A) (A) (A)
                 (A) (A) (A) (A) (A) (A) (A) (A) (A) (A) (A) (A)
                 (A) (A) (A) (A) (A) (A) (A) (A) (A) (A) (A) (A)
                 (A) (A) (A) (A) (A) (A) (A) (A) (A) (A) (A) (A)
                 (A) (A) (A) (A) (A) (A) (A) (A) (A) (A) (A) (A)
                 (A) (A) (A) (A) (A) (A) (A) (A) (A) (A) (A) (A)
                 (A) (A) (A) (A) (A) (A) (A) (A) (A) (A) (A) (A)
 The electronic state is 1-A.
 Alpha  occ. eigenvalues --  -19.65568 -19.65241 -19.63892 -19.61020  -1.14132
 Alpha  occ. eigenvalues --   -1.13493  -1.12415  -1.09167  -0.63718  -0.62049
 Alpha  occ. eigenvalues --   -0.60752  -0.59358  -0.49434  -0.46742  -0.46169
 Alpha  occ. eigenvalues --   -0.43061  -0.40924  -0.40507  -0.39465  -0.36260
 Alpha virt. eigenvalues --    0.06283   0.08949   0.09425   0.12911   0.13616
 Alpha virt. eigenvalues --    0.14862   0.15376   0.17183   0.19015   0.21143
 Alpha virt. eigenvalues --    0.22335   0.23345   0.25045   0.25390   0.26426
 Alpha virt. eigenvalues --    0.27264   0.29939   0.31066   0.31853   0.33654
 Alpha virt. eigenvalues --    0.35230   0.36278   0.40619   0.41262   1.00230
 Alpha virt. eigenvalues --    1.02466   1.04194   1.04538   1.09176   1.09666
 Alpha virt. eigenvalues --    1.10613   1.11980   1.14073   1.15537   1.16135
 Alpha virt. eigenvalues --    1.17564   1.19931   1.20382   1.20931   1.21381
 Alpha virt. eigenvalues --    1.22707   1.25000   1.26021   1.31790   1.39433
 Alpha virt. eigenvalues --    1.41497   1.48929   1.52859   1.53600   1.56053
 Alpha virt. eigenvalues --    1.58155   1.58685   1.62653   1.63974   1.65365
 Alpha virt. eigenvalues --    1.70992   1.73019   1.81150   1.85265   1.85536
 Alpha virt. eigenvalues --    2.18052   2.25264   2.27543   2.28446   2.29116
 Alpha virt. eigenvalues --    2.31232   2.34775   2.58335   2.58905   2.59495
 Alpha virt. eigenvalues --    2.61088   2.64245   2.64596   2.68142   2.69981
 Alpha virt. eigenvalues --    2.70992   2.72295   2.73130   2.75513   2.77153
 Alpha virt. eigenvalues --    3.01814   3.08177   3.08275   3.09364   3.37855
 Alpha virt. eigenvalues --    3.40328   3.41101   3.49727   3.54500   3.54549
 Alpha virt. eigenvalues --    3.58078   3.71968   3.97899   4.11815   4.20542
 Alpha virt. eigenvalues --    4.30650
          Condensed to atoms (all electrons):
              1          2          3          4          5          6
     1  O    8.594032   0.260678   0.264537  -0.036141  -0.097371  -0.042207
     2  H    0.260678   0.281232  -0.014087   0.001545   0.004521   0.001319
     3  H    0.264537  -0.014087   0.280290  -0.006978   0.004390   0.002199
     4  O   -0.036141   0.001545  -0.006978   8.332476   0.000252  -0.000201
     5  O   -0.097371   0.004521   0.004390   0.000252   8.355333   0.000428
     6  O   -0.042207   0.001319   0.002199  -0.000201   0.000428   8.325420
     7  H    0.001727  -0.000010  -0.000019   0.291141   0.000002   0.000003
     8  H    0.001372  -0.000065  -0.000136   0.293232   0.000022   0.000027
     9  H    0.003429  -0.000028  -0.000104   0.000011   0.289800  -0.000010
    10  H    0.003645  -0.000101  -0.000033  -0.000003   0.289534   0.000020
    11  H    0.001043  -0.001660  -0.000093   0.000011  -0.000019   0.291680
    12  H    0.001282  -0.001044   0.000031  -0.000008   0.000009   0.290827
              7          8          9         10         11         12
     1  O    0.001727   0.001372   0.003429   0.003645   0.001043   0.001282
     2  H   -0.000010  -0.000065  -0.000028  -0.000101  -0.001660  -0.001044
     3  H   -0.000019  -0.000136  -0.000104  -0.000033  -0.000093   0.000031
     4  O    0.291141   0.293232   0.000011  -0.000003   0.000011  -0.000008
     5  O    0.000002   0.000022   0.289800   0.289534  -0.000019   0.000009
     6  O    0.000003   0.000027  -0.000010   0.000020   0.291680   0.290827
     7  H    0.276633  -0.011736   0.000000   0.000000   0.000000   0.000000
     8  H   -0.011736   0.276168  -0.000001   0.000000  -0.000001   0.000000
     9  H    0.000000  -0.000001   0.299660  -0.016191   0.000000   0.000000
    10  H    0.000000   0.000000  -0.016191   0.300233   0.000000   0.000000
    11  H    0.000000  -0.000001   0.000000   0.000000   0.284821  -0.016110
    12  H    0.000000   0.000000   0.000000   0.000000  -0.016110   0.284986
 Mulliken atomic charges:
              1
     1  O   -0.956026
     2  H    0.467700
     3  H    0.470004
     4  O   -0.875337
     5  O   -0.846900
     6  O   -0.869505
     7  H    0.442259
     8  H    0.441117
     9  H    0.423434
    10  H    0.422896
    11  H    0.440329
    12  H    0.440028
 Sum of Mulliken atomic charges =   0.00000
 Mulliken charges with hydrogens summed into heavy atoms:
              1
     1  O   -0.018322
     4  O    0.008040
     5  O   -0.000570
     6  O    0.010852
 Sum of Mulliken charges with hydrogens summed into heavy atoms =   0.00000
 Electronic spatial extent (au):  <R**2>=            836.9508
 Charge=              0.0000 electrons
 Dipole moment (field-independent basis, Debye):
    X=              0.9088    Y=             -2.8773    Z=              0.2637  Tot=              3.0289
 Quadrupole moment (field-independent basis, Debye-Ang):
   XX=             -3.3497   YY=             -8.7737   ZZ=            -29.0416
   XY=             -0.1098   XZ=             -5.4961   YZ=              2.3889
 Traceless Quadrupole moment (field-independent basis, Debye-Ang):
   XX=             10.3720   YY=              4.9480   ZZ=            -15.3199
   XY=             -0.1098   XZ=             -5.4961   YZ=              2.3889
 Octapole moment (field-independent basis, Debye-Ang**2):
  XXX=              6.7683  YYY=             17.6791  ZZZ=             -5.2815  XYY=             -6.8246
  XXY=            -26.1655  XXZ=              8.8755  XZZ=             11.7518  YZZ=             -6.0331
  YYZ=             13.1272  XYZ=              2.4779
 Hexadecapole moment (field-independent basis, Debye-Ang**3):
 XXXX=           -212.3025 YYYY=           -242.0496 ZZZZ=            -56.9704 XXXY=            -30.4255
 XXXZ=            -24.6558 YYYX=             30.1582 YYYZ=             32.6253 ZZZX=            -12.4286
 ZZZY=              6.2738 XXYY=            -67.9043 XXZZ=            -65.9249 YYZZ=            -90.8602
 XXYZ=            -10.7410 YYXZ=            -13.8805 ZZXY=            -12.9961
 N-N= 1.278749794026D+02 E-N=-9.785267108318D+02  KE= 3.030381338527D+02
 D1PCM: PCM CHGder 1st derivatives, ID1Alg=3 FixD1E=F DoIter=F DoCFld=F I1PDM=0.
 Calling FoFJK, ICntrl=      2127 FMM=F ISym2X=0 I1Cent= 0 IOpClX= 0 NMat=1 NMatS=1 NMatT=0.
 ***** Axes restored to original set *****
 -------------------------------------------------------------------
 Center     Atomic                   Forces (Hartrees/Bohr)
 Number     Number              X              Y              Z
 -------------------------------------------------------------------
      1        8           0.003610637    0.008020838    0.006211436
      2        1           0.006324804   -0.000535604   -0.001898362
      3        1          -0.005144764   -0.000869078    0.004188346
      4        8          -0.026270672    0.009496290    0.000060407
      5        8          -0.001304102   -0.012809734    0.000992449
      6        8           0.002314750   -0.009384815   -0.009530087
      7        1           0.012034697   -0.012349917   -0.000096332
      8        1           0.017107045    0.002078119   -0.000207360
      9        1          -0.002713189    0.004086455   -0.005737812
     10        1          -0.001601033    0.003904782   -0.006327414
     11        1          -0.001472998    0.004189168    0.006422182
     12        1          -0.002885175    0.004173496    0.005922548
 -------------------------------------------------------------------
 Cartesian Forces:  Max     0.026270672 RMS     0.007758440

 GradGradGradGradGradGradGradGradGradGradGradGradGradGradGradGradGradGrad
 Berny optimization.
 Internal  Forces:  Max     0.020823836 RMS     0.003898554
 Search for a local minimum.
 Step number   1 out of a maximum of   71
 All quantities printed in internal units (Hartrees-Bohrs-Radians)
 Mixed Optimization -- RFO/linear search
 Second derivative matrix not updated -- first step.
     Eigenvalues ---    0.00230   0.00230   0.00230   0.00230   0.00230
     Eigenvalues ---    0.00915   0.01313   0.03012   0.03440   0.04376
     Eigenvalues ---    0.05393   0.06593   0.06593   0.08165   0.09344
     Eigenvalues ---    0.11544   0.14137   0.14700   0.16000   0.16000
     Eigenvalues ---    0.16000   0.16000   0.41200   0.41945   0.48644
     Eigenvalues ---    0.49392   0.55473   0.55473   0.55473   0.55473
     Eigenvalues --- 1000.000001000.000001000.000001000.000001000.00000
     Eigenvalues --- 1000.000001000.000001000.000001000.000001000.00000
     Eigenvalues --- 1000.000001000.000001000.000001000.000001000.00000
     Eigenvalues --- 1000.000001000.000001000.000001000.000001000.00000
     Eigenvalues --- 1000.000001000.000001000.000001000.000001000.00000
     Eigenvalues --- 1000.000001000.000001000.000001000.000001000.00000
     Eigenvalues --- 1000.00000
 RFO step:  Lambda=-7.77998323D-03 EMin= 2.30000000D-03
 Linear search not attempted -- first point.
 Maximum step size (   0.300) exceeded in Quadratic search.
    -- Step size scaled by   0.827
 Iteration  1 RMS(Cart)=  0.03367175 RMS(Int)=  0.00067564
 Iteration  2 RMS(Cart)=  0.00060674 RMS(Int)=  0.00022583
 Iteration  3 RMS(Cart)=  0.00000030 RMS(Int)=  0.00022583
 Variable       Old X    -DE/DX   Delta X   Delta X   Delta X     New X
                                 (Linear)    (Quad)   (Total)
    R1        1.84969  -0.00142   0.00000  -0.00153  -0.00156   1.84813
    R2        1.84875  -0.00192   0.00000  -0.00244  -0.00224   1.84651
    R3        5.17561   0.00306   0.00000   0.11585   0.11617   5.29178
    R4        6.02806   0.00332   0.00000   0.09217   0.09203   6.12009
    R5        6.02806   0.00322   0.00000   0.09572   0.09572   6.12378
    R6        6.03789   0.00213   0.00000   0.09385   0.09391   6.13180
    R7        3.32592   0.00361   0.00000   0.04050   0.04050   3.36642
    R8        3.32592   0.00302   0.00000   0.03385   0.03385   3.35977
    R9        6.04362   0.00142   0.00000   0.08441   0.08411   6.12773
   R10        1.81414   0.00109   0.00000   0.00160   0.00160   1.81574
   R11        1.81414   0.00113   0.00000   0.00166   0.00166   1.81580
   R12        1.81414   0.00192   0.00000   0.00496   0.00513   1.81927
   R13        1.81414   0.00229   0.00000   0.00541   0.00543   1.81956
   R14        1.81414   0.00512   0.00000   0.00753   0.00753   1.82166
   R15        1.81414   0.00504   0.00000   0.00742   0.00742   1.82155
    A1        1.90740  -0.00417   0.00000  -0.03381  -0.03415   1.87324
    A2        2.18429   0.00026   0.00000  -0.01077  -0.01104   2.17325
    A3        1.80062   0.00129   0.00000   0.00202   0.00168   1.80230
    A4        1.71261   0.00080   0.00000   0.00337   0.00337   1.71598
    A5        2.18914   0.00002   0.00000  -0.01831  -0.01874   2.17040
    A6        0.49653  -0.00045   0.00000  -0.01503  -0.01507   0.48146
    A7        2.19699  -0.00033   0.00000  -0.00112  -0.00121   2.19577
    A8        2.20030  -0.00094   0.00000  -0.00560  -0.00557   2.19473
    A9        2.09440   0.01054   0.00000   0.05194   0.05193   2.14632
   A10        2.09440   0.01029   0.00000   0.05070   0.05068   2.14508
   A11        2.09440  -0.02082   0.00000  -0.10264  -0.10266   1.99174
   A12        0.50466  -0.00138   0.00000  -0.01434  -0.01422   0.49044
   A13        2.19763  -0.00079   0.00000  -0.01641  -0.01684   2.18080
   A14        1.80537   0.00085   0.00000   0.00100   0.00062   1.80599
   A15        1.71215   0.00097   0.00000   0.00602   0.00612   1.71827
   A16        2.19746  -0.00108   0.00000  -0.01450  -0.01459   2.18286
   A17        1.91063  -0.00423   0.00000  -0.04786  -0.04868   1.86195
   A18        1.91063   0.00292   0.00000   0.00424   0.00422   1.91485
   A19        1.91063   0.00349   0.00000   0.00706   0.00703   1.91766
   A20        1.91063  -0.00492   0.00000  -0.04454  -0.04459   1.86604
   A21        3.14159  -0.00046   0.00000   0.00942   0.00943   3.15102
   A22        3.14159  -0.00075   0.00000   0.00536   0.00531   3.14690
   A23        3.14159   0.00179   0.00000   0.01827   0.01820   3.15979
   A24        3.14159  -0.00208   0.00000  -0.04452  -0.04462   3.09697
    D1       -2.10089  -0.00098   0.00000  -0.01759  -0.01749  -2.11838
    D2        1.04070  -0.00068   0.00000  -0.00299  -0.00280   1.03791
    D3        1.88254   0.00001   0.00000  -0.00063  -0.00049   1.88205
    D4       -1.25906   0.00031   0.00000   0.01397   0.01420  -1.24485
    D5        2.03496   0.00046   0.00000   0.00693   0.00658   2.04154
    D6       -1.10663   0.00077   0.00000   0.02152   0.02128  -1.08535
    D7        0.85686   0.00236   0.00000   0.05132   0.05100   0.90785
    D8        2.95125  -0.00001   0.00000  -0.00036  -0.00065   2.95061
    D9        2.87162   0.00066   0.00000   0.02574   0.02586   2.89748
   D10       -1.31717  -0.00171   0.00000  -0.02593  -0.02578  -1.34295
   D11       -3.06234   0.00089   0.00000   0.01283   0.01286  -3.04948
   D12       -0.96794  -0.00148   0.00000  -0.03885  -0.03879  -1.00673
   D13       -2.59447   0.00057   0.00000   0.01401   0.01394  -2.58054
   D14       -2.90735  -0.00284   0.00000  -0.05468  -0.05406  -2.96140
   D15        1.16622   0.00321   0.00000   0.02930   0.02897   1.19519
   D16        2.94086   0.00075   0.00000   0.01584   0.01598   2.95684
   D17       -1.24793  -0.00135   0.00000  -0.03179  -0.03167  -1.27959
   D18        2.10089   0.00028   0.00000  -0.00774  -0.00763   2.09326
   D19       -1.04070   0.00004   0.00000   0.00383   0.00363  -1.03707
   D20        2.59269  -0.00014   0.00000   0.01961   0.01961   2.61231
   D21       -0.80343  -0.00307   0.00000  -0.03896  -0.03897  -0.84241
   D22       -2.91956   0.00250   0.00000   0.03002   0.02964  -2.88992
         Item               Value     Threshold  Converged?
 Maximum Force            0.020824     0.000450     NO 
 RMS     Force            0.003899     0.000300     NO 
 Maximum Displacement     0.113622     0.001800     NO 
 RMS     Displacement     0.033591     0.001200     NO 
 Predicted change in Energy=-4.111120D-03
 GradGradGradGradGradGradGradGradGradGradGradGradGradGradGradGradGradGrad

                          Input orientation:                          
 ---------------------------------------------------------------------
 Center     Atomic      Atomic             Coordinates (Angstroms)
 Number     Number       Type             X           Y           Z
 ---------------------------------------------------------------------
      1          8           0       -0.005496    0.516472    0.004595
      2          1           0       -0.461938    0.166415    0.795534
      3          1           0        0.904359    0.160256    0.012135
      4          8           0        2.584710   -0.420595    0.013203
      5          8           0       -1.311634   -0.455884   -2.273594
      6          8           0       -1.291176   -0.441466    2.250301
      7          1           0        3.342321    0.170376    0.015972
      8          1           0        2.814515   -1.353524    0.001975
      9          1           0       -0.780211   -0.241664   -3.047235
     10          1           0       -2.147346    0.011638   -2.374244
     11          1           0       -0.756383   -0.256327    3.030675
     12          1           0       -2.128439    0.021504    2.367774
 ---------------------------------------------------------------------
                    Distance matrix (angstroms):
                    1          2          3          4          5
     1  O    0.000000
     2  H    0.977989   0.000000
     3  H    0.977129   1.574967   0.000000
     4  O    2.754511   3.199795   1.777911   0.000000
     5  O    2.800290   3.244809   3.242655   4.517985   0.000000
     6  O    2.759314   1.781433   3.192465   4.475213   4.523965
     7  H    3.365678   3.883313   2.437986   0.960848   5.224329
     8  H    3.383689   3.697985   2.437279   0.960881   4.796779
     9  H    3.238614   3.877460   3.515545   4.552031   0.962715
    10  H    3.240564   3.593334   3.876828   5.317808   0.962871
    11  H    3.212197   2.293745   3.470330   4.505000   5.336984
    12  H    3.215041   2.295683   3.842674   5.287081   4.736810
                    6          7          8          9         10
     6  O    0.000000
     7  H    5.180335   0.000000
     8  H    4.769017   1.612775   0.000000
     9  H    5.325870   5.152502   4.843136   0.000000
    10  H    4.724908   5.989555   5.668346   1.544712   0.000000
    11  H    0.963983   5.105868   4.809177   6.077974   5.587462
    12  H    0.963924   5.956706   5.649823   5.586527   4.742066
                   11         12
    11  H    0.000000
    12  H    1.548924   0.000000
 Stoichiometry    H8O4
 Framework group  C1[X(H8O4)]
 Deg. of freedom    30
 Full point group                 C1      NOp   1
 Largest Abelian subgroup         C1      NOp   1
 Largest concise Abelian subgroup C1      NOp   1
                         Standard orientation:                         
 ---------------------------------------------------------------------
 Center     Atomic      Atomic             Coordinates (Angstroms)
 Number     Number       Type             X           Y           Z
 ---------------------------------------------------------------------
      1          8           0       -0.024220   -0.027274    0.709302
      2          1           0        0.498940   -0.769159    0.345471
      3          1           0        0.370604    0.800350    0.371760
      4          8           0        1.087868    2.332683   -0.174550
      5          8           0       -2.638074   -0.220576   -0.276611
      6          8           0        1.465433   -2.125142   -0.287541
      7          1           0        1.410298    3.004711    0.431788
      8          1           0        1.178697    2.564969   -1.102497
      9          1           0       -3.113223    0.584658   -0.047149
     10          1           0       -3.086058   -0.943863    0.174262
     11          1           0        2.398454   -1.976749   -0.095935
     12          1           0        1.214241   -2.942446    0.157507
 ---------------------------------------------------------------------
 Rotational constants (GHZ):      2.4803477      2.4316281      1.3092747
 Standard basis: 6-31+G(d,p) (6D, 7F)
 There are   116 symmetry adapted basis functions of A   symmetry.
 Integral buffers will be    262144 words long.
 Raffenetti 2 integral format.
 Two-electron integral symmetry is turned on.
   116 basis functions,   184 primitive gaussians,   116 cartesian basis functions
    20 alpha electrons       20 beta electrons
       nuclear repulsion energy       126.8418276223 Hartrees.
 NAtoms=   12 NActive=   12 NUniq=   12 SFac= 7.50D-01 NAtFMM=   80 NAOKFM=F Big=F
 ------------------------------------------------------------------------------
 Polarizable Continuum Model (PCM)
 =================================
 Model                : PCM.
 Atomic radii         : SMD-Coulomb.
 Polarization charges : Total charges.
 Charge compensation  : None.
 Solution method      : Matrix inversion.
 Cavity type          : VdW (van der Waals Surface) (Alpha=1.000).
 Cavity algorithm     : GePol (No added spheres)
                        Default sphere list used, NSphG=   12.
                        Lebedev-Laikov grids with approx.  5.0 points / Ang**2.
                        Smoothing algorithm: Karplus/York (Gamma=1.0000).
                        Polarization charges: spherical gaussians, with
                                              point-specific exponents (IZeta= 3).
                        Self-potential: point-specific (ISelfS= 7).
                        Self-field    : sphere-specific E.n sum rule (ISelfD= 2).
 1st derivatives      : Analytical E(r).r(x)/FMM algorithm (CHGder, D1EAlg=3).
                        Cavity 1st derivative terms included.
 Solvent              : Water, Eps=  78.355300 Eps(inf)=   1.777849
 ------------------------------------------------------------------------------
 Spheres list:
 ISph  on   Nord    Re0     Alpha      Xe            Ye            Ze
    1   O      1    1.520   1.000     -0.024220     -0.027274      0.709302
    2   H      2    1.200   1.000      0.498940     -0.769159      0.345471
    3   H      3    1.200   1.000      0.370604      0.800350      0.371760
    4   O      4    1.520   1.000      1.087868      2.332683     -0.174550
    5   O      5    1.520   1.000     -2.638074     -0.220576     -0.276611
    6   O      6    1.520   1.000      1.465433     -2.125142     -0.287541
    7   H      7    1.200   1.000      1.410298      3.004711      0.431788
    8   H      8    1.200   1.000      1.178697      2.564969     -1.102497
    9   H      9    1.200   1.000     -3.113223      0.584658     -0.047149
   10   H     10    1.200   1.000     -3.086058     -0.943863      0.174262
   11   H     11    1.200   1.000      2.398454     -1.976749     -0.095935
   12   H     12    1.200   1.000      1.214241     -2.942446      0.157507
 ------------------------------------------------------------------------------
 ------------------------------------------------------------------------------
 Atomic radii for non-electrostatic terms: SMD-CDS.
 ------------------------------------------------------------------------------
 Nuclear repulsion after PCM non-electrostatic terms =      126.8494949587 Hartrees.
 One-electron integrals computed using PRISM.
 NBasis=   116 RedAO= T  NBF=   116
 NBsUse=   116 1.00D-06 NBFU=   116
 Initial guess read from the read-write file.
 B after Tr=     0.000000    0.000000    0.000000
         Rot=    1.000000    0.000000    0.000000    0.000000 Ang=   0.00 deg.
 Initial guess orbital symmetries:
       Occupied  (A) (A) (A) (A) (A) (A) (A) (A) (A) (A) (A) (A)
                 (A) (A) (A) (A) (A) (A) (A) (A)
       Virtual   (A) (A) (A) (A) (A) (A) (A) (A) (A) (A) (A) (A)
                 (A) (A) (A) (A) (A) (A) (A) (A) (A) (A) (A) (A)
                 (A) (A) (A) (A) (A) (A) (A) (A) (A) (A) (A) (A)
                 (A) (A) (A) (A) (A) (A) (A) (A) (A) (A) (A) (A)
                 (A) (A) (A) (A) (A) (A) (A) (A) (A) (A) (A) (A)
                 (A) (A) (A) (A) (A) (A) (A) (A) (A) (A) (A) (A)
                 (A) (A) (A) (A) (A) (A) (A) (A) (A) (A) (A) (A)
                 (A) (A) (A) (A) (A) (A) (A) (A) (A) (A) (A) (A)
 Harris functional with IExCor= 1009 diagonalized for initial guess.
 ExpMin= 8.45D-02 ExpMax= 5.48D+03 ExpMxC= 8.25D+02 IAcc=2 IRadAn=         0 AccDes= 0.00D+00
 HarFok:  IExCor= 1009 AccDes= 0.00D+00 IRadAn=         0 IDoV= 1
 ScaDFX=  1.000000  1.000000  1.000000  1.000000
 FoFCou: FMM=F IPFlag=           0 FMFlag=      100000 FMFlg1=           0
         NFxFlg=           0 DoJE=T BraDBF=F KetDBF=T FulRan=T
         Omega=  0.000000  0.000000  1.000000  0.000000  0.000000 ICntrl=     500 IOpCl=  0
         NMat0=    1 NMatS0=    1 NMatT0=    0 NMatD0=    1 NMtDS0=    0 NMtDT0=    0
         I1Cent=           4 NGrid=           0.
 Petite list used in FoFCou.
 Requested convergence on RMS density matrix=1.00D-08 within 128 cycles.
 Requested convergence on MAX density matrix=1.00D-06.
 Requested convergence on             energy=1.00D-06.
 No special actions if energy rises.
 Keep R1 ints in memory in canonical form, NReq=27013094.
 Error on total polarization charges =  0.04827
 SCF Done:  E(RM062X) =  -305.640320427     A.U. after   11 cycles
             Convg  =    0.4885D-08             -V/T =  2.0086
 SMD-CDS (non-electrostatic) energy             (kcal/mol) =       4.81
 (included in total energy above)
 D1PCM: PCM CHGder 1st derivatives, ID1Alg=3 FixD1E=F DoIter=F DoCFld=F I1PDM=0.
 Calling FoFJK, ICntrl=      2127 FMM=F ISym2X=0 I1Cent= 0 IOpClX= 0 NMat=1 NMatS=1 NMatT=0.
 ***** Axes restored to original set *****
 -------------------------------------------------------------------
 Center     Atomic                   Forces (Hartrees/Bohr)
 Number     Number              X              Y              Z
 -------------------------------------------------------------------
      1        8           0.004257589    0.005407435    0.006828290
      2        1           0.003713969    0.000354981   -0.001668547
      3        1          -0.003873018    0.000469207    0.001973740
      4        8          -0.016708229    0.005636321    0.000188146
      5        8          -0.003057686   -0.008288163   -0.003573990
      6        8           0.000315872   -0.004457166   -0.002987288
      7        1           0.008186296   -0.007265893   -0.000154589
      8        1           0.010940432    0.000759435   -0.000197371
      9        1          -0.000983858    0.001938843   -0.002784354
     10        1          -0.000906348    0.001898941   -0.002784510
     11        1          -0.000937689    0.001911664    0.002482445
     12        1          -0.000947330    0.001634394    0.002678029
 -------------------------------------------------------------------
 Cartesian Forces:  Max     0.016708229 RMS     0.004849760

 GradGradGradGradGradGradGradGradGradGradGradGradGradGradGradGradGradGrad
 Berny optimization.
 Using GEDIIS/GDIIS optimizer.
 Internal  Forces:  Max     0.013069132 RMS     0.002416086
 Search for a local minimum.
 Step number   2 out of a maximum of   71
 All quantities printed in internal units (Hartrees-Bohrs-Radians)
 Mixed Optimization -- RFO/linear search
 Update second derivatives using D2CorX and points    1    2
 DE= -5.33D-03 DEPred=-4.11D-03 R= 1.30D+00
 SS=  1.41D+00  RLast= 3.00D-01 DXNew= 5.0454D-01 8.9995D-01
 Trust test= 1.30D+00 RLast= 3.00D-01 DXMaxT set to 5.05D-01
 Use linear search instead of GDIIS.
     Eigenvalues ---    0.00230   0.00230   0.00230   0.00230   0.00232
     Eigenvalues ---    0.00944   0.01016   0.03053   0.03567   0.04278
     Eigenvalues ---    0.05342   0.06247   0.06594   0.08070   0.09183
     Eigenvalues ---    0.11320   0.11976   0.14112   0.14986   0.16000
     Eigenvalues ---    0.16000   0.16144   0.41380   0.42204   0.48999
     Eigenvalues ---    0.49412   0.55208   0.55473   0.55473   0.55987
     Eigenvalues --- 1000.000001000.000001000.000001000.000001000.00000
     Eigenvalues --- 1000.000001000.000001000.000001000.000001000.00000
     Eigenvalues --- 1000.000001000.000001000.000001000.000001000.00000
     Eigenvalues --- 1000.000001000.000001000.000001000.000001000.00000
     Eigenvalues --- 1000.000001000.000001000.000001000.000001000.00000
     Eigenvalues --- 1000.000001000.000001000.000001000.000001000.00000
     Eigenvalues --- 1000.00000
 RFO step:  Lambda=-1.28959249D-03 EMin= 2.29551463D-03
 Quartic linear search produced a step of  1.58983.
 Iteration  1 RMS(Cart)=  0.08995864 RMS(Int)=  0.01095444
 Iteration  2 RMS(Cart)=  0.00919021 RMS(Int)=  0.00126599
 Iteration  3 RMS(Cart)=  0.00002481 RMS(Int)=  0.00126567
 Iteration  4 RMS(Cart)=  0.00000002 RMS(Int)=  0.00126567
 Variable       Old X    -DE/DX   Delta X   Delta X   Delta X     New X
                                 (Linear)    (Quad)   (Total)
    R1        1.84813  -0.00102  -0.00248  -0.00028  -0.00250   1.84563
    R2        1.84651  -0.00160  -0.00357  -0.00212  -0.00501   1.84150
    R3        5.29178   0.00324   0.18470   0.09388   0.28011   5.57189
    R4        6.12009   0.00227   0.14632   0.08003   0.22594   6.34603
    R5        6.12378   0.00223   0.15218   0.07516   0.22737   6.35115
    R6        6.13180   0.00191   0.14931   0.07951   0.22830   6.36010
    R7        3.36642   0.00287   0.06439   0.02912   0.09351   3.45993
    R8        3.35977   0.00262   0.05381   0.03297   0.08678   3.44655
    R9        6.12773   0.00147   0.13373   0.08496   0.21771   6.34544
   R10        1.81574   0.00194   0.00255   0.00617   0.00871   1.82445
   R11        1.81580   0.00195   0.00265   0.00612   0.00877   1.82457
   R12        1.81927   0.00094   0.00816  -0.00083   0.00806   1.82733
   R13        1.81956   0.00097   0.00863  -0.00163   0.00712   1.82668
   R14        1.82166   0.00185   0.01197  -0.00456   0.00741   1.82907
   R15        1.82155   0.00191   0.01179  -0.00406   0.00773   1.82928
    A1        1.87324  -0.00178  -0.05430   0.01003  -0.04707   1.82617
    A2        2.17325  -0.00025  -0.01755  -0.01137  -0.03045   2.14280
    A3        1.80230   0.00028   0.00268  -0.00318  -0.00269   1.79961
    A4        1.71598   0.00009   0.00536  -0.00711  -0.00258   1.71340
    A5        2.17040  -0.00034  -0.02979  -0.00626  -0.03751   2.13289
    A6        0.48146  -0.00023  -0.02396  -0.00290  -0.02652   0.45494
    A7        2.19577  -0.00069  -0.00193  -0.00787  -0.01052   2.18526
    A8        2.19473  -0.00090  -0.00885  -0.00521  -0.01544   2.17929
    A9        2.14632   0.00662   0.08256   0.01078   0.09317   2.23949
   A10        2.14508   0.00645   0.08058   0.01034   0.09083   2.23591
   A11        1.99174  -0.01307  -0.16321  -0.02120  -0.18450   1.80724
   A12        0.49044  -0.00082  -0.02261  -0.00519  -0.02699   0.46345
   A13        2.18080  -0.00112  -0.02677  -0.01092  -0.03870   2.14210
   A14        1.80599  -0.00013   0.00099  -0.00551  -0.00625   1.79974
   A15        1.71827  -0.00008   0.00973  -0.01045  -0.00115   1.71712
   A16        2.18286  -0.00125  -0.02320  -0.01444  -0.03777   2.14510
   A17        1.86195  -0.00168  -0.07739   0.02002  -0.06097   1.80099
   A18        1.91485   0.00127   0.00671   0.00092   0.00762   1.92248
   A19        1.91766   0.00170   0.01117   0.00271   0.01387   1.93153
   A20        1.86604  -0.00220  -0.07089   0.02374  -0.04715   1.81890
   A21        3.15102  -0.00030   0.01499   0.01701   0.03244   3.18346
   A22        3.14690  -0.00039   0.00844   0.02581   0.03463   3.18153
   A23        3.15979   0.00087   0.02894  -0.05839  -0.03023   3.12956
   A24        3.09697  -0.00103  -0.07094   0.11559   0.04526   3.14222
    D1       -2.11838  -0.00082  -0.02781  -0.03035  -0.05581  -2.17419
    D2        1.03791  -0.00061  -0.00444  -0.04679  -0.04983   0.98808
    D3        1.88205   0.00010  -0.00078   0.00283   0.00418   1.88622
    D4       -1.24485   0.00031   0.02258  -0.01362   0.01016  -1.23469
    D5        2.04154   0.00030   0.01046   0.02827   0.03765   2.07920
    D6       -1.08535   0.00051   0.03383   0.01183   0.04363  -1.04172
    D7        0.90785   0.00142   0.08108   0.01528   0.09472   1.00258
    D8        2.95061   0.00037  -0.00103   0.05449   0.05181   3.00242
    D9        2.89748   0.00022   0.04112  -0.02184   0.01988   2.91736
   D10       -1.34295  -0.00083  -0.04099   0.01737  -0.02303  -1.36598
   D11       -3.04948   0.00027   0.02044  -0.00075   0.01912  -3.03037
   D12       -1.00673  -0.00078  -0.06167   0.03846  -0.02379  -1.03052
   D13       -2.58054   0.00021   0.02216   0.06113   0.08323  -2.49731
   D14       -2.96140  -0.00146  -0.08594   0.09308   0.00967  -2.95173
   D15        1.19519   0.00184   0.04606   0.07794   0.12286   1.31805
   D16        2.95684   0.00023   0.02541  -0.02240   0.00461   2.96145
   D17       -1.27959  -0.00069  -0.05034   0.00860  -0.04011  -1.31971
   D18        2.09326   0.00030  -0.01213   0.04926   0.03374   2.12700
   D19       -1.03707   0.00016   0.00578   0.05881   0.06400  -0.97307
   D20        2.61231  -0.00014   0.03118  -0.13027  -0.09930   2.51300
   D21       -0.84241  -0.00173  -0.06196  -0.10641  -0.16867  -1.01108
   D22       -2.88992   0.00123   0.04712  -0.11637  -0.07102  -2.96094
         Item               Value     Threshold  Converged?
 Maximum Force            0.013069     0.000450     NO 
 RMS     Force            0.002416     0.000300     NO 
 Maximum Displacement     0.222130     0.001800     NO 
 RMS     Displacement     0.095472     0.001200     NO 
 Predicted change in Energy=-4.740410D-03
 GradGradGradGradGradGradGradGradGradGradGradGradGradGradGradGradGradGrad

                          Input orientation:                          
 ---------------------------------------------------------------------
 Center     Atomic      Atomic             Coordinates (Angstroms)
 Number     Number       Type             X           Y           Z
 ---------------------------------------------------------------------
      1          8           0       -0.026687    0.626903   -0.013290
      2          1           0       -0.463680    0.241806    0.770682
      3          1           0        0.872918    0.252468   -0.002437
      4          8           0        2.563439   -0.426154    0.086923
      5          8           0       -1.371852   -0.494595   -2.385320
      6          8           0       -1.214468   -0.473962    2.279405
      7          1           0        3.401407    0.053323    0.091776
      8          1           0        2.833064   -1.352998    0.109158
      9          1           0       -0.857223   -0.217508   -3.155666
     10          1           0       -2.204094   -0.014569   -2.491790
     11          1           0       -0.688350   -0.239255    3.057189
     12          1           0       -2.081191   -0.078258    2.450463
 ---------------------------------------------------------------------
                    Distance matrix (angstroms):
                    1          2          3          4          5
     1  O    0.000000
     2  H    0.976665   0.000000
     3  H    0.974479   1.544125   0.000000
     4  O    2.797808   3.174453   1.823836   0.000000
     5  O    2.948517   3.365622   3.357860   4.647922   0.000000
     6  O    2.806987   1.830915   3.176740   4.368277   4.667424
     7  H    3.477336   3.928784   2.538069   0.965459   5.405573
     8  H    3.480399   3.721496   2.536168   0.965522   4.963929
     9  H    3.358176   3.972663   3.627273   4.717927   0.966981
    10  H    3.360885   3.706547   3.966886   5.435856   0.966637
    11  H    3.258200   2.347341   3.469965   4.408123   5.491200
    12  H    3.284557   2.353816   3.853941   5.223021   4.905231
                    6          7          8          9         10
     6  O    0.000000
     7  H    5.135178   0.000000
     8  H    4.676022   1.516923   0.000000
     9  H    5.452832   5.362383   5.056345   0.000000
    10  H    4.894354   6.172606   5.824884   1.515248   0.000000
    11  H    0.967903   5.060177   4.725639   6.215187   5.756660
    12  H    0.968014   5.969891   5.590758   5.739875   4.944192
                   11         12
    11  H    0.000000
    12  H    1.527758   0.000000
 Stoichiometry    H8O4
 Framework group  C1[X(H8O4)]
 Deg. of freedom    30
 Full point group                 C1      NOp   1
 Largest Abelian subgroup         C1      NOp   1
 Largest concise Abelian subgroup C1      NOp   1
                         Standard orientation:                         
 ---------------------------------------------------------------------
 Center     Atomic      Atomic             Coordinates (Angstroms)
 Number     Number       Type             X           Y           Z
 ---------------------------------------------------------------------
      1          8           0       -0.045779   -0.033495    0.813675
      2          1           0        0.430221   -0.788612    0.417321
      3          1           0        0.401094    0.754775    0.455145
      4          8           0        1.301074    2.202235   -0.193908
      5          8           0       -2.767419   -0.041539   -0.320506
      6          8           0        1.389829   -2.163362   -0.318522
      7          1           0        1.708972    2.924397    0.300271
      8          1           0        1.455313    2.443701   -1.115936
      9          1           0       -3.193409    0.776799   -0.030835
     10          1           0       -3.265803   -0.726444    0.145226
     11          1           0        2.324039   -2.083985   -0.078131
     12          1           0        1.117936   -3.011345    0.061018
 ---------------------------------------------------------------------
 Rotational constants (GHZ):      2.5372954      2.1987856      1.2741230
 Standard basis: 6-31+G(d,p) (6D, 7F)
 There are   116 symmetry adapted basis functions of A   symmetry.
 Integral buffers will be    262144 words long.
 Raffenetti 2 integral format.
 Two-electron integral symmetry is turned on.
   116 basis functions,   184 primitive gaussians,   116 cartesian basis functions
    20 alpha electrons       20 beta electrons
       nuclear repulsion energy       124.8861918862 Hartrees.
 NAtoms=   12 NActive=   12 NUniq=   12 SFac= 7.50D-01 NAtFMM=   80 NAOKFM=F Big=F
 ------------------------------------------------------------------------------
 Polarizable Continuum Model (PCM)
 =================================
 Model                : PCM.
 Atomic radii         : SMD-Coulomb.
 Polarization charges : Total charges.
 Charge compensation  : None.
 Solution method      : Matrix inversion.
 Cavity type          : VdW (van der Waals Surface) (Alpha=1.000).
 Cavity algorithm     : GePol (No added spheres)
                        Default sphere list used, NSphG=   12.
                        Lebedev-Laikov grids with approx.  5.0 points / Ang**2.
                        Smoothing algorithm: Karplus/York (Gamma=1.0000).
                        Polarization charges: spherical gaussians, with
                                              point-specific exponents (IZeta= 3).
                        Self-potential: point-specific (ISelfS= 7).
                        Self-field    : sphere-specific E.n sum rule (ISelfD= 2).
 1st derivatives      : Analytical E(r).r(x)/FMM algorithm (CHGder, D1EAlg=3).
                        Cavity 1st derivative terms included.
 Solvent              : Water, Eps=  78.355300 Eps(inf)=   1.777849
 ------------------------------------------------------------------------------
 Spheres list:
 ISph  on   Nord    Re0     Alpha      Xe            Ye            Ze
    1   O      1    1.520   1.000     -0.045779     -0.033495      0.813675
    2   H      2    1.200   1.000      0.430221     -0.788612      0.417321
    3   H      3    1.200   1.000      0.401094      0.754775      0.455145
    4   O      4    1.520   1.000      1.301074      2.202235     -0.193908
    5   O      5    1.520   1.000     -2.767419     -0.041539     -0.320506
    6   O      6    1.520   1.000      1.389829     -2.163362     -0.318522
    7   H      7    1.200   1.000      1.708972      2.924397      0.300271
    8   H      8    1.200   1.000      1.455313      2.443701     -1.115936
    9   H      9    1.200   1.000     -3.193409      0.776799     -0.030835
   10   H     10    1.200   1.000     -3.265803     -0.726444      0.145226
   11   H     11    1.200   1.000      2.324039     -2.083985     -0.078131
   12   H     12    1.200   1.000      1.117936     -3.011345      0.061018
 ------------------------------------------------------------------------------
 ------------------------------------------------------------------------------
 Atomic radii for non-electrostatic terms: SMD-CDS.
 ------------------------------------------------------------------------------
 Nuclear repulsion after PCM non-electrostatic terms =      124.8938669903 Hartrees.
 One-electron integrals computed using PRISM.
 NBasis=   116 RedAO= T  NBF=   116
 NBsUse=   116 1.00D-06 NBFU=   116
 Initial guess read from the read-write file.
 B after Tr=     0.000000    0.000000    0.000000
         Rot=    1.000000    0.000000    0.000000    0.000000 Ang=   0.00 deg.
 Initial guess orbital symmetries:
       Occupied  (A) (A) (A) (A) (A) (A) (A) (A) (A) (A) (A) (A)
                 (A) (A) (A) (A) (A) (A) (A) (A)
       Virtual   (A) (A) (A) (A) (A) (A) (A) (A) (A) (A) (A) (A)
                 (A) (A) (A) (A) (A) (A) (A) (A) (A) (A) (A) (A)
                 (A) (A) (A) (A) (A) (A) (A) (A) (A) (A) (A) (A)
                 (A) (A) (A) (A) (A) (A) (A) (A) (A) (A) (A) (A)
                 (A) (A) (A) (A) (A) (A) (A) (A) (A) (A) (A) (A)
                 (A) (A) (A) (A) (A) (A) (A) (A) (A) (A) (A) (A)
                 (A) (A) (A) (A) (A) (A) (A) (A) (A) (A) (A) (A)
                 (A) (A) (A) (A) (A) (A) (A) (A) (A) (A) (A) (A)
 Harris functional with IExCor= 1009 diagonalized for initial guess.
 ExpMin= 8.45D-02 ExpMax= 5.48D+03 ExpMxC= 8.25D+02 IAcc=2 IRadAn=         0 AccDes= 0.00D+00
 HarFok:  IExCor= 1009 AccDes= 0.00D+00 IRadAn=         0 IDoV= 1
 ScaDFX=  1.000000  1.000000  1.000000  1.000000
 FoFCou: FMM=F IPFlag=           0 FMFlag=      100000 FMFlg1=           0
         NFxFlg=           0 DoJE=T BraDBF=F KetDBF=T FulRan=T
         Omega=  0.000000  0.000000  1.000000  0.000000  0.000000 ICntrl=     500 IOpCl=  0
         NMat0=    1 NMatS0=    1 NMatT0=    0 NMatD0=    1 NMtDS0=    0 NMtDT0=    0
         I1Cent=           4 NGrid=           0.
 Petite list used in FoFCou.
 Requested convergence on RMS density matrix=1.00D-08 within 128 cycles.
 Requested convergence on MAX density matrix=1.00D-06.
 Requested convergence on             energy=1.00D-06.
 No special actions if energy rises.
 Keep R1 ints in memory in canonical form, NReq=27038995.
 Error on total polarization charges =  0.04798
 SCF Done:  E(RM062X) =  -305.644924925     A.U. after    9 cycles
             Convg  =    0.5465D-08             -V/T =  2.0088
 SMD-CDS (non-electrostatic) energy             (kcal/mol) =       4.82
 (included in total energy above)
 D1PCM: PCM CHGder 1st derivatives, ID1Alg=3 FixD1E=F DoIter=F DoCFld=F I1PDM=0.
 Calling FoFJK, ICntrl=      2127 FMM=F ISym2X=0 I1Cent= 0 IOpClX= 0 NMat=1 NMatS=1 NMatT=0.
 ***** Axes restored to original set *****
 -------------------------------------------------------------------
 Center     Atomic                   Forces (Hartrees/Bohr)
 Number     Number              X              Y              Z
 -------------------------------------------------------------------
      1        8           0.003984929    0.001757323    0.006959850
      2        1           0.000522141    0.001178785   -0.000952322
      3        1          -0.001721654    0.001179106   -0.000414763
      4        8           0.004381847   -0.001818571    0.000159143
      5        8          -0.004348109   -0.000688672   -0.009114813
      6        8          -0.001732209    0.001173952    0.003026408
      7        1          -0.000334187    0.003080304   -0.000171612
      8        1          -0.002535462   -0.001866905   -0.000149278
      9        1           0.001200343   -0.001313448    0.001172359
     10        1          -0.000390548   -0.001060949    0.001707764
     11        1           0.000314402   -0.000744513   -0.001351748
     12        1           0.000658506   -0.000876411   -0.000870989
 -------------------------------------------------------------------
 Cartesian Forces:  Max     0.009114813 RMS     0.002612870

 GradGradGradGradGradGradGradGradGradGradGradGradGradGradGradGradGradGrad
 Berny optimization.
 Using GEDIIS/GDIIS optimizer.
 Internal  Forces:  Max     0.003529883 RMS     0.001024623
 Search for a local minimum.
 Step number   3 out of a maximum of   71
 All quantities printed in internal units (Hartrees-Bohrs-Radians)
 Mixed Optimization -- RFO/linear search
 Update second derivatives using D2CorX and points    2    3
 DE= -4.60D-03 DEPred=-4.74D-03 R= 9.71D-01
 SS=  1.41D+00  RLast= 6.81D-01 DXNew= 8.4853D-01 2.0435D+00
 Trust test= 9.71D-01 RLast= 6.81D-01 DXMaxT set to 8.49D-01
 Use linear search instead of GDIIS.
     Eigenvalues ---    0.00230   0.00230   0.00230   0.00232   0.00241
     Eigenvalues ---    0.00798   0.00990   0.03230   0.03788   0.04825
     Eigenvalues ---    0.05277   0.06221   0.06596   0.07852   0.09119
     Eigenvalues ---    0.11636   0.13253   0.14019   0.15834   0.15996
     Eigenvalues ---    0.16017   0.16527   0.41664   0.43084   0.49498
     Eigenvalues ---    0.49712   0.55169   0.55473   0.55474   0.56117
     Eigenvalues --- 1000.000001000.000001000.000001000.000001000.00000
     Eigenvalues --- 1000.000001000.000001000.000001000.000001000.00000
     Eigenvalues --- 1000.000001000.000001000.000001000.000001000.00000
     Eigenvalues --- 1000.000001000.000001000.000001000.000001000.00000
     Eigenvalues --- 1000.000001000.000001000.000001000.000001000.00000
     Eigenvalues --- 1000.000001000.000001000.000001000.000001000.00000
     Eigenvalues --- 1000.00000
 RFO step:  Lambda=-1.29318439D-03 EMin= 2.29943171D-03
 Quartic linear search produced a step of  0.13514.
 Iteration  1 RMS(Cart)=  0.03316271 RMS(Int)=  0.00023657
 Iteration  2 RMS(Cart)=  0.00019725 RMS(Int)=  0.00014696
 Iteration  3 RMS(Cart)=  0.00000006 RMS(Int)=  0.00014696
 Variable       Old X    -DE/DX   Delta X   Delta X   Delta X     New X
                                 (Linear)    (Quad)   (Total)
    R1        1.84563  -0.00095  -0.00034  -0.00131  -0.00167   1.84396
    R2        1.84150  -0.00099  -0.00068  -0.00167  -0.00235   1.83915
    R3        5.57189   0.00305   0.03785   0.13070   0.16870   5.74059
    R4        6.34603   0.00081   0.03053   0.11451   0.14502   6.49105
    R5        6.35115   0.00095   0.03073   0.11807   0.14881   6.49997
    R6        6.36010   0.00158   0.03085   0.12092   0.15170   6.51180
    R7        3.45993   0.00116   0.01264   0.02216   0.03479   3.49472
    R8        3.44655   0.00162   0.01173   0.02916   0.04089   3.48744
    R9        6.34544   0.00139   0.02942   0.11402   0.14341   6.48884
   R10        1.82445   0.00124   0.00118   0.00257   0.00375   1.82820
   R11        1.82457   0.00108   0.00119   0.00225   0.00344   1.82801
   R12        1.82733  -0.00102   0.00109  -0.00167  -0.00057   1.82676
   R13        1.82668  -0.00078   0.00096  -0.00103  -0.00013   1.82655
   R14        1.82907  -0.00111   0.00100  -0.00144  -0.00044   1.82863
   R15        1.82928  -0.00110   0.00104  -0.00143  -0.00038   1.82890
    A1        1.82617   0.00123  -0.00636   0.00501  -0.00180   1.82438
    A2        2.14280  -0.00065  -0.00411  -0.00729  -0.01150   2.13130
    A3        1.79961  -0.00078  -0.00036  -0.00542  -0.00608   1.79353
    A4        1.71340  -0.00082  -0.00035  -0.00413  -0.00469   1.70871
    A5        2.13289  -0.00071  -0.00507  -0.01104  -0.01616   2.11673
    A6        0.45494   0.00006  -0.00358  -0.00553  -0.00888   0.44606
    A7        2.18526  -0.00064  -0.00142  -0.00375  -0.00523   2.18003
    A8        2.17929  -0.00074  -0.00209  -0.00434  -0.00660   2.17269
    A9        2.23949  -0.00167   0.01259  -0.00690   0.00565   2.24514
   A10        2.23591  -0.00187   0.01228  -0.00839   0.00385   2.23976
   A11        1.80724   0.00353  -0.02493   0.01500  -0.00997   1.79727
   A12        0.46345  -0.00013  -0.00365  -0.00820  -0.01154   0.45192
   A13        2.14210  -0.00120  -0.00523  -0.01200  -0.01715   2.12495
   A14        1.79974  -0.00121  -0.00084  -0.00730  -0.00835   1.79139
   A15        1.71712  -0.00115  -0.00016  -0.00392  -0.00427   1.71285
   A16        2.14510  -0.00116  -0.00510  -0.00857  -0.01365   2.13145
   A17        1.80099   0.00190  -0.00824   0.01796   0.00934   1.81032
   A18        1.92248  -0.00072   0.00103  -0.00102   0.00001   1.92249
   A19        1.93153  -0.00013   0.00187   0.00322   0.00509   1.93663
   A20        1.81890   0.00078  -0.00637   0.00835   0.00197   1.82087
   A21        3.18346   0.00010   0.00438  -0.00101   0.00344   3.18690
   A22        3.18153   0.00009   0.00468   0.00035   0.00506   3.18659
   A23        3.12956  -0.00009  -0.00409   0.02076   0.01654   3.14610
   A24        3.14222   0.00010   0.00612  -0.03133  -0.02516   3.11706
    D1       -2.17419  -0.00037  -0.00754  -0.00136  -0.00862  -2.18281
    D2        0.98808  -0.00031  -0.00673   0.01469   0.00810   0.99618
    D3        1.88622   0.00022   0.00056   0.00052   0.00127   1.88749
    D4       -1.23469   0.00028   0.00137   0.01656   0.01799  -1.21670
    D5        2.07920   0.00007   0.00509  -0.00665  -0.00170   2.07750
    D6       -1.04172   0.00014   0.00590   0.00939   0.01503  -1.02669
    D7        1.00258   0.00011   0.01280  -0.01355  -0.00087   1.00171
    D8        3.00242   0.00056   0.00700  -0.00567   0.00121   3.00363
    D9        2.91736  -0.00033   0.00269  -0.00907  -0.00640   2.91096
   D10       -1.36598   0.00012  -0.00311  -0.00120  -0.00432  -1.37030
   D11       -3.03037  -0.00047   0.00258  -0.02168  -0.01905  -3.04942
   D12       -1.03052  -0.00002  -0.00322  -0.01380  -0.01697  -1.04749
   D13       -2.49731  -0.00034   0.01125  -0.02247  -0.01121  -2.50852
   D14       -2.95173   0.00025   0.00131  -0.02390  -0.02238  -2.97412
   D15        1.31805  -0.00058   0.01660  -0.03476  -0.01840   1.29965
   D16        2.96145  -0.00031   0.00062  -0.00819  -0.00748   2.95398
   D17       -1.31971   0.00014  -0.00542   0.00322  -0.00211  -1.32182
   D18        2.12700   0.00000   0.00456  -0.01712  -0.01289   2.11411
   D19       -0.97307   0.00003   0.00865  -0.00638   0.00233  -0.97075
   D20        2.51300   0.00037  -0.01342   0.03570   0.02222   2.53522
   D21       -1.01108   0.00061  -0.02279   0.03166   0.00879  -1.00228
   D22       -2.96094  -0.00043  -0.00960   0.01552   0.00586  -2.95508
         Item               Value     Threshold  Converged?
 Maximum Force            0.003530     0.000450     NO 
 RMS     Force            0.001025     0.000300     NO 
 Maximum Displacement     0.106101     0.001800     NO 
 RMS     Displacement     0.033170     0.001200     NO 
 Predicted change in Energy=-7.876229D-04
 GradGradGradGradGradGradGradGradGradGradGradGradGradGradGradGradGradGrad

                          Input orientation:                          
 ---------------------------------------------------------------------
 Center     Atomic      Atomic             Coordinates (Angstroms)
 Number     Number       Type             X           Y           Z
 ---------------------------------------------------------------------
      1          8           0       -0.015164    0.634322    0.011313
      2          1           0       -0.457377    0.242643    0.787964
      3          1           0        0.877301    0.246174    0.016961
      4          8           0        2.593461   -0.428236    0.092729
      5          8           0       -1.399594   -0.503830   -2.441466
      6          8           0       -1.233986   -0.468646    2.308146
      7          1           0        3.432287    0.053745    0.096277
      8          1           0        2.874738   -1.353775    0.095685
      9          1           0       -0.879024   -0.214695   -3.202965
     10          1           0       -2.231683   -0.021173   -2.535931
     11          1           0       -0.703610   -0.249333    3.087239
     12          1           0       -2.094067   -0.059993    2.481138
 ---------------------------------------------------------------------
                    Distance matrix (angstroms):
                    1          2          3          4          5
     1  O    0.000000
     2  H    0.975783   0.000000
     3  H    0.973234   1.541371   0.000000
     4  O    2.817904   3.200162   1.845474   0.000000
     5  O    3.037789   3.445898   3.433747   4.729941   0.000000
     6  O    2.824449   1.849326   3.196566   4.422562   4.752629
     7  H    3.497028   3.955199   2.563449   0.967443   5.486173
     8  H    3.508730   3.759095   2.560428   0.967341   5.042763
     9  H    3.434918   4.039116   3.696620   4.792217   0.966681
    10  H    3.439634   3.777041   4.031689   5.509770   0.966569
    11  H    3.273550   2.364178   3.488756   4.457553   5.578149
    12  H    3.302113   2.374275   3.872329   5.273805   4.991124
                    6          7          8          9         10
     6  O    0.000000
     7  H    5.190314   0.000000
     8  H    4.749742   1.513926   0.000000
     9  H    5.528366   5.435481   5.125361   0.000000
    10  H    4.965955   6.246174   5.897184   1.520550   0.000000
    11  H    0.967669   5.113058   4.793096   6.292745   5.831561
    12  H    0.967813   6.020057   5.661562   5.814576   5.019106
                   11         12
    11  H    0.000000
    12  H    1.528586   0.000000
 Stoichiometry    H8O4
 Framework group  C1[X(H8O4)]
 Deg. of freedom    30
 Full point group                 C1      NOp   1
 Largest Abelian subgroup         C1      NOp   1
 Largest concise Abelian subgroup C1      NOp   1
                         Standard orientation:                         
 ---------------------------------------------------------------------
 Center     Atomic      Atomic             Coordinates (Angstroms)
 Number     Number       Type             X           Y           Z
 ---------------------------------------------------------------------
      1          8           0       -0.014786   -0.035741    0.820974
      2          1           0        0.454876   -0.788391    0.414665
      3          1           0        0.417892    0.752177    0.447932
      4          8           0        1.306878    2.234805   -0.198048
      5          8           0       -2.831102   -0.053247   -0.317539
      6          8           0        1.416811   -2.184603   -0.323768
      7          1           0        1.712062    2.959871    0.297989
      8          1           0        1.444223    2.498068   -1.118688
      9          1           0       -3.249916    0.762879   -0.012571
     10          1           0       -3.312787   -0.747449    0.151842
     11          1           0        2.354805   -2.096771   -0.102782
     12          1           0        1.156441   -3.030102    0.068661
 ---------------------------------------------------------------------
 Rotational constants (GHZ):      2.4787362      2.1221993      1.2351468
 Standard basis: 6-31+G(d,p) (6D, 7F)
 There are   116 symmetry adapted basis functions of A   symmetry.
 Integral buffers will be    262144 words long.
 Raffenetti 2 integral format.
 Two-electron integral symmetry is turned on.
   116 basis functions,   184 primitive gaussians,   116 cartesian basis functions
    20 alpha electrons       20 beta electrons
       nuclear repulsion energy       123.6429080146 Hartrees.
 NAtoms=   12 NActive=   12 NUniq=   12 SFac= 7.50D-01 NAtFMM=   80 NAOKFM=F Big=F
 ------------------------------------------------------------------------------
 Polarizable Continuum Model (PCM)
 =================================
 Model                : PCM.
 Atomic radii         : SMD-Coulomb.
 Polarization charges : Total charges.
 Charge compensation  : None.
 Solution method      : Matrix inversion.
 Cavity type          : VdW (van der Waals Surface) (Alpha=1.000).
 Cavity algorithm     : GePol (No added spheres)
                        Default sphere list used, NSphG=   12.
                        Lebedev-Laikov grids with approx.  5.0 points / Ang**2.
                        Smoothing algorithm: Karplus/York (Gamma=1.0000).
                        Polarization charges: spherical gaussians, with
                                              point-specific exponents (IZeta= 3).
                        Self-potential: point-specific (ISelfS= 7).
                        Self-field    : sphere-specific E.n sum rule (ISelfD= 2).
 1st derivatives      : Analytical E(r).r(x)/FMM algorithm (CHGder, D1EAlg=3).
                        Cavity 1st derivative terms included.
 Solvent              : Water, Eps=  78.355300 Eps(inf)=   1.777849
 ------------------------------------------------------------------------------
 Spheres list:
 ISph  on   Nord    Re0     Alpha      Xe            Ye            Ze
    1   O      1    1.520   1.000     -0.014786     -0.035741      0.820974
    2   H      2    1.200   1.000      0.454876     -0.788391      0.414665
    3   H      3    1.200   1.000      0.417892      0.752177      0.447932
    4   O      4    1.520   1.000      1.306878      2.234805     -0.198048
    5   O      5    1.520   1.000     -2.831102     -0.053247     -0.317539
    6   O      6    1.520   1.000      1.416811     -2.184603     -0.323768
    7   H      7    1.200   1.000      1.712062      2.959871      0.297989
    8   H      8    1.200   1.000      1.444223      2.498068     -1.118688
    9   H      9    1.200   1.000     -3.249916      0.762879     -0.012571
   10   H     10    1.200   1.000     -3.312787     -0.747449      0.151842
   11   H     11    1.200   1.000      2.354805     -2.096771     -0.102782
   12   H     12    1.200   1.000      1.156441     -3.030102      0.068661
 ------------------------------------------------------------------------------
 ------------------------------------------------------------------------------
 Atomic radii for non-electrostatic terms: SMD-CDS.
 ------------------------------------------------------------------------------
 Nuclear repulsion after PCM non-electrostatic terms =      123.6506041317 Hartrees.
 One-electron integrals computed using PRISM.
 NBasis=   116 RedAO= T  NBF=   116
 NBsUse=   116 1.00D-06 NBFU=   116
 Initial guess read from the read-write file.
 B after Tr=     0.000000    0.000000    0.000000
         Rot=    1.000000    0.000000    0.000000    0.000000 Ang=   0.00 deg.
 Initial guess orbital symmetries:
       Occupied  (A) (A) (A) (A) (A) (A) (A) (A) (A) (A) (A) (A)
                 (A) (A) (A) (A) (A) (A) (A) (A)
       Virtual   (A) (A) (A) (A) (A) (A) (A) (A) (A) (A) (A) (A)
                 (A) (A) (A) (A) (A) (A) (A) (A) (A) (A) (A) (A)
                 (A) (A) (A) (A) (A) (A) (A) (A) (A) (A) (A) (A)
                 (A) (A) (A) (A) (A) (A) (A) (A) (A) (A) (A) (A)
                 (A) (A) (A) (A) (A) (A) (A) (A) (A) (A) (A) (A)
                 (A) (A) (A) (A) (A) (A) (A) (A) (A) (A) (A) (A)
                 (A) (A) (A) (A) (A) (A) (A) (A) (A) (A) (A) (A)
                 (A) (A) (A) (A) (A) (A) (A) (A) (A) (A) (A) (A)
 Harris functional with IExCor= 1009 diagonalized for initial guess.
 ExpMin= 8.45D-02 ExpMax= 5.48D+03 ExpMxC= 8.25D+02 IAcc=2 IRadAn=         0 AccDes= 0.00D+00
 HarFok:  IExCor= 1009 AccDes= 0.00D+00 IRadAn=         0 IDoV= 1
 ScaDFX=  1.000000  1.000000  1.000000  1.000000
 FoFCou: FMM=F IPFlag=           0 FMFlag=      100000 FMFlg1=           0
         NFxFlg=           0 DoJE=T BraDBF=F KetDBF=T FulRan=T
         Omega=  0.000000  0.000000  1.000000  0.000000  0.000000 ICntrl=     500 IOpCl=  0
         NMat0=    1 NMatS0=    1 NMatT0=    0 NMatD0=    1 NMtDS0=    0 NMtDT0=    0
         I1Cent=           4 NGrid=           0.
 Petite list used in FoFCou.
 Requested convergence on RMS density matrix=1.00D-08 within 128 cycles.
 Requested convergence on MAX density matrix=1.00D-06.
 Requested convergence on             energy=1.00D-06.
 No special actions if energy rises.
 Keep R1 ints in memory in canonical form, NReq=27047580.
 Error on total polarization charges =  0.04820
 SCF Done:  E(RM062X) =  -305.645984943     A.U. after    9 cycles
             Convg  =    0.7702D-08             -V/T =  2.0088
 SMD-CDS (non-electrostatic) energy             (kcal/mol) =       4.83
 (included in total energy above)
 D1PCM: PCM CHGder 1st derivatives, ID1Alg=3 FixD1E=F DoIter=F DoCFld=F I1PDM=0.
[...]
   A12        0.33741   0.00000  -0.00018   0.00003  -0.00015   0.33726
   A13        1.82676  -0.00005  -0.00240  -0.00103  -0.00352   1.82324
   A14        1.42134  -0.00003  -0.00061  -0.00336  -0.00387   1.41747
   A15        1.58820  -0.00004   0.00070   0.00041   0.00118   1.58938
   A16        1.71226  -0.00002   0.00163  -0.00236  -0.00085   1.71140
   A17        1.82755   0.00003   0.00000  -0.00003  -0.00002   1.82752
   A18        1.92016   0.00014   0.00176   0.00070   0.00248   1.92264
   A19        1.93734  -0.00022  -0.00279  -0.00082  -0.00360   1.93375
   A20        1.83008   0.00005   0.00017   0.00005   0.00024   1.83032
   A21        3.11478  -0.00006  -0.00389  -0.00180  -0.00569   3.10909
   A22        3.14453  -0.00008  -0.00031   0.00021  -0.00013   3.14440
   A23        3.17555   0.00003   0.00382   0.00011   0.00393   3.17949
   A24        3.10649  -0.00003  -0.00411   0.00009  -0.00401   3.10247
    D1       -2.16488  -0.00003   0.00087  -0.00035   0.00052  -2.16436
    D2        2.09168   0.00001   0.00018   0.00036   0.00053   2.09221
    D3        2.05013  -0.00004  -0.00061  -0.00127  -0.00182   2.04831
    D4        0.02351   0.00000  -0.00131  -0.00056  -0.00180   0.02170
    D5        2.27710   0.00000   0.00218   0.00046   0.00258   2.27968
    D6        0.25047   0.00004   0.00148   0.00117   0.00260   0.25307
    D7        1.58153   0.00001   0.00652   0.00468   0.01125   1.59278
    D8       -2.68853   0.00002   0.00569   0.00475   0.01046  -2.67807
    D9       -3.07832   0.00000   0.00785   0.00339   0.01129  -3.06704
   D10       -1.06520   0.00001   0.00702   0.00346   0.01050  -1.05470
   D11       -2.89825   0.00000   0.00278   0.00163   0.00433  -2.89392
   D12       -0.88513   0.00001   0.00195   0.00170   0.00354  -0.88159
   D13       -2.47913   0.00001  -0.00423   0.00017  -0.00405  -2.48318
   D14        2.99700  -0.00003  -0.01730  -0.00603  -0.02327   2.97373
   D15        1.19819  -0.00006  -0.01735  -0.00531  -0.02269   1.17550
   D16       -3.10156   0.00000   0.00503   0.00206   0.00710  -3.09446
   D17       -1.08390   0.00001   0.00466   0.00206   0.00676  -1.07713
   D18        2.25829   0.00000  -0.00064  -0.00085  -0.00150   2.25680
   D19        0.22522   0.00002  -0.00220  -0.00010  -0.00229   0.22292
   D20        2.55763   0.00008   0.00438  -0.00003   0.00436   2.56198
   D21       -1.35772   0.00003  -0.00844  -0.00610  -0.01455  -1.37227
   D22        3.09266   0.00001  -0.00864  -0.00600  -0.01466   3.07800
         Item               Value     Threshold  Converged?
 Maximum Force            0.000510     0.000450     NO 
 RMS     Force            0.000101     0.000300     YES
 Maximum Displacement     0.026533     0.001800     NO 
 RMS     Displacement     0.008548     0.001200     NO 
 Predicted change in Energy=-4.577845D-06
 Optimization stopped.
    -- Number of steps exceeded,  NStep=  71
    -- Flag reset to prevent archiving.
                           ----------------------------
                           ! Non-Optimized Parameters !
                           ! (Angstroms and Degrees)  !
 --------------------------                            --------------------------
 ! Name  Definition              Value          Derivative Info.                !
 --------------------------------------------------------------------------------
 ! R1    R(1,2)                  0.9746         -DE/DX =   -0.0001              !
 ! R2    R(1,3)                  0.9742         -DE/DX =    0.0001              !
 ! R3    R(1,5)                  4.3252         -DE/DX =    0.0                 !
 ! R4    R(1,9)                  4.4819         -DE/DX =    0.0                 !
 ! R5    R(1,10)                 4.3533         -DE/DX =    0.0                 !
 ! R6    R(2,5)                  4.6974         -DE/DX =   -0.0001              !
 ! R7    R(2,6)                  1.8676         -DE/DX =    0.0                 !
 ! R8    R(3,4)                  1.8658         -DE/DX =    0.0001              !
 ! R9    R(3,5)                  4.3708         -DE/DX =    0.0                 !
 ! R10   R(4,7)                  0.9663         -DE/DX =    0.0003              !
 ! R11   R(4,8)                  0.9668         -DE/DX =   -0.0005              !
 ! R12   R(5,9)                  0.9653         -DE/DX =    0.0003              !
 ! R13   R(5,10)                 0.9657         -DE/DX =    0.0001              !
 ! R14   R(6,11)                 0.9665         -DE/DX =   -0.0001              !
 ! R15   R(6,12)                 0.9664         -DE/DX =    0.0                 !
 ! A1    A(2,1,3)              105.9259         -DE/DX =    0.0                 !
 ! A2    A(2,1,9)              118.9297         -DE/DX =    0.0                 !
 ! A3    A(2,1,10)             101.6414         -DE/DX =    0.0                 !
 ! A4    A(3,1,9)               84.4534         -DE/DX =    0.0                 !
 ! A5    A(3,1,10)              98.9479         -DE/DX =    0.0                 !
 ! A6    A(9,1,10)              19.862          -DE/DX =    0.0                 !
 ! A7    A(5,2,6)              116.6644         -DE/DX =   -0.0001              !
 ! A8    A(4,3,5)               99.7224         -DE/DX =   -0.0001              !
 ! A9    A(3,4,7)              110.2697         -DE/DX =    0.0002              !
 ! A10   A(3,4,8)              111.923          -DE/DX =    0.0001              !
 ! A11   A(7,4,8)              105.034          -DE/DX =   -0.0001              !
 ! A12   A(2,5,3)               19.3233         -DE/DX =    0.0                 !
 ! A13   A(2,5,9)              104.4641         -DE/DX =   -0.0001              !
 ! A14   A(2,5,10)              81.2153         -DE/DX =    0.0                 !
 ! A15   A(3,5,9)               91.065          -DE/DX =    0.0                 !
 ! A16   A(3,5,10)              98.0562         -DE/DX =    0.0                 !
 ! A17   A(9,5,10)             104.7095         -DE/DX =    0.0                 !
 ! A18   A(2,6,11)             110.1592         -DE/DX =    0.0001              !
 ! A19   A(2,6,12)             110.7955         -DE/DX =   -0.0002              !
 ! A20   A(11,6,12)            104.8698         -DE/DX =    0.0001              !
 ! A21   L(1,2,6,10,-1)        178.1375         -DE/DX =   -0.0001              !
 ! A22   L(1,3,4,9,-1)         180.1607         -DE/DX =   -0.0001              !
 ! A23   L(1,2,6,10,-2)        182.1711         -DE/DX =    0.0                 !
 ! A24   L(1,3,4,9,-2)         177.7585         -DE/DX =    0.0                 !
 ! D1    D(2,1,4,7)           -124.0088         -DE/DX =    0.0                 !
 ! D2    D(2,1,4,8)            119.8749         -DE/DX =    0.0                 !
 ! D3    D(9,1,4,7)            117.3598         -DE/DX =    0.0                 !
 ! D4    D(9,1,4,8)              1.2435         -DE/DX =    0.0                 !
 ! D5    D(10,1,4,7)           130.6162         -DE/DX =    0.0                 !
 ! D6    D(10,1,4,8)            14.4998         -DE/DX =    0.0                 !
 ! D7    D(3,1,6,11)            91.2594         -DE/DX =    0.0                 !
 ! D8    D(3,1,6,12)          -153.4422         -DE/DX =    0.0                 !
 ! D9    D(9,1,6,11)          -175.7282         -DE/DX =    0.0                 !
 ! D10   D(9,1,6,12)           -60.4298         -DE/DX =    0.0                 !
 ! D11   D(10,1,6,11)         -165.8097         -DE/DX =    0.0                 !
 ! D12   D(10,1,6,12)          -50.5113         -DE/DX =    0.0                 !
 ! D13   D(6,2,5,3)           -142.2757         -DE/DX =    0.0                 !
 ! D14   D(6,2,5,9)            170.3822         -DE/DX =    0.0                 !
 ! D15   D(6,2,5,10)            67.3511         -DE/DX =   -0.0001              !
 ! D16   D(5,2,6,11)          -177.2996         -DE/DX =    0.0                 !
 ! D17   D(5,2,6,12)           -61.7151         -DE/DX =    0.0                 !
 ! D18   D(5,3,4,7)            129.3051         -DE/DX =    0.0                 !
 ! D19   D(5,3,4,8)             12.7726         -DE/DX =    0.0                 !
 ! D20   D(4,3,5,2)            146.7909         -DE/DX =    0.0001              !
 ! D21   D(4,3,5,9)            -78.6255         -DE/DX =    0.0                 !
 ! D22   D(4,3,5,10)           176.3564         -DE/DX =    0.0                 !
 --------------------------------------------------------------------------------
 GradGradGradGradGradGradGradGradGradGradGradGradGradGradGradGradGradGrad

                          Input orientation:                          
 ---------------------------------------------------------------------
 Center     Atomic      Atomic             Coordinates (Angstroms)
 Number     Number       Type             X           Y           Z
 ---------------------------------------------------------------------
      1          8           0        0.228743    0.855580    0.566139
      2          1           0       -0.248426    0.420009    1.295764
      3          1           0        1.018625    0.309734    0.400553
      4          8           0        2.563189   -0.680906    0.067765
      5          8           0       -1.363135   -0.800258   -3.099046
      6          8           0       -1.228564   -0.384441    2.667613
      7          1           0        3.344405   -0.116884    0.138043
      8          1           0        2.581277   -1.023961   -0.836060
      9          1           0       -0.856655   -0.196291   -3.656321
     10          1           0       -2.166707   -0.313257   -2.876850
     11          1           0       -0.944497   -0.038235    3.524087
     12          1           0       -2.164972   -0.153889    2.605405
 ---------------------------------------------------------------------
                    Distance matrix (angstroms):
                    1          2          3          4          5
     1  O    0.000000
     2  H    0.974559   0.000000
     3  H    0.974310   1.555307   0.000000
     4  O    2.838803   3.259627   1.864884   0.000000
     5  O    4.325443   4.695315   4.376306   5.045687   0.000000
     6  O    2.842111   1.868096   3.266696   4.607005   5.783197
     7  H    3.291854   3.812742   2.379111   0.966104   5.753840
     8  H    3.321634   3.825826   2.397881   0.966910   4.552970
     9  H    4.484829   5.027217   4.497883   5.079271   0.965325
    10  H    4.354141   4.650612   4.612573   5.583713   0.965541
    11  H    3.305277   2.379061   3.705590   4.966191   6.679958
    12  H    3.302652   2.391165   3.900206   5.391926   5.796680
                    6          7          8          9         10
     6  O    0.000000
     7  H    5.232816   0.000000
     8  H    5.215324   1.534284   0.000000
     9  H    6.337654   5.661484   4.523083   0.000000
    10  H    5.623723   6.284943   5.216635   1.528886   0.000000
    11  H    0.966489   5.464995   5.693297   7.182685   6.522380
    12  H    0.966377   6.036761   5.926853   6.397085   5.484572
                   11         12
    11  H    0.000000
    12  H    1.531963   0.000000
 Stoichiometry    H8O4
 Framework group  C1[X(H8O4)]
 Deg. of freedom    30
 Full point group                 C1      NOp   1
 Largest Abelian subgroup         C1      NOp   1
 Largest concise Abelian subgroup C1      NOp   1
                         Standard orientation:                         
 ---------------------------------------------------------------------
 Center     Atomic      Atomic             Coordinates (Angstroms)
 Number     Number       Type             X           Y           Z
 ---------------------------------------------------------------------
      1          8           0        0.640691    0.080179    1.025952
      2          1           0        1.259270   -0.461953    0.503250
      3          1           0        0.510419    0.901130    0.517671
      4          8           0        0.255002    2.504957   -0.399004
      5          8           0       -3.340270   -1.032038   -0.248558
      6          8           0        2.414260   -1.564134   -0.466790
      7          1           0        0.475307    3.254366    0.169512
      8          1           0       -0.672090    2.636341   -0.640150
      9          1           0       -3.767252   -0.485792    0.423122
     10          1           0       -3.161977   -1.871064    0.194745
     11          1           0        3.329973   -1.390211   -0.211210
     12          1           0        2.268884   -2.494529   -0.249732
 ---------------------------------------------------------------------
 Rotational constants (GHZ):      2.3793659      1.4531402      0.9910728

 **********************************************************************

            Population analysis using the SCF density.

 **********************************************************************

 Orbital symmetries:
       Occupied  (A) (A) (A) (A) (A) (A) (A) (A) (A) (A) (A) (A)
                 (A) (A) (A) (A) (A) (A) (A) (A)
       Virtual   (A) (A) (A) (A) (A) (A) (A) (A) (A) (A) (A) (A)
                 (A) (A) (A) (A) (A) (A) (A) (A) (A) (A) (A) (A)
                 (A) (A) (A) (A) (A) (A) (A) (A) (A) (A) (A) (A)
                 (A) (A) (A) (A) (A) (A) (A) (A) (A) (A) (A) (A)
                 (A) (A) (A) (A) (A) (A) (A) (A) (A) (A) (A) (A)
                 (A) (A) (A) (A) (A) (A) (A) (A) (A) (A) (A) (A)
                 (A) (A) (A) (A) (A) (A) (A) (A) (A) (A) (A) (A)
                 (A) (A) (A) (A) (A) (A) (A) (A) (A) (A) (A) (A)
 The electronic state is 1-A.
 Alpha  occ. eigenvalues --  -19.65618 -19.65611 -19.64842 -19.62550  -1.13905
 Alpha  occ. eigenvalues --   -1.13738  -1.12970  -1.10601  -0.60795  -0.60748
 Alpha  occ. eigenvalues --   -0.60113  -0.59326  -0.49897  -0.47934  -0.47608
 Alpha  occ. eigenvalues --   -0.45120  -0.40684  -0.40481  -0.40132  -0.38464
 Alpha virt. eigenvalues --    0.05653   0.08354   0.08973   0.12999   0.13464
 Alpha virt. eigenvalues --    0.13778   0.14273   0.17249   0.17795   0.18446
 Alpha virt. eigenvalues --    0.21018   0.22286   0.22795   0.24682   0.25121
 Alpha virt. eigenvalues --    0.26752   0.27448   0.27960   0.28740   0.31678
 Alpha virt. eigenvalues --    0.34517   0.34917   0.40437   0.41370   0.98612
 Alpha virt. eigenvalues --    0.99741   0.99917   1.07808   1.08957   1.09407
 Alpha virt. eigenvalues --    1.10725   1.12906   1.13277   1.14358   1.15997
 Alpha virt. eigenvalues --    1.18646   1.19757   1.21192   1.21733   1.22012
 Alpha virt. eigenvalues --    1.22425   1.23853   1.25316   1.29292   1.32182
 Alpha virt. eigenvalues --    1.40824   1.47474   1.50083   1.55742   1.56766
 Alpha virt. eigenvalues --    1.57040   1.57845   1.58271   1.58630   1.60166
 Alpha virt. eigenvalues --    1.63998   1.68293   1.71160   1.84375   1.86993
 Alpha virt. eigenvalues --    2.27636   2.28358   2.29217   2.29600   2.29864
 Alpha virt. eigenvalues --    2.30664   2.33231   2.50740   2.56268   2.56989
 Alpha virt. eigenvalues --    2.57677   2.63923   2.64715   2.65291   2.67619
 Alpha virt. eigenvalues --    2.69604   2.70074   2.70442   2.72556   2.73322
 Alpha virt. eigenvalues --    3.06221   3.06557   3.06619   3.07732   3.37710
 Alpha virt. eigenvalues --    3.38379   3.38903   3.52983   3.55285   3.55503
 Alpha virt. eigenvalues --    3.55667   3.69790   3.95510   4.03805   4.12323
 Alpha virt. eigenvalues --    4.19427
          Condensed to atoms (all electrons):
              1          2          3          4          5          6
     1  O    8.456989   0.264235   0.264164  -0.028943  -0.000676  -0.029091
     2  H    0.264235   0.286403  -0.013653   0.001311  -0.000005   0.002318
     3  H    0.264164  -0.013653   0.286807   0.001753  -0.000002   0.001359
     4  O   -0.028943   0.001311   0.001753   8.323152   0.000028   0.000287
     5  O   -0.000676  -0.000005  -0.000002   0.000028   8.277639   0.000026
     6  O   -0.029091   0.002318   0.001359   0.000287   0.000026   8.322255
     7  H    0.000764   0.000021  -0.000981   0.286936  -0.000002  -0.000011
     8  H    0.000697   0.000017  -0.000895   0.287039   0.000016  -0.000011
     9  H   -0.000018   0.000001   0.000001   0.000007   0.287211   0.000000
    10  H   -0.000015   0.000001   0.000002  -0.000002   0.287140  -0.000001
    11  H    0.000661  -0.001183  -0.000007  -0.000014   0.000000   0.287024
    12  H    0.000853  -0.000861   0.000032  -0.000011  -0.000001   0.286902
              7          8          9         10         11         12
     1  O    0.000764   0.000697  -0.000018  -0.000015   0.000661   0.000853
     2  H    0.000021   0.000017   0.000001   0.000001  -0.001183  -0.000861
     3  H   -0.000981  -0.000895   0.000001   0.000002  -0.000007   0.000032
     4  O    0.286936   0.287039   0.000007  -0.000002  -0.000014  -0.000011
     5  O   -0.000002   0.000016   0.287211   0.287140   0.000000  -0.000001
     6  O   -0.000011  -0.000011   0.000000  -0.000001   0.287024   0.286902
     7  H    0.292776  -0.016749   0.000000   0.000000   0.000000   0.000000
     8  H   -0.016749   0.292277  -0.000001   0.000000   0.000000   0.000000
     9  H    0.000000  -0.000001   0.303882  -0.016657   0.000000   0.000000
    10  H    0.000000   0.000000  -0.016657   0.303711   0.000000   0.000000
    11  H    0.000000   0.000000   0.000000   0.000000   0.293128  -0.016833
    12  H    0.000000   0.000000   0.000000   0.000000  -0.016833   0.292618
 Mulliken atomic charges:
              1
     1  O   -0.929619
     2  H    0.461395
     3  H    0.461421
     4  O   -0.871542
     5  O   -0.851373
     6  O   -0.871056
     7  H    0.437246
     8  H    0.437610
     9  H    0.425575
    10  H    0.425819
    11  H    0.437223
    12  H    0.437301
 Sum of Mulliken atomic charges =   0.00000
 Mulliken charges with hydrogens summed into heavy atoms:
              1
     1  O   -0.006803
     4  O    0.003314
     5  O    0.000021
     6  O    0.003468
 Sum of Mulliken charges with hydrogens summed into heavy atoms =   0.00000
 Electronic spatial extent (au):  <R**2>=           1123.5638
 Charge=              0.0000 electrons
 Dipole moment (field-independent basis, Debye):
    X=              0.8742    Y=              0.3544    Z=              1.6071  Tot=              1.8635
 Quadrupole moment (field-independent basis, Debye-Ang):
   XX=            -10.6149   YY=             -2.8845   ZZ=            -34.3862
   XY=             -8.8232   XZ=             -6.0879   YZ=             -1.4780
 Traceless Quadrupole moment (field-independent basis, Debye-Ang):
   XX=              5.3470   YY=             13.0774   ZZ=            -18.4244
   XY=             -8.8232   XZ=             -6.0879   YZ=             -1.4780
 Octapole moment (field-independent basis, Debye-Ang**2):
  XXX=             32.5367  YYY=             14.6709  ZZZ=             -3.6177  XYY=              4.5657
  XXY=            -22.9546  XXZ=             35.8413  XZZ=             -7.1417  YZZ=              1.7534
  YYZ=             12.0514  XYZ=              9.8748
 Hexadecapole moment (field-independent basis, Debye-Ang**3):
 XXXX=           -506.3788 YYYY=           -179.6547 ZZZZ=            -99.3280 XXXY=            -87.8734
 XXXZ=           -110.8790 YYYX=            -38.1162 YYYZ=             18.5963 ZZZX=             -6.0350
 ZZZY=             -3.4528 XXYY=           -110.9575 XXZZ=           -155.6615 YYZZ=            -94.9695
 XXYZ=            -38.5936 YYXZ=              6.2329 ZZXY=             -1.0474
 N-N= 1.162905937442D+02 E-N=-9.545421816331D+02  KE= 3.029494140260D+02


 ONLY THE DAY DAWNS TO WHICH YOU ARE AWAKE.

                                 -- THOREAU
 Error termination request processed by link 9999.
 Error termination via Lnk1e in C:\G09W\l9999.exe at Tue Jan 19 22:57:35 2021.
 Job cpu time:  0 days  0 hours 17 minutes 28.0 seconds.
 File lengths (MBytes):  RWF=     38 Int=      0 D2E=      0 Chk=      3 Scr=      1
