 Entering Link 1 = C:\G09W\l1.exe PID=      9184.
  
 Copyright (c) 1988,1990,1992,1993,1995,1998,2003,2009, Gaussian, Inc.
                  All Rights Reserved.
  
 This is part of the Gaussian(R) 09 program.  It is based on
 the Gaussian(R) 03 system (copyright 2003, Gaussian, Inc.),
 the Gaussian(R) 98 system (copyright 1998, Gaussian, Inc.),
 the Gaussian(R) 94 system (copyright 1995, Gaussian, Inc.),
 the Gaussian 92(TM) system (copyright 1992, Gaussian, Inc.),
 the Gaussian 90(TM) system (copyright 1990, Gaussian, Inc.),
 the Gaussian 88(TM) system (copyright 1988, Gaussian, Inc.),
 the Gaussian 86(TM) system (copyright 1986, Carnegie Mellon
 University), and the Gaussian 82(TM) system (copyright 1983,
 Carnegie Mellon University). Gaussian is a federally registered
 trademark of Gaussian, Inc.
  
 This software contains proprietary and confidential information,
 including trade secrets, belonging to Gaussian, Inc.
  
 This software is provided under written license and may be
 used, copied, transmitted, or stored only in accord with that
 written license.
  
 The following legend is applicable only to US Government
 contracts under FAR:
  
                    RESTRICTED RIGHTS LEGEND
  
 Use, reproduction and disclosure by the US Government is
 subject to restrictions as set forth in subparagraphs (a)
 and (c) of the Commercial Computer Software - Restricted
 Rights clause in FAR 52.227-19.
  
 Gaussian, Inc.
 340 Quinnipiac St., Bldg. 40, Wallingford CT 06492
  
  
 ---------------------------------------------------------------
 Warning -- This program may not be used in any manner that
 competes with the business of Gaussian, Inc. or will provide
 assistance to any competitor of Gaussian, Inc.  The licensee
 of this program is prohibited from giving any competitor of
 Gaussian, Inc. access to this program.  By using this program,
 the user acknowledges that Gaussian, Inc. is engaged in the
 business of creating and licensing software in the field of
 computational chemistry and represents and warrants to the
 licensee that it is not a competitor of Gaussian, Inc. and that
 it will not use this program in any manner prohibited above.
 ---------------------------------------------------------------
  

 Cite this work as:
 Gaussian 09, Revision A.02,
 M. J. Frisch, G. W. Trucks, H. B. Schlegel, G. E. Scuseria, 
 M. A. Robb, J. R. Cheeseman, G. Scalmani, V. Barone, B. Mennucci, 
 G. A. Petersson, H. Nakatsuji, M. Caricato, X. Li, H. P. Hratchian, 
 A. F. Izmaylov, J. Bloino, G. Zheng, J. L. Sonnenberg, M. Hada, 
 M. Ehara, K. Toyota, R. Fukuda, J. Hasegawa, M. Ishida, T. Nakajima, 
 Y. Honda, O. Kitao, H. Nakai, T. Vreven, J. A. Montgomery, Jr., 
 J. E. Peralta, F. Ogliaro, M. Bearpark, J. J. Heyd, E. Brothers, 
 K. N. Kudin, V. N. Staroverov, R. Kobayashi, J. Normand, 
 K. Raghavachari, A. Rendell, J. C. Burant, S. S. Iyengar, J. Tomasi, 
 M. Cossi, N. Rega, J. M. Millam, M. Klene, J. E. Knox, J. B. Cross, 
 V. Bakken, C. Adamo, J. Jaramillo, R. Gomperts, R. E. Stratmann, 
 O. Yazyev, A. J. Austin, R. Cammi, C. Pomelli, J. W. Ochterski, 
 R. L. Martin, K. Morokuma, V. G. Zakrzewski, G. A. Voth, 
 P. Salvador, J. J. Dannenberg, S. Dapprich, A. D. Daniels, 
 O. Farkas, J. B. Foresman, J. V. Ortiz, J. Cioslowski, 
 and D. J. Fox, Gaussian, Inc., Wallingford CT, 2009.
 
 ******************************************
 Gaussian 09:  IA32W-G09RevA.02 11-Jun-2009
                20-Jan-2021 
 ******************************************
 %chk=D:\Documents\rayGit\FQ\quimicaComputacional\p4Pka\reactivos\carbonochloricA
 nionM062x.chk
 %mem=1500MB
 %nprocshared=4
 Will use up to    4 processors via shared memory.
 --------------------------------------
 # opt freq 6-311+g(d,p) scrf=smd m062x
 --------------------------------------
 1/14=-1,18=20,19=15,26=3,38=1/1,3;
 2/9=110,12=2,17=6,18=5,40=1/2;
 3/5=4,6=6,7=111,11=2,16=1,25=1,30=1,70=32201,71=1,72=1,74=-55/1,2,3;
 4//1;
 5/5=2,38=5/2;
 6/7=2,8=2,9=2,10=2,28=1/1;
 7//1,2,3,16;
 1/14=-1,18=20,19=15/3(2);
 2/9=110/2;
 99//99;
 2/9=110/2;
 3/5=4,6=6,7=111,11=2,16=1,25=1,30=1,70=32205,71=1,74=-55/1,2,3;
 4/5=5,16=3/1;
 5/5=2,38=5/2;
 7//1,2,3,16;
 1/14=-1,18=20,19=15/3(-5);
 2/9=110/2;
 6/7=2,8=2,9=2,10=2,19=2,28=1/1;
 99/9=1/99;
 --------------------------
 carbonochloric anion m062x
 --------------------------
 Symbolic Z-matrix:
 Charge = -1 Multiplicity = 1
 C                    -0.0641    1.32479   0. 
 O                     0.76393   2.26756   0.68589 
 O                     0.34869  -0.03962  -0.11363 
 Cl                   -1.59127   1.84372  -0.70433 
 

 GradGradGradGradGradGradGradGradGradGradGradGradGradGradGradGradGradGrad
 Berny optimization.
 Initialization pass.
                           ----------------------------
                           !    Initial Parameters    !
                           ! (Angstroms and Degrees)  !
 --------------------------                            --------------------------
 ! Name  Definition              Value          Derivative Info.                !
 --------------------------------------------------------------------------------
 ! R1    R(1,2)                  1.43           estimate D2E/DX2                !
 ! R2    R(1,3)                  1.43           estimate D2E/DX2                !
 ! R3    R(1,4)                  1.76           estimate D2E/DX2                !
 ! A1    A(2,1,3)              120.0            estimate D2E/DX2                !
 ! A2    A(2,1,4)              120.0            estimate D2E/DX2                !
 ! A3    A(3,1,4)              120.0            estimate D2E/DX2                !
 ! D1    D(2,1,4,3)            180.0            estimate D2E/DX2                !
 --------------------------------------------------------------------------------
 Trust Radius=3.00D-01 FncErr=1.00D-07 GrdErr=1.00D-06
 Number of steps in this run=  20 maximum allowed number of steps= 100.
 GradGradGradGradGradGradGradGradGradGradGradGradGradGradGradGradGradGrad

                          Input orientation:                          
 ---------------------------------------------------------------------
 Center     Atomic      Atomic             Coordinates (Angstroms)
 Number     Number       Type             X           Y           Z
 ---------------------------------------------------------------------
      1          6           0       -0.064103    1.324786    0.000000
      2          8           0        0.763929    2.267555    0.685894
      3          8           0        0.348686   -0.039616   -0.113627
      4         17           0       -1.591266    1.843720   -0.704329
 ---------------------------------------------------------------------
                    Distance matrix (angstroms):
                    1          2          3          4
     1  C    0.000000
     2  O    1.430000   0.000000
     3  O    1.430000   2.476833   0.000000
     4  Cl   1.760000   2.767544   2.767544   0.000000
 Stoichiometry    CClO2(1-)
 Framework group  C2V[C2(CCl),SGV(O2)]
 Deg. of freedom     3
 Full point group                 C2V     NOp   4
 Largest Abelian subgroup         C2V     NOp   4
 Largest concise Abelian subgroup C2      NOp   2
                         Standard orientation:                         
 ---------------------------------------------------------------------
 Center     Atomic      Atomic             Coordinates (Angstroms)
 Number     Number       Type             X           Y           Z
 ---------------------------------------------------------------------
      1          6           0        0.000000    0.000000   -0.473846
      2          8           0        0.000000   -1.238416   -1.188846
      3          8           0        0.000000    1.238416   -1.188846
      4         17           0        0.000000    0.000000    1.286154
 ---------------------------------------------------------------------
 Rotational constants (GHZ):     10.3008233      4.7797891      3.2648384
 Standard basis: 6-311+G(d,p) (5D, 7F)
 There are    42 symmetry adapted basis functions of A1  symmetry.
 There are     8 symmetry adapted basis functions of A2  symmetry.
 There are    18 symmetry adapted basis functions of B1  symmetry.
 There are    28 symmetry adapted basis functions of B2  symmetry.
 Integral buffers will be    262144 words long.
 Raffenetti 2 integral format.
 Two-electron integral symmetry is turned on.
    96 basis functions,   161 primitive gaussians,   100 cartesian basis functions
    20 alpha electrons       20 beta electrons
       nuclear repulsion energy       131.8756972534 Hartrees.
 NAtoms=    4 NActive=    4 NUniq=    3 SFac= 1.33D+00 NAtFMM=   80 NAOKFM=F Big=F
 ------------------------------------------------------------------------------
 Polarizable Continuum Model (PCM)
 =================================
 Model                : PCM.
 Atomic radii         : SMD-Coulomb.
 Polarization charges : Total charges.
 Charge compensation  : None.
 Solution method      : Matrix inversion.
 Cavity type          : VdW (van der Waals Surface) (Alpha=1.000).
 Cavity algorithm     : GePol (No added spheres)
                        Default sphere list used, NSphG=    4.
                        Lebedev-Laikov grids with approx.  5.0 points / Ang**2.
                        Smoothing algorithm: Karplus/York (Gamma=1.0000).
                        Polarization charges: spherical gaussians, with
                                              point-specific exponents (IZeta= 3).
                        Self-potential: point-specific (ISelfS= 7).
                        Self-field    : sphere-specific E.n sum rule (ISelfD= 2).
 1st derivatives      : Analytical E(r).r(x)/FMM algorithm (CHGder, D1EAlg=3).
                        Cavity 1st derivative terms included.
 Solvent              : Water, Eps=  78.355300 Eps(inf)=   1.777849
 ------------------------------------------------------------------------------
 Spheres list:
 ISph  on   Nord    Re0     Alpha      Xe            Ye            Ze
    1   C      1    1.850   1.000      0.000000      0.000000     -0.473846
    2   O      2    1.520   1.000      0.000000     -1.238416     -1.188846
    3   O      3    1.520   1.000      0.000000      1.238416     -1.188846
    4  Cl      4    2.380   1.000      0.000000      0.000000      1.286154
 ------------------------------------------------------------------------------
 ------------------------------------------------------------------------------
 Atomic radii for non-electrostatic terms: SMD-CDS.
 ------------------------------------------------------------------------------
 Nuclear repulsion after PCM non-electrostatic terms =      131.8783905172 Hartrees.
 One-electron integrals computed using PRISM.
 NBasis=    96 RedAO= T  NBF=    42     8    18    28
 NBsUse=    96 1.00D-06 NBFU=    42     8    18    28
 Harris functional with IExCor= 1009 diagonalized for initial guess.
 ExpMin= 4.38D-02 ExpMax= 1.06D+05 ExpMxC= 3.62D+03 IAcc=2 IRadAn=         0 AccDes= 0.00D+00
 HarFok:  IExCor= 1009 AccDes= 0.00D+00 IRadAn=         0 IDoV= 1
 ScaDFX=  1.000000  1.000000  1.000000  1.000000
 FoFCou: FMM=F IPFlag=           0 FMFlag=      100000 FMFlg1=           0
         NFxFlg=           0 DoJE=T BraDBF=F KetDBF=T FulRan=T
         Omega=  0.000000  0.000000  1.000000  0.000000  0.000000 ICntrl=     500 IOpCl=  0
         NMat0=    1 NMatS0=    1 NMatT0=    0 NMatD0=    1 NMtDS0=    0 NMtDT0=    0
         I1Cent=           4 NGrid=           0.
 Petite list used in FoFCou.
 Initial guess orbital symmetries:
       Occupied  (A1) (B2) (A1) (A1) (A1) (A1) (B1) (B2) (A1) (B2)
                 (A1) (A1) (A1) (B2) (B1) (B2) (A1) (A2) (B1) (B2)
       Virtual   (B1) (A1) (A1) (A1) (B2) (B1) (B2) (A1) (B1) (A1)
                 (B2) (A1) (A1) (A2) (B2) (A1) (B1) (B2) (A1) (B2)
                 (A1) (B1) (B2) (B1) (B2) (A1) (A1) (B1) (A2) (A1)
                 (A1) (B2) (A2) (A1) (A1) (B1) (B2) (B2) (A1) (A2)
                 (B1) (A1) (B2) (A1) (B2) (A1) (B1) (B2) (A1) (B1)
                 (B2) (A2) (A1) (B1) (B2) (A1) (B2) (A2) (B1) (A1)
                 (A1) (B2) (A2) (B1) (B2) (A1) (A1) (B2) (A1) (A1)
                 (B1) (B2) (A1) (A1) (B2) (A1)
 The electronic state of the initial guess is 1-A1.
 Requested convergence on RMS density matrix=1.00D-08 within 128 cycles.
 Requested convergence on MAX density matrix=1.00D-06.
 Requested convergence on             energy=1.00D-06.
 No special actions if energy rises.
 Keep R1 ints in memory in canonical form, NReq=16235449.
 Error on total polarization charges =  0.03649
 SCF Done:  E(RM062X) =  -648.853740316     A.U. after   12 cycles
             Convg  =    0.1844D-08             -V/T =  2.0037
 SMD-CDS (non-electrostatic) energy             (kcal/mol) =       1.69
 (included in total energy above)

 **********************************************************************

            Population analysis using the SCF density.

 **********************************************************************

 Orbital symmetries:
       Occupied  (A1) (B2) (A1) (A1) (A1) (A1) (B1) (B2) (A1) (B2)
                 (A1) (A1) (A1) (B2) (B1) (B2) (B1) (A1) (A2) (B2)
       Virtual   (B1) (A1) (A1) (A1) (B2) (B1) (B2) (B1) (A1) (A1)
                 (A1) (A2) (B2) (A1) (B2) (B2) (B1) (A1) (A1) (B2)
                 (A1) (B1) (B2) (B1) (B2) (A1) (A1) (B1) (A2) (A1)
                 (A1) (B2) (A1) (A2) (A1) (B1) (B2) (B2) (A1) (A2)
                 (B1) (A1) (B2) (A1) (B2) (A1) (B1) (B2) (A1) (B1)
                 (B2) (A1) (A2) (B2) (B1) (A1) (B2) (A2) (B1) (A1)
                 (A1) (B2) (A2) (B1) (B2) (A1) (A1) (B2) (A1) (A1)
                 (B1) (B2) (A1) (A1) (B2) (A1)
 The electronic state is 1-A1.
 Alpha  occ. eigenvalues -- -102.70273 -19.61677 -19.61675 -10.74152  -9.84448
 Alpha  occ. eigenvalues --   -7.56952  -7.56311  -7.56232  -1.11053  -1.03382
 Alpha  occ. eigenvalues --   -0.95966  -0.64637  -0.52471  -0.50427  -0.48240
 Alpha  occ. eigenvalues --   -0.40440  -0.39050  -0.37148  -0.34413  -0.33943
 Alpha virt. eigenvalues --   -0.00412   0.01558   0.05043   0.05889   0.06193
 Alpha virt. eigenvalues --    0.06868   0.09609   0.10276   0.10478   0.18465
 Alpha virt. eigenvalues --    0.18821   0.21551   0.22533   0.26939   0.27373
 Alpha virt. eigenvalues --    0.28393   0.28706   0.29753   0.32608   0.35585
 Alpha virt. eigenvalues --    0.45535   0.48355   0.49923   0.56397   0.64085
 Alpha virt. eigenvalues --    0.65853   0.81466   0.87067   0.91256   0.92286
 Alpha virt. eigenvalues --    0.93644   1.06061   1.08234   1.09715   1.17237
 Alpha virt. eigenvalues --    1.21357   1.21376   1.22802   1.24000   1.37575
 Alpha virt. eigenvalues --    1.45176   1.56039   1.61349   1.73941   1.78087
 Alpha virt. eigenvalues --    1.78418   2.26684   2.29444   2.43002   2.61040
 Alpha virt. eigenvalues --    2.82631   2.92019   2.92351   2.93362   2.93934
 Alpha virt. eigenvalues --    2.99928   3.08014   3.17255   3.19520   3.36610
 Alpha virt. eigenvalues --    3.67115   4.04774   5.09551   5.15623   5.17639
 Alpha virt. eigenvalues --    5.18049   5.30686   5.69313   9.87874  23.42231
 Alpha virt. eigenvalues --   25.89043  25.95964  26.32942  49.95082  49.96818
 Alpha virt. eigenvalues --  215.96398
          Condensed to atoms (all electrons):
              1          2          3          4
     1  C    5.393244   0.257756   0.257756   0.161327
     2  O    0.257756   8.530142  -0.129666  -0.102934
     3  O    0.257756  -0.129666   8.530142  -0.102934
     4  Cl   0.161327  -0.102934  -0.102934  16.863866
 Mulliken atomic charges:
              1
     1  C   -0.070081
     2  O   -0.555297
     3  O   -0.555297
     4  Cl   0.180676
 Sum of Mulliken atomic charges =  -1.00000
 Mulliken charges with hydrogens summed into heavy atoms:
              1
     1  C   -0.070081
     2  O   -0.555297
     3  O   -0.555297
     4  Cl   0.180676
 Sum of Mulliken charges with hydrogens summed into heavy atoms =  -1.00000
 Electronic spatial extent (au):  <R**2>=            358.4787
 Charge=             -1.0000 electrons
 Dipole moment (field-independent basis, Debye):
    X=              0.0000    Y=              0.0000    Z=              6.6920  Tot=              6.6920
 Quadrupole moment (field-independent basis, Debye-Ang):
   XX=            -31.1048   YY=            -42.7110   ZZ=            -40.3243
   XY=              0.0000   XZ=              0.0000   YZ=              0.0000
 Traceless Quadrupole moment (field-independent basis, Debye-Ang):
   XX=              6.9419   YY=             -4.6643   ZZ=             -2.2776
   XY=              0.0000   XZ=              0.0000   YZ=              0.0000
 Octapole moment (field-independent basis, Debye-Ang**2):
  XXX=              0.0000  YYY=              0.0000  ZZZ=             22.9048  XYY=              0.0000
  XXY=              0.0000  XXZ=              1.7757  XZZ=              0.0000  YZZ=              0.0000
  YYZ=             13.6891  XYZ=              0.0000
 Hexadecapole moment (field-independent basis, Debye-Ang**3):
 XXXX=            -33.3981 YYYY=           -174.3860 ZZZZ=           -283.6979 XXXY=              0.0000
 XXXZ=              0.0000 YYYX=              0.0000 YYYZ=              0.0000 ZZZX=              0.0000
 ZZZY=              0.0000 XXYY=            -32.5063 XXZZ=            -52.8434 YYZZ=            -86.5175
 XXYZ=              0.0000 YYXZ=              0.0000 ZZXY=              0.0000
 N-N= 1.318783905172D+02 E-N=-1.811118632139D+03  KE= 6.464605681898D+02
 Symmetry A1   KE= 4.734562087489D+02
 Symmetry A2   KE= 4.481189342561D+00
 Symmetry B1   KE= 4.924906126109D+01
 Symmetry B2   KE= 1.192741088373D+02
 D1PCM: PCM CHGder 1st derivatives, ID1Alg=3 FixD1E=F DoIter=F DoCFld=F I1PDM=0.
 Calling FoFJK, ICntrl=      2127 FMM=F ISym2X=1 I1Cent= 0 IOpClX= 0 NMat=1 NMatS=1 NMatT=0.
 ***** Axes restored to original set *****
 -------------------------------------------------------------------
 Center     Atomic                   Forces (Hartrees/Bohr)
 Number     Number              X              Y              Z
 -------------------------------------------------------------------
      1        6           0.139522638   -0.047410140    0.064347940
      2        8          -0.099358660   -0.093927412   -0.077535127
      3        8          -0.056044647    0.146733843    0.005863012
      4       17           0.015880669   -0.005396291    0.007324176
 -------------------------------------------------------------------
 Cartesian Forces:  Max     0.146733843 RMS     0.079373747

 GradGradGradGradGradGradGradGradGradGradGradGradGradGradGradGradGradGrad
 Berny optimization.
 Internal  Forces:  Max     0.156646733 RMS     0.084708938
 Search for a local minimum.
 Step number   1 out of a maximum of   20
 All quantities printed in internal units (Hartrees-Bohrs-Radians)
 Mixed Optimization -- RFO/linear search
 Second derivative matrix not updated -- first step.
 The second derivative matrix:
                          R1        R2        R3        A1        A2
           R1           0.40989
           R2           0.00000   0.40989
           R3           0.00000   0.00000   0.29539
           A1           0.00000   0.00000   0.00000   0.25000
           A2           0.00000   0.00000   0.00000   0.00000   0.25000
           A3           0.00000   0.00000   0.00000   0.00000   0.00000
           D1           0.00000   0.00000   0.00000   0.00000   0.00000
                          A3        D1
           A3           0.25000
           D1           0.00000   0.00238
     Eigenvalues ---    0.00238   0.25000   0.25000   0.29539   0.40989
     Eigenvalues ---    0.409891000.00000
 RFO step:  Lambda=-9.95260730D-02 EMin= 2.37799011D-03
 Linear search not attempted -- first point.
 Maximum step size (   0.300) exceeded in Quadratic search.
    -- Step size scaled by   0.674
 Iteration  1 RMS(Cart)=  0.09970875 RMS(Int)=  0.00462786
 Iteration  2 RMS(Cart)=  0.00494201 RMS(Int)=  0.00000580
 Iteration  3 RMS(Cart)=  0.00000584 RMS(Int)=  0.00000000
 Iteration  4 RMS(Cart)=  0.00000000 RMS(Int)=  0.00000000
 ClnCor:  largest displacement from symmetrization is 2.45D-14 for atom     1.
 Variable       Old X    -DE/DX   Delta X   Delta X   Delta X     New X
                                 (Linear)    (Quad)   (Total)
    R1        2.70231  -0.15665   0.00000  -0.20734  -0.20734   2.49497
    R2        2.70231  -0.15665   0.00000  -0.20734  -0.20734   2.49497
    R3        3.32592  -0.01830   0.00000  -0.03125  -0.03125   3.29467
    A1        2.09440   0.02335   0.00000   0.04505   0.04505   2.13944
    A2        2.09440  -0.01168   0.00000  -0.02252  -0.02252   2.07187
    A3        2.09440  -0.01168   0.00000  -0.02252  -0.02252   2.07187
    D1        3.14159   0.00000   0.00000   0.00000   0.00000   3.14159
         Item               Value     Threshold  Converged?
 Maximum Force            0.156647     0.000450     NO 
 RMS     Force            0.084709     0.000300     NO 
 Maximum Displacement     0.166410     0.001800     NO 
 RMS     Displacement     0.103524     0.001200     NO 
 Predicted change in Energy=-4.896202D-02
 GradGradGradGradGradGradGradGradGradGradGradGradGradGradGradGradGradGrad

                          Input orientation:                          
 ---------------------------------------------------------------------
 Center     Atomic      Atomic             Coordinates (Angstroms)
 Number     Number       Type             X           Y           Z
 ---------------------------------------------------------------------
      1          6           0       -0.032644    1.314097    0.014509
      2          8           0        0.711810    2.205750    0.642110
      3          8           0        0.323540    0.048444   -0.105477
      4         17           0       -1.545459    1.828155   -0.683203
 ---------------------------------------------------------------------
                    Distance matrix (angstroms):
                    1          2          3          4
     1  C    0.000000
     2  O    1.320280   0.000000
     3  O    1.320280   2.315947   0.000000
     4  Cl   1.743464   2.644673   2.644673   0.000000
 Stoichiometry    CClO2(1-)
 Framework group  C2V[C2(CCl),SGV(O2)]
 Deg. of freedom     3
 Full point group                 C2V     NOp   4
 Largest Abelian subgroup         C2V     NOp   4
 Largest concise Abelian subgroup C2      NOp   2
                         Standard orientation:                         
 ---------------------------------------------------------------------
 Center     Atomic      Atomic             Coordinates (Angstroms)
 Number     Number       Type             X           Y           Z
 ---------------------------------------------------------------------
      1          6           0        0.000000    0.000000   -0.499778
      2          8           0        0.000000    1.157973   -1.134000
      3          8           0        0.000000   -1.157973   -1.134000
      4         17           0        0.000000    0.000000    1.243686
 ---------------------------------------------------------------------
 Rotational constants (GHZ):     11.7817052      5.1461961      3.5817178
 Standard basis: 6-311+G(d,p) (5D, 7F)
 There are    42 symmetry adapted basis functions of A1  symmetry.
 There are     8 symmetry adapted basis functions of A2  symmetry.
 There are    18 symmetry adapted basis functions of B1  symmetry.
 There are    28 symmetry adapted basis functions of B2  symmetry.
 Integral buffers will be    262144 words long.
 Raffenetti 2 integral format.
 Two-electron integral symmetry is turned on.
    96 basis functions,   161 primitive gaussians,   100 cartesian basis functions
    20 alpha electrons       20 beta electrons
       nuclear repulsion energy       138.4850356813 Hartrees.
 NAtoms=    4 NActive=    4 NUniq=    3 SFac= 1.33D+00 NAtFMM=   80 NAOKFM=F Big=F
 ------------------------------------------------------------------------------
 Polarizable Continuum Model (PCM)
 =================================
 Model                : PCM.
 Atomic radii         : SMD-Coulomb.
 Polarization charges : Total charges.
 Charge compensation  : None.
 Solution method      : Matrix inversion.
 Cavity type          : VdW (van der Waals Surface) (Alpha=1.000).
 Cavity algorithm     : GePol (No added spheres)
                        Default sphere list used, NSphG=    4.
                        Lebedev-Laikov grids with approx.  5.0 points / Ang**2.
                        Smoothing algorithm: Karplus/York (Gamma=1.0000).
                        Polarization charges: spherical gaussians, with
                                              point-specific exponents (IZeta= 3).
                        Self-potential: point-specific (ISelfS= 7).
                        Self-field    : sphere-specific E.n sum rule (ISelfD= 2).
 1st derivatives      : Analytical E(r).r(x)/FMM algorithm (CHGder, D1EAlg=3).
                        Cavity 1st derivative terms included.
 Solvent              : Water, Eps=  78.355300 Eps(inf)=   1.777849
 ------------------------------------------------------------------------------
 Spheres list:
 ISph  on   Nord    Re0     Alpha      Xe            Ye            Ze
    1   C      1    1.850   1.000      0.000000      0.000000     -0.499778
    2   O      2    1.520   1.000      0.000000      1.157973     -1.134000
    3   O      3    1.520   1.000      0.000000     -1.157973     -1.134000
    4  Cl      4    2.380   1.000      0.000000      0.000000      1.243686
 ------------------------------------------------------------------------------
 ------------------------------------------------------------------------------
 Atomic radii for non-electrostatic terms: SMD-CDS.
 ------------------------------------------------------------------------------
 Nuclear repulsion after PCM non-electrostatic terms =      138.4899861188 Hartrees.
 One-electron integrals computed using PRISM.
 NBasis=    96 RedAO= T  NBF=    42     8    18    28
 NBsUse=    96 1.00D-06 NBFU=    42     8    18    28
 Initial guess read from the read-write file.
 B after Tr=     0.000000    0.000000    0.000000
         Rot=    1.000000    0.000000    0.000000    0.000000 Ang=   0.00 deg.
 Initial guess orbital symmetries:
       Occupied  (A1) (B2) (A1) (A1) (A1) (A1) (B1) (B2) (A1) (B2)
                 (A1) (A1) (A1) (B2) (B1) (B2) (B1) (A1) (A2) (B2)
       Virtual   (B1) (A1) (A1) (A1) (B2) (B1) (B2) (B1) (A1) (A1)
                 (A1) (A2) (B2) (A1) (B2) (B2) (B1) (A1) (A1) (B2)
                 (A1) (B1) (B2) (B1) (B2) (A1) (A1) (B1) (A2) (A1)
                 (A1) (B2) (A1) (A2) (A1) (B1) (B2) (B2) (A1) (A2)
                 (B1) (A1) (B2) (A1) (B2) (A1) (B1) (B2) (A1) (B1)
                 (B2) (A1) (A2) (B2) (B1) (A1) (B2) (A2) (B1) (A1)
                 (A1) (B2) (A2) (B1) (B2) (A1) (A1) (B2) (A1) (A1)
                 (B1) (B2) (A1) (A1) (B2) (A1)
 Harris functional with IExCor= 1009 diagonalized for initial guess.
 ExpMin= 4.38D-02 ExpMax= 1.06D+05 ExpMxC= 3.62D+03 IAcc=2 IRadAn=         0 AccDes= 0.00D+00
 HarFok:  IExCor= 1009 AccDes= 0.00D+00 IRadAn=         0 IDoV= 1
 ScaDFX=  1.000000  1.000000  1.000000  1.000000
 FoFCou: FMM=F IPFlag=           0 FMFlag=      100000 FMFlg1=           0
         NFxFlg=           0 DoJE=T BraDBF=F KetDBF=T FulRan=T
         Omega=  0.000000  0.000000  1.000000  0.000000  0.000000 ICntrl=     500 IOpCl=  0
         NMat0=    1 NMatS0=    1 NMatT0=    0 NMatD0=    1 NMtDS0=    0 NMtDT0=    0
         I1Cent=           4 NGrid=           0.
 Petite list used in FoFCou.
 Requested convergence on RMS density matrix=1.00D-08 within 128 cycles.
 Requested convergence on MAX density matrix=1.00D-06.
 Requested convergence on             energy=1.00D-06.
 No special actions if energy rises.
 Keep R1 ints in memory in canonical form, NReq=16204826.
 Error on total polarization charges =  0.03455
 SCF Done:  E(RM062X) =  -648.907272542     A.U. after   12 cycles
             Convg  =    0.7383D-08             -V/T =  2.0030
 SMD-CDS (non-electrostatic) energy             (kcal/mol) =       3.11
 (included in total energy above)
 D1PCM: PCM CHGder 1st derivatives, ID1Alg=3 FixD1E=F DoIter=F DoCFld=F I1PDM=0.
 Calling FoFJK, ICntrl=      2127 FMM=F ISym2X=1 I1Cent= 0 IOpClX= 0 NMat=1 NMatS=1 NMatT=0.
 ***** Axes restored to original set *****
 -------------------------------------------------------------------
 Center     Atomic                   Forces (Hartrees/Bohr)
 Number     Number              X              Y              Z
 -------------------------------------------------------------------
      1        6           0.106210154   -0.036090475    0.048984198
      2        8          -0.061372902   -0.049598454   -0.045801761
      3        8          -0.037474290    0.083186977    0.000213365
      4       17          -0.007362961    0.002501952   -0.003395803
 -------------------------------------------------------------------
 Cartesian Forces:  Max     0.106210154 RMS     0.051399949

 GradGradGradGradGradGradGradGradGradGradGradGradGradGradGradGradGradGrad
 Berny optimization.
 Using GEDIIS/GDIIS optimizer.
 Internal  Forces:  Max     0.089874209 RMS     0.049644536
 Search for a local minimum.
 Step number   2 out of a maximum of   20
 All quantities printed in internal units (Hartrees-Bohrs-Radians)
 Mixed Optimization -- RFO/linear search
 Update second derivatives using D2CorX and points    1    2
 DE= -5.35D-02 DEPred=-4.90D-02 R= 1.09D+00
 SS=  1.41D+00  RLast= 3.00D-01 DXNew= 5.0454D-01 9.0000D-01
 Trust test= 1.09D+00 RLast= 3.00D-01 DXMaxT set to 5.05D-01
 The second derivative matrix:
                          R1        R2        R3        A1        A2
           R1           0.36821
           R2          -0.04168   0.36821
           R3           0.04150   0.04150   0.31837
           A1           0.03296   0.03296   0.00551   0.24678
           A2          -0.01648  -0.01648  -0.00275   0.00161   0.24920
           A3          -0.01648  -0.01648  -0.00275   0.00161  -0.00080
           D1           0.00000   0.00000   0.00000   0.00000   0.00000
                          A3        D1
           A3           0.24920
           D1           0.00000   0.00238
 Use linear search instead of GDIIS.
     Eigenvalues ---    0.00238   0.21072   0.25000   0.28299   0.39636
     Eigenvalues ---    0.409891000.00000
 RFO step:  Lambda=-8.86989946D-03 EMin= 2.37799011D-03
 Quartic linear search produced a step of  1.07123.
 Iteration  1 RMS(Cart)=  0.09605566 RMS(Int)=  0.03143574
 Iteration  2 RMS(Cart)=  0.03159477 RMS(Int)=  0.00015117
 Iteration  3 RMS(Cart)=  0.00014265 RMS(Int)=  0.00000002
 Iteration  4 RMS(Cart)=  0.00000002 RMS(Int)=  0.00000000
 ClnCor:  largest displacement from symmetrization is 6.48D-08 for atom     1.
 Variable       Old X    -DE/DX   Delta X   Delta X   Delta X     New X
                                 (Linear)    (Quad)   (Total)
    R1        2.49497  -0.08987  -0.22211  -0.02773  -0.24984   2.24513
    R2        2.49497  -0.08987  -0.22211  -0.02773  -0.24984   2.24513
    R3        3.29467   0.00849  -0.03347   0.12700   0.09352   3.38819
    A1        2.13944   0.02614   0.04825   0.10256   0.15082   2.29026
    A2        2.07187  -0.01307  -0.02413  -0.05128  -0.07541   1.99646
    A3        2.07187  -0.01307  -0.02413  -0.05128  -0.07541   1.99646
    D1        3.14159   0.00000   0.00000   0.00000   0.00000   3.14159
         Item               Value     Threshold  Converged?
 Maximum Force            0.089874     0.000450     NO 
 RMS     Force            0.049645     0.000300     NO 
 Maximum Displacement     0.166767     0.001800     NO 
 RMS     Displacement     0.117119     0.001200     NO 
 Predicted change in Energy=-3.120829D-02
 GradGradGradGradGradGradGradGradGradGradGradGradGradGradGradGradGradGrad

                          Input orientation:                          
 ---------------------------------------------------------------------
 Center     Atomic      Atomic             Coordinates (Angstroms)
 Number     Number       Type             X           Y           Z
 ---------------------------------------------------------------------
      1          6           0        0.040408    1.289274    0.048200
      2          8           0        0.647501    2.152555    0.593813
      3          8           0        0.284688    0.136693   -0.104758
      4         17           0       -1.515350    1.817924   -0.669316
 ---------------------------------------------------------------------
                    Distance matrix (angstroms):
                    1          2          3          4
     1  C    0.000000
     2  O    1.188070   0.000000
     3  O    1.188070   2.164101   0.000000
     4  Cl   1.792954   2.526935   2.526935   0.000000
 Stoichiometry    CClO2(1-)
 Framework group  C2V[C2(CCl),SGV(O2)]
 Deg. of freedom     3
 Full point group                 C2V     NOp   4
 Largest Abelian subgroup         C2V     NOp   4
 Largest concise Abelian subgroup C2      NOp   2
                         Standard orientation:                         
 ---------------------------------------------------------------------
 Center     Atomic      Atomic             Coordinates (Angstroms)
 Number     Number       Type             X           Y           Z
 ---------------------------------------------------------------------
      1          6           0        0.000000    0.000000   -0.580277
      2          8           0        0.000000    1.082050   -1.070865
      3          8           0        0.000000   -1.082050   -1.070865
      4         17           0        0.000000    0.000000    1.212677
 ---------------------------------------------------------------------
 Rotational constants (GHZ):     13.4930587      5.4853829      3.8999300
 Standard basis: 6-311+G(d,p) (5D, 7F)
 There are    42 symmetry adapted basis functions of A1  symmetry.
 There are     8 symmetry adapted basis functions of A2  symmetry.
 There are    18 symmetry adapted basis functions of B1  symmetry.
 There are    28 symmetry adapted basis functions of B2  symmetry.
 Integral buffers will be    262144 words long.
 Raffenetti 2 integral format.
 Two-electron integral symmetry is turned on.
    96 basis functions,   161 primitive gaussians,   100 cartesian basis functions
    20 alpha electrons       20 beta electrons
       nuclear repulsion energy       145.4742487990 Hartrees.
 NAtoms=    4 NActive=    4 NUniq=    3 SFac= 1.33D+00 NAtFMM=   80 NAOKFM=F Big=F
 ------------------------------------------------------------------------------
 Polarizable Continuum Model (PCM)
 =================================
 Model                : PCM.
 Atomic radii         : SMD-Coulomb.
 Polarization charges : Total charges.
 Charge compensation  : None.
 Solution method      : Matrix inversion.
 Cavity type          : VdW (van der Waals Surface) (Alpha=1.000).
 Cavity algorithm     : GePol (No added spheres)
                        Default sphere list used, NSphG=    4.
                        Lebedev-Laikov grids with approx.  5.0 points / Ang**2.
                        Smoothing algorithm: Karplus/York (Gamma=1.0000).
                        Polarization charges: spherical gaussians, with
                                              point-specific exponents (IZeta= 3).
                        Self-potential: point-specific (ISelfS= 7).
                        Self-field    : sphere-specific E.n sum rule (ISelfD= 2).
 1st derivatives      : Analytical E(r).r(x)/FMM algorithm (CHGder, D1EAlg=3).
                        Cavity 1st derivative terms included.
 Solvent              : Water, Eps=  78.355300 Eps(inf)=   1.777849
 ------------------------------------------------------------------------------
 Spheres list:
 ISph  on   Nord    Re0     Alpha      Xe            Ye            Ze
    1   C      1    1.850   1.000      0.000000      0.000000     -0.580277
    2   O      2    1.520   1.000      0.000000      1.082050     -1.070865
    3   O      3    1.520   1.000      0.000000     -1.082050     -1.070865
    4  Cl      4    2.380   1.000      0.000000      0.000000      1.212677
 ------------------------------------------------------------------------------
 ------------------------------------------------------------------------------
 Atomic radii for non-electrostatic terms: SMD-CDS.
 ------------------------------------------------------------------------------
 Nuclear repulsion after PCM non-electrostatic terms =      145.4805462520 Hartrees.
 One-electron integrals computed using PRISM.
 NBasis=    96 RedAO= T  NBF=    42     8    18    28
 NBsUse=    96 1.00D-06 NBFU=    42     8    18    28
 Initial guess read from the read-write file.
 B after Tr=     0.000000    0.000000    0.000000
         Rot=    1.000000    0.000000    0.000000    0.000000 Ang=   0.00 deg.
 Initial guess orbital symmetries:
       Occupied  (A1) (B2) (A1) (A1) (A1) (A1) (B1) (B2) (A1) (B2)
                 (A1) (A1) (A1) (B2) (B1) (B2) (B1) (A1) (A2) (B2)
       Virtual   (A1) (B1) (A1) (B2) (B1) (A1) (B2) (B1) (A1) (A1)
                 (A1) (A2) (B2) (A1) (B2) (B1) (A1) (B2) (B2) (A1)
                 (A1) (B1) (B2) (B1) (A1) (B2) (A1) (B1) (A2) (A1)
                 (A1) (A1) (B2) (A2) (A1) (B2) (B1) (A1) (B2) (A2)
                 (B1) (A1) (B2) (A1) (A1) (B2) (B1) (B2) (A1) (B1)
                 (B2) (A2) (B1) (A1) (B2) (A1) (B2) (B1) (A2) (A1)
                 (A1) (B2) (A2) (B1) (B2) (A1) (A1) (B2) (A1) (A1)
                 (B1) (B2) (A1) (A1) (B2) (A1)
 Harris functional with IExCor= 1009 diagonalized for initial guess.
 ExpMin= 4.38D-02 ExpMax= 1.06D+05 ExpMxC= 3.62D+03 IAcc=2 IRadAn=         0 AccDes= 0.00D+00
 HarFok:  IExCor= 1009 AccDes= 0.00D+00 IRadAn=         0 IDoV= 1
 ScaDFX=  1.000000  1.000000  1.000000  1.000000
 FoFCou: FMM=F IPFlag=           0 FMFlag=      100000 FMFlg1=           0
         NFxFlg=           0 DoJE=T BraDBF=F KetDBF=T FulRan=T
         Omega=  0.000000  0.000000  1.000000  0.000000  0.000000 ICntrl=     500 IOpCl=  0
         NMat0=    1 NMatS0=    1 NMatT0=    0 NMatD0=    1 NMtDS0=    0 NMtDT0=    0
         I1Cent=           4 NGrid=           0.
 Petite list used in FoFCou.
 Requested convergence on RMS density matrix=1.00D-08 within 128 cycles.
 Requested convergence on MAX density matrix=1.00D-06.
 Requested convergence on             energy=1.00D-06.
 No special actions if energy rises.
 Keep R1 ints in memory in canonical form, NReq=16191661.
 Error on total polarization charges =  0.03156
 SCF Done:  E(RM062X) =  -648.924174963     A.U. after   12 cycles
             Convg  =    0.3038D-08             -V/T =  2.0017
 SMD-CDS (non-electrostatic) energy             (kcal/mol) =       3.95
 (included in total energy above)
 D1PCM: PCM CHGder 1st derivatives, ID1Alg=3 FixD1E=F DoIter=F DoCFld=F I1PDM=0.
 Calling FoFJK, ICntrl=      2127 FMM=F ISym2X=1 I1Cent= 0 IOpClX= 0 NMat=1 NMatS=1 NMatT=0.
 ***** Axes restored to original set *****
 -------------------------------------------------------------------
 Center     Atomic                   Forces (Hartrees/Bohr)
 Number     Number              X              Y              Z
 -------------------------------------------------------------------
      1        6          -0.007168441    0.002435854   -0.003306090
      2        8           0.030887360    0.058811370    0.031457169
      3        8           0.007377537   -0.071813877   -0.013809372
      4       17          -0.031096456    0.010566653   -0.014341708
 -------------------------------------------------------------------
 Cartesian Forces:  Max     0.071813877 RMS     0.031829360

 GradGradGradGradGradGradGradGradGradGradGradGradGradGradGradGradGradGrad
 Berny optimization.
 Using GEDIIS/GDIIS optimizer.
 Internal  Forces:  Max     0.072963462 RMS     0.041740870
 Search for a local minimum.
 Step number   3 out of a maximum of   20
 All quantities printed in internal units (Hartrees-Bohrs-Radians)
 Mixed Optimization -- RFO/linear search
 Update second derivatives using D2CorX and points    2    3
 DE= -1.69D-02 DEPred=-3.12D-02 R= 5.42D-01
 SS=  1.41D+00  RLast= 4.10D-01 DXNew= 8.4853D-01 1.2286D+00
 Trust test= 5.42D-01 RLast= 4.10D-01 DXMaxT set to 8.49D-01
 The second derivative matrix:
                          R1        R2        R3        A1        A2
           R1           0.57180
           R2           0.16191   0.57180
           R3           0.11370   0.11370   0.32493
           A1           0.04350   0.04350  -0.00410   0.23798
           A2          -0.02175  -0.02175   0.00205   0.00601   0.24699
           A3          -0.02175  -0.02175   0.00205   0.00601  -0.00301
           D1           0.00000   0.00000   0.00000   0.00000   0.00000
                          A3        D1
           A3           0.24699
           D1           0.00000   0.00238
 Use linear search instead of GDIIS.
     Eigenvalues ---    0.00238   0.20924   0.25000   0.28342   0.40989
     Eigenvalues ---    0.797951000.00000
 RFO step:  Lambda=-6.83645796D-03 EMin= 2.37799011D-03
 Quartic linear search produced a step of -0.27526.
 Iteration  1 RMS(Cart)=  0.05159734 RMS(Int)=  0.00096593
 Iteration  2 RMS(Cart)=  0.00085243 RMS(Int)=  0.00000059
 Iteration  3 RMS(Cart)=  0.00000063 RMS(Int)=  0.00000000
 ClnCor:  largest displacement from symmetrization is 1.00D-08 for atom     1.
 Variable       Old X    -DE/DX   Delta X   Delta X   Delta X     New X
                                 (Linear)    (Quad)   (Total)
    R1        2.24513   0.07296   0.06877  -0.00179   0.06698   2.31211
    R2        2.24513   0.07296   0.06877  -0.00179   0.06698   2.31211
    R3        3.38819   0.03584  -0.02574   0.10122   0.07548   3.46367
    A1        2.29026   0.01328  -0.04151   0.10147   0.05996   2.35022
    A2        1.99646  -0.00664   0.02076  -0.05074  -0.02998   1.96648
    A3        1.99646  -0.00664   0.02076  -0.05074  -0.02998   1.96648
    D1        3.14159   0.00000   0.00000   0.00000   0.00000   3.14159
         Item               Value     Threshold  Converged?
 Maximum Force            0.072963     0.000450     NO 
 RMS     Force            0.041741     0.000300     NO 
 Maximum Displacement     0.082876     0.001800     NO 
 RMS     Displacement     0.051519     0.001200     NO 
 Predicted change in Energy=-7.184830D-03
 GradGradGradGradGradGradGradGradGradGradGradGradGradGradGradGradGradGrad

                          Input orientation:                          
 ---------------------------------------------------------------------
 Center     Atomic      Atomic             Coordinates (Angstroms)
 Number     Number       Type             X           Y           Z
 ---------------------------------------------------------------------
      1          6           0        0.057312    1.283529    0.055997
      2          8           0        0.655792    2.196122    0.609156
      3          8           0        0.277245    0.092837   -0.119711
      4         17           0       -1.533103    1.823956   -0.677504
 ---------------------------------------------------------------------
                    Distance matrix (angstroms):
                    1          2          3          4
     1  C    0.000000
     2  O    1.223516   0.000000
     3  O    1.223516   2.257953   0.000000
     4  Cl   1.832895   2.566177   2.566177   0.000000
 Stoichiometry    CClO2(1-)
 Framework group  C2V[C2(CCl),SGV(O2)]
 Deg. of freedom     3
 Full point group                 C2V     NOp   4
 Largest Abelian subgroup         C2V     NOp   4
 Largest concise Abelian subgroup C2      NOp   2
                         Standard orientation:                         
 ---------------------------------------------------------------------
 Center     Atomic      Atomic             Coordinates (Angstroms)
 Number     Number       Type             X           Y           Z
 ---------------------------------------------------------------------
      1          6           0        0.000000    0.000000   -0.605479
      2          8           0        0.000000    1.128977   -1.077075
      3          8           0        0.000000   -1.128977   -1.077075
      4         17           0        0.000000    0.000000    1.227416
 ---------------------------------------------------------------------
 Rotational constants (GHZ):     12.3946793      5.3664145      3.7449825
 Standard basis: 6-311+G(d,p) (5D, 7F)
 There are    42 symmetry adapted basis functions of A1  symmetry.
 There are     8 symmetry adapted basis functions of A2  symmetry.
 There are    18 symmetry adapted basis functions of B1  symmetry.
 There are    28 symmetry adapted basis functions of B2  symmetry.
 Integral buffers will be    262144 words long.
 Raffenetti 2 integral format.
 Two-electron integral symmetry is turned on.
    96 basis functions,   161 primitive gaussians,   100 cartesian basis functions
    20 alpha electrons       20 beta electrons
       nuclear repulsion energy       142.0579191600 Hartrees.
 NAtoms=    4 NActive=    4 NUniq=    3 SFac= 1.33D+00 NAtFMM=   80 NAOKFM=F Big=F
 ------------------------------------------------------------------------------
 Polarizable Continuum Model (PCM)
 =================================
 Model                : PCM.
 Atomic radii         : SMD-Coulomb.
 Polarization charges : Total charges.
 Charge compensation  : None.
 Solution method      : Matrix inversion.
 Cavity type          : VdW (van der Waals Surface) (Alpha=1.000).
 Cavity algorithm     : GePol (No added spheres)
                        Default sphere list used, NSphG=    4.
                        Lebedev-Laikov grids with approx.  5.0 points / Ang**2.
                        Smoothing algorithm: Karplus/York (Gamma=1.0000).
                        Polarization charges: spherical gaussians, with
                                              point-specific exponents (IZeta= 3).
                        Self-potential: point-specific (ISelfS= 7).
                        Self-field    : sphere-specific E.n sum rule (ISelfD= 2).
 1st derivatives      : Analytical E(r).r(x)/FMM algorithm (CHGder, D1EAlg=3).
                        Cavity 1st derivative terms included.
 Solvent              : Water, Eps=  78.355300 Eps(inf)=   1.777849
 ------------------------------------------------------------------------------
 Spheres list:
 ISph  on   Nord    Re0     Alpha      Xe            Ye            Ze
    1   C      1    1.850   1.000      0.000000      0.000000     -0.605479
    2   O      2    1.520   1.000      0.000000      1.128977     -1.077075
    3   O      3    1.520   1.000      0.000000     -1.128977     -1.077075
    4  Cl      4    2.380   1.000      0.000000      0.000000      1.227416
 ------------------------------------------------------------------------------
 ------------------------------------------------------------------------------
 Atomic radii for non-electrostatic terms: SMD-CDS.
 ------------------------------------------------------------------------------
 Nuclear repulsion after PCM non-electrostatic terms =      142.0641243306 Hartrees.
 One-electron integrals computed using PRISM.
 NBasis=    96 RedAO= T  NBF=    42     8    18    28
 NBsUse=    96 1.00D-06 NBFU=    42     8    18    28
 Initial guess read from the read-write file.
 B after Tr=     0.000000    0.000000    0.000000
         Rot=    1.000000    0.000000    0.000000    0.000000 Ang=   0.00 deg.
 Initial guess orbital symmetries:
       Occupied  (A1) (B2) (A1) (A1) (A1) (A1) (B1) (B2) (A1) (B2)
                 (A1) (A1) (A1) (B1) (B2) (B2) (B1) (A2) (A1) (B2)
       Virtual   (A1) (A1) (B2) (B1) (A1) (B1) (B2) (B1) (A1) (A1)
                 (A1) (A2) (B2) (A1) (B2) (B1) (A1) (B2) (B2) (A1)
                 (B1) (A1) (B2) (B1) (A1) (B2) (A1) (B1) (A1) (A2)
                 (A1) (A1) (A2) (B2) (B2) (B1) (A1) (A1) (B2) (B1)
                 (A2) (A1) (B2) (A1) (B2) (A1) (B1) (B2) (A1) (B1)
                 (B2) (A2) (B1) (A1) (A1) (B2) (B1) (B2) (A2) (A1)
                 (A1) (B2) (A2) (B1) (B2) (A1) (A1) (B2) (A1) (A1)
                 (B1) (B2) (A1) (A1) (B2) (A1)
 Harris functional with IExCor= 1009 diagonalized for initial guess.
 ExpMin= 4.38D-02 ExpMax= 1.06D+05 ExpMxC= 3.62D+03 IAcc=2 IRadAn=         0 AccDes= 0.00D+00
 HarFok:  IExCor= 1009 AccDes= 0.00D+00 IRadAn=         0 IDoV= 1
 ScaDFX=  1.000000  1.000000  1.000000  1.000000
 FoFCou: FMM=F IPFlag=           0 FMFlag=      100000 FMFlg1=           0
         NFxFlg=           0 DoJE=T BraDBF=F KetDBF=T FulRan=T
         Omega=  0.000000  0.000000  1.000000  0.000000  0.000000 ICntrl=     500 IOpCl=  0
         NMat0=    1 NMatS0=    1 NMatT0=    0 NMatD0=    1 NMtDS0=    0 NMtDT0=    0
         I1Cent=           4 NGrid=           0.
 Petite list used in FoFCou.
 Requested convergence on RMS density matrix=1.00D-08 within 128 cycles.
 Requested convergence on MAX density matrix=1.00D-06.
 Requested convergence on             energy=1.00D-06.
 No special actions if energy rises.
 Keep R1 ints in memory in canonical form, NReq=16213509.
 Error on total polarization charges =  0.03160
 SCF Done:  E(RM062X) =  -648.931242728     A.U. after   11 cycles
             Convg  =    0.2582D-08             -V/T =  2.0022
 SMD-CDS (non-electrostatic) energy             (kcal/mol) =       3.89
 (included in total energy above)
 D1PCM: PCM CHGder 1st derivatives, ID1Alg=3 FixD1E=F DoIter=F DoCFld=F I1PDM=0.
 Calling FoFJK, ICntrl=      2127 FMM=F ISym2X=1 I1Cent= 0 IOpClX= 0 NMat=1 NMatS=1 NMatT=0.
 ***** Axes restored to original set *****
 -------------------------------------------------------------------
 Center     Atomic                   Forces (Hartrees/Bohr)
 Number     Number              X              Y              Z
 -------------------------------------------------------------------
      1        6           0.013642782   -0.004635851    0.006292061
      2        8           0.001771558   -0.002585935    0.000324343
      3        8           0.002444542    0.001153294    0.001620126
      4       17          -0.017858882    0.006068493   -0.008236529
 -------------------------------------------------------------------
 Cartesian Forces:  Max     0.017858882 RMS     0.007586582

 GradGradGradGradGradGradGradGradGradGradGradGradGradGradGradGradGradGrad
 Berny optimization.
 Using GEDIIS/GDIIS optimizer.
 Internal  Forces:  Max     0.020581707 RMS     0.008086034
 Search for a local minimum.
 Step number   4 out of a maximum of   20
 All quantities printed in internal units (Hartrees-Bohrs-Radians)
 Mixed Optimization -- RFO/linear search
 Update second derivatives using D2CorX and points    2    3    4
 DE= -7.07D-03 DEPred=-7.18D-03 R= 9.84D-01
 SS=  1.41D+00  RLast= 1.42D-01 DXNew= 1.4270D+00 4.2493D-01
 Trust test= 9.84D-01 RLast= 1.42D-01 DXMaxT set to 8.49D-01
 The second derivative matrix:
                          R1        R2        R3        A1        A2
           R1           0.69102
           R2           0.28113   0.69102
           R3           0.04331   0.04331   0.19610
           A1           0.06107   0.06107  -0.05946   0.24157
           A2          -0.03054  -0.03054   0.02973   0.00421   0.24789
           A3          -0.03054  -0.03054   0.02973   0.00421  -0.00211
           D1           0.00000   0.00000   0.00000   0.00000   0.00000
                          A3        D1
           A3           0.24789
           D1           0.00000   0.00238
 Use linear search instead of GDIIS.
     Eigenvalues ---    0.00238   0.12581   0.25000   0.28949   0.40989
     Eigenvalues ---    0.990311000.00000
 RFO step:  Lambda=-2.27894425D-03 EMin= 2.37799011D-03
 Quartic linear search produced a step of  0.09291.
 Iteration  1 RMS(Cart)=  0.03460537 RMS(Int)=  0.00004185
 Iteration  2 RMS(Cart)=  0.00004498 RMS(Int)=  0.00000000
 Iteration  3 RMS(Cart)=  0.00000000 RMS(Int)=  0.00000000
 ClnCor:  largest displacement from symmetrization is 2.58D-10 for atom     1.
 Variable       Old X    -DE/DX   Delta X   Delta X   Delta X     New X
                                 (Linear)    (Quad)   (Total)
    R1        2.31211  -0.00092   0.00622  -0.01321  -0.00699   2.30512
    R2        2.31211  -0.00092   0.00622  -0.01321  -0.00699   2.30512
    R3        3.46367   0.02058   0.00701   0.10983   0.11684   3.58051
    A1        2.35022  -0.00465   0.00557   0.00968   0.01525   2.36547
    A2        1.96648   0.00232  -0.00279  -0.00484  -0.00763   1.95886
    A3        1.96648   0.00232  -0.00279  -0.00484  -0.00763   1.95886
    D1        3.14159   0.00000   0.00000   0.00000   0.00000   3.14159
         Item               Value     Threshold  Converged?
 Maximum Force            0.020582     0.000450     NO 
 RMS     Force            0.008086     0.000300     NO 
 Maximum Displacement     0.067820     0.001800     NO 
 RMS     Displacement     0.034609     0.001200     NO 
 Predicted change in Energy=-1.132996D-03
 GradGradGradGradGradGradGradGradGradGradGradGradGradGradGradGradGradGrad

                          Input orientation:                          
 ---------------------------------------------------------------------
 Center     Atomic      Atomic             Coordinates (Angstroms)
 Number     Number       Type             X           Y           Z
 ---------------------------------------------------------------------
      1          6           0        0.075073    1.277494    0.064188
      2          8           0        0.664880    2.193171    0.613382
      3          8           0        0.286286    0.089628   -0.115575
      4         17           0       -1.568992    1.836151   -0.694056
 ---------------------------------------------------------------------
                    Distance matrix (angstroms):
                    1          2          3          4
     1  C    0.000000
     2  O    1.219816   0.000000
     3  O    1.219816   2.258230   0.000000
     4  Cl   1.894724   2.612860   2.612860   0.000000
 Stoichiometry    CClO2(1-)
 Framework group  C2V[C2(CCl),SGV(O2)]
 Deg. of freedom     3
 Full point group                 C2V     NOp   4
 Largest Abelian subgroup         C2V     NOp   4
 Largest concise Abelian subgroup C2      NOp   2
                         Standard orientation:                         
 ---------------------------------------------------------------------
 Center     Atomic      Atomic             Coordinates (Angstroms)
 Number     Number       Type             X           Y           Z
 ---------------------------------------------------------------------
      1          6           0        0.000000    0.000000   -0.636542
      2          8           0        0.000000    1.129115   -1.098115
      3          8           0        0.000000   -1.129115   -1.098115
      4         17           0        0.000000    0.000000    1.258182
 ---------------------------------------------------------------------
 Rotational constants (GHZ):     12.3916405      5.1164821      3.6212682
 Standard basis: 6-311+G(d,p) (5D, 7F)
 There are    42 symmetry adapted basis functions of A1  symmetry.
 There are     8 symmetry adapted basis functions of A2  symmetry.
 There are    18 symmetry adapted basis functions of B1  symmetry.
 There are    28 symmetry adapted basis functions of B2  symmetry.
 Integral buffers will be    262144 words long.
 Raffenetti 2 integral format.
 Two-electron integral symmetry is turned on.
    96 basis functions,   161 primitive gaussians,   100 cartesian basis functions
    20 alpha electrons       20 beta electrons
       nuclear repulsion energy       140.2189138513 Hartrees.
 NAtoms=    4 NActive=    4 NUniq=    3 SFac= 1.33D+00 NAtFMM=   80 NAOKFM=F Big=F
 ------------------------------------------------------------------------------
 Polarizable Continuum Model (PCM)
 =================================
 Model                : PCM.
 Atomic radii         : SMD-Coulomb.
 Polarization charges : Total charges.
 Charge compensation  : None.
 Solution method      : Matrix inversion.
 Cavity type          : VdW (van der Waals Surface) (Alpha=1.000).
 Cavity algorithm     : GePol (No added spheres)
                        Default sphere list used, NSphG=    4.
                        Lebedev-Laikov grids with approx.  5.0 points / Ang**2.
                        Smoothing algorithm: Karplus/York (Gamma=1.0000).
                        Polarization charges: spherical gaussians, with
                                              point-specific exponents (IZeta= 3).
                        Self-potential: point-specific (ISelfS= 7).
                        Self-field    : sphere-specific E.n sum rule (ISelfD= 2).
 1st derivatives      : Analytical E(r).r(x)/FMM algorithm (CHGder, D1EAlg=3).
                        Cavity 1st derivative terms included.
 Solvent              : Water, Eps=  78.355300 Eps(inf)=   1.777849
 ------------------------------------------------------------------------------
 Spheres list:
 ISph  on   Nord    Re0     Alpha      Xe            Ye            Ze
    1   C      1    1.850   1.000      0.000000      0.000000     -0.636542
    2   O      2    1.520   1.000      0.000000      1.129115     -1.098115
    3   O      3    1.520   1.000      0.000000     -1.129115     -1.098115
    4  Cl      4    2.380   1.000      0.000000      0.000000      1.258182
 ------------------------------------------------------------------------------
 ------------------------------------------------------------------------------
 Atomic radii for non-electrostatic terms: SMD-CDS.
 ------------------------------------------------------------------------------
 Nuclear repulsion after PCM non-electrostatic terms =      140.2252120783 Hartrees.
 One-electron integrals computed using PRISM.
 NBasis=    96 RedAO= T  NBF=    42     8    18    28
 NBsUse=    96 1.00D-06 NBFU=    42     8    18    28
 Initial guess read from the read-write file.
 B after Tr=     0.000000    0.000000    0.000000
         Rot=    1.000000    0.000000    0.000000    0.000000 Ang=   0.00 deg.
 Initial guess orbital symmetries:
       Occupied  (A1) (B2) (A1) (A1) (A1) (A1) (B1) (B2) (A1) (B2)
                 (A1) (A1) (A1) (B2) (B1) (B2) (B1) (A2) (A1) (B2)
       Virtual   (A1) (A1) (B2) (B1) (A1) (B1) (B2) (B1) (A1) (A1)
                 (A1) (A2) (B2) (A1) (B2) (B1) (A1) (B2) (B2) (A1)
                 (A1) (B1) (B2) (B1) (A1) (B2) (A1) (B1) (A1) (A2)
                 (A1) (A1) (A2) (B2) (B2) (A1) (B1) (A1) (B2) (B1)
                 (A2) (A1) (B2) (A1) (B2) (A1) (B1) (B2) (A1) (B1)
                 (A2) (B2) (B1) (A1) (A1) (B2) (B1) (B2) (A2) (A1)
                 (A1) (B2) (A2) (B1) (B2) (A1) (A1) (B2) (A1) (A1)
                 (B1) (B2) (A1) (A1) (B2) (A1)
 Harris functional with IExCor= 1009 diagonalized for initial guess.
 ExpMin= 4.38D-02 ExpMax= 1.06D+05 ExpMxC= 3.62D+03 IAcc=2 IRadAn=         0 AccDes= 0.00D+00
 HarFok:  IExCor= 1009 AccDes= 0.00D+00 IRadAn=         0 IDoV= 1
 ScaDFX=  1.000000  1.000000  1.000000  1.000000
 FoFCou: FMM=F IPFlag=           0 FMFlag=      100000 FMFlg1=           0
         NFxFlg=           0 DoJE=T BraDBF=F KetDBF=T FulRan=T
         Omega=  0.000000  0.000000  1.000000  0.000000  0.000000 ICntrl=     500 IOpCl=  0
         NMat0=    1 NMatS0=    1 NMatT0=    0 NMatD0=    1 NMtDS0=    0 NMtDT0=    0
         I1Cent=           4 NGrid=           0.
 Petite list used in FoFCou.
 Requested convergence on RMS density matrix=1.00D-08 within 128 cycles.
 Requested convergence on MAX density matrix=1.00D-06.
 Requested convergence on             energy=1.00D-06.
 No special actions if energy rises.
 Keep R1 ints in memory in canonical form, NReq=16210494.
 Error on total polarization charges =  0.03106
 SCF Done:  E(RM062X) =  -648.932918698     A.U. after   11 cycles
             Convg  =    0.1402D-08             -V/T =  2.0023
 SMD-CDS (non-electrostatic) energy             (kcal/mol) =       3.95
 (included in total energy above)
 D1PCM: PCM CHGder 1st derivatives, ID1Alg=3 FixD1E=F DoIter=F DoCFld=F I1PDM=0.
 Calling FoFJK, ICntrl=      2127 FMM=F ISym2X=1 I1Cent= 0 IOpClX= 0 NMat=1 NMatS=1 NMatT=0.
 ***** Axes restored to original set *****
 -------------------------------------------------------------------
 Center     Atomic                   Forces (Hartrees/Bohr)
 Number     Number              X              Y              Z
 -------------------------------------------------------------------
      1        6           0.011473252   -0.003898640    0.005291472
      2        8          -0.002681514   -0.002863808   -0.002174209
      3        8          -0.001400988    0.004251052    0.000291356
      4       17          -0.007390750    0.002511395   -0.003408619
 -------------------------------------------------------------------
 Cartesian Forces:  Max     0.011473252 RMS     0.004895761

 GradGradGradGradGradGradGradGradGradGradGradGradGradGradGradGradGradGrad
 Berny optimization.
 Using GEDIIS/GDIIS optimizer.
 Internal  Forces:  Max     0.008517569 RMS     0.004028729
 Search for a local minimum.
 Step number   5 out of a maximum of   20
 All quantities printed in internal units (Hartrees-Bohrs-Radians)
 Mixed Optimization -- RFO/linear search
 Update second derivatives using D2CorX and points    2    3    4    5
 DE= -1.68D-03 DEPred=-1.13D-03 R= 1.48D+00
 SS=  1.41D+00  RLast= 1.19D-01 DXNew= 1.4270D+00 3.5621D-01
 Trust test= 1.48D+00 RLast= 1.19D-01 DXMaxT set to 8.49D-01
 The second derivative matrix:
                          R1        R2        R3        A1        A2
           R1           0.68764
           R2           0.27775   0.68764
           R3           0.07829   0.07829   0.12806
           A1           0.04860   0.04860  -0.07883   0.26330
           A2          -0.02430  -0.02430   0.03942  -0.00665   0.25333
           A3          -0.02430  -0.02430   0.03942  -0.00665   0.00333
           D1           0.00000   0.00000   0.00000   0.00000   0.00000
                          A3        D1
           A3           0.25333
           D1           0.00000   0.00238
 Use linear search instead of GDIIS.
     Eigenvalues ---    0.00238   0.05850   0.25000   0.31795   0.40989
     Eigenvalues ---    0.986961000.00000
 RFO step:  Lambda=-7.09314497D-04 EMin= 2.37799011D-03
 Quartic linear search produced a step of  1.10867.
 Iteration  1 RMS(Cart)=  0.04620701 RMS(Int)=  0.00069881
 Iteration  2 RMS(Cart)=  0.00073593 RMS(Int)=  0.00000016
 Iteration  3 RMS(Cart)=  0.00000014 RMS(Int)=  0.00000001
 ClnCor:  largest displacement from symmetrization is 9.51D-09 for atom     1.
 Variable       Old X    -DE/DX   Delta X   Delta X   Delta X     New X
                                 (Linear)    (Quad)   (Total)
    R1        2.30512  -0.00443  -0.00775  -0.01574  -0.02349   2.28163
    R2        2.30512  -0.00443  -0.00775  -0.01574  -0.02349   2.28163
    R3        3.58051   0.00852   0.12954   0.04249   0.17203   3.75254
    A1        2.36547   0.00113   0.01691   0.04695   0.06386   2.42933
    A2        1.95886  -0.00056  -0.00845  -0.02348  -0.03193   1.92693
    A3        1.95886  -0.00056  -0.00845  -0.02348  -0.03193   1.92693
    D1        3.14159   0.00000   0.00000   0.00000   0.00000   3.14159
         Item               Value     Threshold  Converged?
 Maximum Force            0.008518     0.000450     NO 
 RMS     Force            0.004029     0.000300     NO 
 Maximum Displacement     0.078654     0.001800     NO 
 RMS     Displacement     0.046179     0.001200     NO 
 Predicted change in Energy=-6.782711D-04
 GradGradGradGradGradGradGradGradGradGradGradGradGradGradGradGradGradGrad

                          Input orientation:                          
 ---------------------------------------------------------------------
 Center     Atomic      Atomic             Coordinates (Angstroms)
 Number     Number       Type             X           Y           Z
 ---------------------------------------------------------------------
      1          6           0        0.112441    1.264796    0.081422
      2          8           0        0.667427    2.194786    0.615173
      3          8           0        0.287992    0.086568   -0.115404
      4         17           0       -1.610614    1.850295   -0.713252
 ---------------------------------------------------------------------
                    Distance matrix (angstroms):
                    1          2          3          4
     1  C    0.000000
     2  O    1.207386   0.000000
     3  O    1.207386   2.263250   0.000000
     4  Cl   1.985758   2.659485   2.659485   0.000000
 Stoichiometry    CClO2(1-)
 Framework group  C2V[C2(CCl),SGV(O2)]
 Deg. of freedom     3
 Full point group                 C2V     NOp   4
 Largest Abelian subgroup         C2V     NOp   4
 Largest concise Abelian subgroup C2      NOp   2
                         Standard orientation:                         
 ---------------------------------------------------------------------
 Center     Atomic      Atomic             Coordinates (Angstroms)
 Number     Number       Type             X           Y           Z
 ---------------------------------------------------------------------
      1          6           0        0.000000    0.000000   -0.692886
      2          8           0        0.000000    1.131625   -1.113844
      3          8           0        0.000000   -1.131625   -1.113844
      4         17           0        0.000000    0.000000    1.292872
 ---------------------------------------------------------------------
 Rotational constants (GHZ):     12.3367367      4.8650229      3.4890911
 Standard basis: 6-311+G(d,p) (5D, 7F)
 There are    42 symmetry adapted basis functions of A1  symmetry.
 There are     8 symmetry adapted basis functions of A2  symmetry.
 There are    18 symmetry adapted basis functions of B1  symmetry.
 There are    28 symmetry adapted basis functions of B2  symmetry.
 Integral buffers will be    262144 words long.
 Raffenetti 2 integral format.
 Two-electron integral symmetry is turned on.
    96 basis functions,   161 primitive gaussians,   100 cartesian basis functions
    20 alpha electrons       20 beta electrons
       nuclear repulsion energy       138.3426728646 Hartrees.
 NAtoms=    4 NActive=    4 NUniq=    3 SFac= 1.33D+00 NAtFMM=   80 NAOKFM=F Big=F
 ------------------------------------------------------------------------------
 Polarizable Continuum Model (PCM)
 =================================
 Model                : PCM.
 Atomic radii         : SMD-Coulomb.
 Polarization charges : Total charges.
 Charge compensation  : None.
 Solution method      : Matrix inversion.
 Cavity type          : VdW (van der Waals Surface) (Alpha=1.000).
 Cavity algorithm     : GePol (No added spheres)
                        Default sphere list used, NSphG=    4.
                        Lebedev-Laikov grids with approx.  5.0 points / Ang**2.
                        Smoothing algorithm: Karplus/York (Gamma=1.0000).
                        Polarization charges: spherical gaussians, with
                                              point-specific exponents (IZeta= 3).
                        Self-potential: point-specific (ISelfS= 7).
                        Self-field    : sphere-specific E.n sum rule (ISelfD= 2).
 1st derivatives      : Analytical E(r).r(x)/FMM algorithm (CHGder, D1EAlg=3).
                        Cavity 1st derivative terms included.
 Solvent              : Water, Eps=  78.355300 Eps(inf)=   1.777849
 ------------------------------------------------------------------------------
 Spheres list:
 ISph  on   Nord    Re0     Alpha      Xe            Ye            Ze
    1   C      1    1.850   1.000      0.000000      0.000000     -0.692886
    2   O      2    1.520   1.000      0.000000      1.131625     -1.113844
    3   O      3    1.520   1.000      0.000000     -1.131625     -1.113844
    4  Cl      4    2.380   1.000      0.000000      0.000000      1.292872
 ------------------------------------------------------------------------------
 ------------------------------------------------------------------------------
 Atomic radii for non-electrostatic terms: SMD-CDS.
 ------------------------------------------------------------------------------
 Nuclear repulsion after PCM non-electrostatic terms =      138.3491733858 Hartrees.
 One-electron integrals computed using PRISM.
 NBasis=    96 RedAO= T  NBF=    42     8    18    28
 NBsUse=    96 1.00D-06 NBFU=    42     8    18    28
 Initial guess read from the read-write file.
 B after Tr=     0.000000    0.000000    0.000000
         Rot=    1.000000    0.000000    0.000000    0.000000 Ang=   0.00 deg.
 Initial guess orbital symmetries:
       Occupied  (A1) (B2) (A1) (A1) (A1) (A1) (B1) (B2) (A1) (B2)
                 (A1) (A1) (A1) (B2) (B1) (B2) (A2) (B1) (A1) (B2)
       Virtual   (A1) (A1) (B2) (B1) (A1) (B1) (B2) (B1) (A1) (A1)
                 (A1) (A2) (B2) (A1) (B2) (B1) (A1) (B2) (B2) (A1)
                 (A1) (B1) (B2) (B1) (A1) (B2) (A1) (A1) (B1) (A2)
                 (A1) (A1) (A2) (B2) (B2) (A1) (B1) (A1) (B2) (B1)
                 (A2) (A1) (B2) (A1) (B2) (A1) (B1) (B2) (A1) (B1)
                 (A2) (B2) (B1) (A1) (A1) (B2) (B1) (B2) (A2) (A1)
                 (A1) (B2) (A2) (B1) (B2) (A1) (A1) (B2) (A1) (A1)
                 (B1) (B2) (A1) (A1) (B2) (A1)
 Harris functional with IExCor= 1009 diagonalized for initial guess.
 ExpMin= 4.38D-02 ExpMax= 1.06D+05 ExpMxC= 3.62D+03 IAcc=2 IRadAn=         0 AccDes= 0.00D+00
 HarFok:  IExCor= 1009 AccDes= 0.00D+00 IRadAn=         0 IDoV= 1
 ScaDFX=  1.000000  1.000000  1.000000  1.000000
 FoFCou: FMM=F IPFlag=           0 FMFlag=      100000 FMFlg1=           0
         NFxFlg=           0 DoJE=T BraDBF=F KetDBF=T FulRan=T
         Omega=  0.000000  0.000000  1.000000  0.000000  0.000000 ICntrl=     500 IOpCl=  0
         NMat0=    1 NMatS0=    1 NMatT0=    0 NMatD0=    1 NMtDS0=    0 NMtDT0=    0
         I1Cent=           4 NGrid=           0.
 Petite list used in FoFCou.
 Requested convergence on RMS density matrix=1.00D-08 within 128 cycles.
 Requested convergence on MAX density matrix=1.00D-06.
 Requested convergence on             energy=1.00D-06.
 No special actions if energy rises.
 Keep R1 ints in memory in canonical form, NReq=16210134.
 Error on total polarization charges =  0.03008
 SCF Done:  E(RM062X) =  -648.934037711     A.U. after   11 cycles
             Convg  =    0.2968D-08             -V/T =  2.0023
 SMD-CDS (non-electrostatic) energy             (kcal/mol) =       4.08
 (included in total energy above)
 D1PCM: PCM CHGder 1st derivatives, ID1Alg=3 FixD1E=F DoIter=F DoCFld=F I1PDM=0.
 Calling FoFJK, ICntrl=      2127 FMM=F ISym2X=1 I1Cent= 0 IOpClX= 0 NMat=1 NMatS=1 NMatT=0.
 ***** Axes restored to original set *****
 -------------------------------------------------------------------
 Center     Atomic                   Forces (Hartrees/Bohr)
 Number     Number              X              Y              Z
 -------------------------------------------------------------------
      1        6           0.004460260   -0.001515608    0.002057075
      2        8          -0.000748236   -0.000013016   -0.000411461
      3        8          -0.000657575    0.000490714   -0.000236900
      4       17          -0.003054449    0.001037909   -0.001408714
 -------------------------------------------------------------------
 Cartesian Forces:  Max     0.004460260 RMS     0.001831952

 GradGradGradGradGradGradGradGradGradGradGradGradGradGradGradGradGradGrad
 Berny optimization.
 Using GEDIIS/GDIIS optimizer.
 Internal  Forces:  Max     0.003520140 RMS     0.001439261
 Search for a local minimum.
 Step number   6 out of a maximum of   20
 All quantities printed in internal units (Hartrees-Bohrs-Radians)
 Mixed Optimization -- RFO/linear search
 Update second derivatives using D2CorX and points    3    4    5    6
 DE= -1.12D-03 DEPred=-6.78D-04 R= 1.65D+00
 SS=  1.41D+00  RLast= 1.92D-01 DXNew= 1.4270D+00 5.7561D-01
 Trust test= 1.65D+00 RLast= 1.92D-01 DXMaxT set to 8.49D-01
 The second derivative matrix:
                          R1        R2        R3        A1        A2
           R1           0.70282
           R2           0.29293   0.70282
           R3           0.08530   0.08530   0.10119
           A1           0.05038   0.05038  -0.08773   0.26678
           A2          -0.02519  -0.02519   0.04386  -0.00839   0.25420
           A3          -0.02519  -0.02519   0.04386  -0.00839   0.00420
           D1           0.00000   0.00000   0.00000   0.00000   0.00000
                          A3        D1
           A3           0.25420
           D1           0.00000   0.00238
 Use linear search instead of GDIIS.
     Eigenvalues ---    0.00238   0.02773   0.25000   0.32547   0.40989
     Eigenvalues ---    1.018921000.00000
 RFO step:  Lambda=-1.18984666D-04 EMin= 2.37799011D-03
 Quartic linear search produced a step of  2.00000.
 Iteration  1 RMS(Cart)=  0.05923604 RMS(Int)=  0.05732733
 Iteration  2 RMS(Cart)=  0.04984489 RMS(Int)=  0.00000269
 Iteration  3 RMS(Cart)=  0.00000243 RMS(Int)=  0.00000000
 Iteration  4 RMS(Cart)=  0.00000000 RMS(Int)=  0.00000000
 ClnCor:  largest displacement from symmetrization is 5.87D-12 for atom     1.
 Variable       Old X    -DE/DX   Delta X   Delta X   Delta X     New X
                                 (Linear)    (Quad)   (Total)
    R1        2.28163  -0.00054  -0.04698   0.00487  -0.04211   2.23952
    R2        2.28163  -0.00054  -0.04698   0.00487  -0.04211   2.23952
    R3        3.75254   0.00352   0.34406   0.00711   0.35117   4.10371
    A1        2.42933   0.00101   0.12772   0.01202   0.13974   2.56906
    A2        1.92693  -0.00051  -0.06386  -0.00601  -0.06987   1.85706
    A3        1.92693  -0.00051  -0.06386  -0.00601  -0.06987   1.85706
    D1        3.14159   0.00000   0.00000   0.00000   0.00000   3.14159
         Item               Value     Threshold  Converged?
 Maximum Force            0.003520     0.000450     NO 
 RMS     Force            0.001439     0.000300     NO 
 Maximum Displacement     0.157765     0.001800     NO 
 RMS     Displacement     0.094122     0.001200     NO 
 Predicted change in Energy=-6.723395D-04
 GradGradGradGradGradGradGradGradGradGradGradGradGradGradGradGradGradGrad

                          Input orientation:                          
 ---------------------------------------------------------------------
 Center     Atomic      Atomic             Coordinates (Angstroms)
 Number     Number       Type             X           Y           Z
 ---------------------------------------------------------------------
      1          6           0        0.190203    1.238373    0.117286
      2          8           0        0.671169    2.198704    0.618187
      3          8           0        0.289973    0.080705   -0.115779
      4         17           0       -1.694099    1.878663   -0.751756
 ---------------------------------------------------------------------
                    Distance matrix (angstroms):
                    1          2          3          4
     1  C    0.000000
     2  O    1.185102   0.000000
     3  O    1.185102   2.273750   0.000000
     4  Cl   2.171590   2.752029   2.752029   0.000000
 Stoichiometry    CClO2(1-)
 Framework group  C2V[C2(CCl),SGV(O2)]
 Deg. of freedom     3
 Full point group                 C2V     NOp   4
 Largest Abelian subgroup         C2V     NOp   4
 Largest concise Abelian subgroup C2      NOp   2
                         Standard orientation:                         
 ---------------------------------------------------------------------
 Center     Atomic      Atomic             Coordinates (Angstroms)
 Number     Number       Type             X           Y           Z
 ---------------------------------------------------------------------
      1          6           0        0.000000    0.000000   -0.809303
      2          8           0        0.000000    1.136875   -1.143941
      3          8           0        0.000000   -1.136875   -1.143941
      4         17           0        0.000000    0.000000    1.362287
 ---------------------------------------------------------------------
 Rotational constants (GHZ):     12.2230622      4.4101214      3.2408221
 Standard basis: 6-311+G(d,p) (5D, 7F)
 There are    42 symmetry adapted basis functions of A1  symmetry.
 There are     8 symmetry adapted basis functions of A2  symmetry.
 There are    18 symmetry adapted basis functions of B1  symmetry.
 There are    28 symmetry adapted basis functions of B2  symmetry.
 Integral buffers will be    262144 words long.
 Raffenetti 2 integral format.
 Two-electron integral symmetry is turned on.
    96 basis functions,   161 primitive gaussians,   100 cartesian basis functions
    20 alpha electrons       20 beta electrons
       nuclear repulsion energy       134.9186850656 Hartrees.
 NAtoms=    4 NActive=    4 NUniq=    3 SFac= 1.33D+00 NAtFMM=   80 NAOKFM=F Big=F
 ------------------------------------------------------------------------------
 Polarizable Continuum Model (PCM)
 =================================
 Model                : PCM.
 Atomic radii         : SMD-Coulomb.
 Polarization charges : Total charges.
 Charge compensation  : None.
 Solution method      : Matrix inversion.
 Cavity type          : VdW (van der Waals Surface) (Alpha=1.000).
 Cavity algorithm     : GePol (No added spheres)
                        Default sphere list used, NSphG=    4.
                        Lebedev-Laikov grids with approx.  5.0 points / Ang**2.
                        Smoothing algorithm: Karplus/York (Gamma=1.0000).
                        Polarization charges: spherical gaussians, with
                                              point-specific exponents (IZeta= 3).
                        Self-potential: point-specific (ISelfS= 7).
                        Self-field    : sphere-specific E.n sum rule (ISelfD= 2).
 1st derivatives      : Analytical E(r).r(x)/FMM algorithm (CHGder, D1EAlg=3).
                        Cavity 1st derivative terms included.
 Solvent              : Water, Eps=  78.355300 Eps(inf)=   1.777849
 ------------------------------------------------------------------------------
 Spheres list:
 ISph  on   Nord    Re0     Alpha      Xe            Ye            Ze
    1   C      1    1.850   1.000      0.000000      0.000000     -0.809303
    2   O      2    1.520   1.000      0.000000      1.136875     -1.143941
    3   O      3    1.520   1.000      0.000000     -1.136875     -1.143941
    4  Cl      4    2.380   1.000      0.000000      0.000000      1.362287
 ------------------------------------------------------------------------------
 ------------------------------------------------------------------------------
 Atomic radii for non-electrostatic terms: SMD-CDS.
 ------------------------------------------------------------------------------
 Nuclear repulsion after PCM non-electrostatic terms =      134.9255779450 Hartrees.
 One-electron integrals computed using PRISM.
 NBasis=    96 RedAO= T  NBF=    42     8    18    28
 NBsUse=    96 1.00D-06 NBFU=    42     8    18    28
 Initial guess read from the read-write file.
 B after Tr=     0.000000    0.000000    0.000000
         Rot=    1.000000    0.000000    0.000000    0.000000 Ang=   0.00 deg.
 Initial guess orbital symmetries:
       Occupied  (A1) (B2) (A1) (A1) (A1) (A1) (B1) (B2) (A1) (B2)
                 (A1) (A1) (A1) (B2) (B1) (B2) (A2) (B1) (A1) (B2)
       Virtual   (A1) (A1) (B2) (B1) (A1) (B1) (B2) (B1) (A1) (A1)
                 (A1) (A2) (B2) (A1) (B2) (B1) (A1) (B2) (A1) (A1)
                 (B2) (B1) (B2) (B1) (A1) (B2) (A1) (A1) (B1) (A2)
                 (A1) (A1) (A2) (B2) (B2) (A1) (B1) (A1) (B2) (B1)
                 (A2) (A1) (A1) (B2) (B2) (A1) (B1) (B2) (A1) (B1)
                 (A2) (B2) (B1) (A1) (A1) (B2) (B1) (B2) (A2) (A1)
[...]
             Convg  =    0.4295D-08             -V/T =  2.0024
 SMD-CDS (non-electrostatic) energy             (kcal/mol) =       5.20
 (included in total energy above)
 Range of M.O.s used for correlation:     1    96
 NBasis=    96 NAE=    20 NBE=    20 NFC=     0 NFV=     0
 NROrb=     96 NOA=    20 NOB=    20 NVA=    76 NVB=    76

 **** Warning!!: The largest alpha MO coefficient is  0.10379128D+02

 Symmetrizing basis deriv contribution to polar:
 IMax=3 JMax=2 DiffMx= 0.00D+00
 G2DrvN: will do     5 centers at a time, making    1 passes doing MaxLOS=2.
 Calling FoFCou, ICntrl=  3107 FMM=F I1Cent=   0 AccDes= 0.00D+00.
 FoFDir/FoFCou used for L=0 through L=2.
 G2PCM: DoFxE=T DoFxN=T DoGrad=T DoPD/DQ/DG=FFF NFrqRd=   0 IEInf=0 DoCFld=F IF1Alg=4.
 End of G2Drv Frequency-dependent properties file   721 does not exist.
 End of G2Drv Frequency-dependent properties file   722 does not exist.
          IDoAtm=1111
 NEqPCM:  Using equilibrium solvation (IEInf=0, Eps=  78.3553, EpsInf=   1.7778)
          Differentiating once with respect to electric field.
                with respect to dipole field.
          Differentiating once with respect to nuclear coordinates.
          Keep R1 ints in memory in canonical form, NReq=13575053.
          There are    12 degrees of freedom in the 1st order CPHF.  IDoFFX=4.
     12 vectors produced by pass  0 Test12= 1.27D-14 8.33D-09 XBig12= 2.22D+01 2.47D+00.
 AX will form    12 AO Fock derivatives at one time.
     12 vectors produced by pass  1 Test12= 1.27D-14 8.33D-09 XBig12= 7.83D+00 8.82D-01.
     12 vectors produced by pass  2 Test12= 1.27D-14 8.33D-09 XBig12= 2.48D-01 1.86D-01.
     12 vectors produced by pass  3 Test12= 1.27D-14 8.33D-09 XBig12= 6.50D-03 2.53D-02.
     12 vectors produced by pass  4 Test12= 1.27D-14 8.33D-09 XBig12= 6.49D-05 1.98D-03.
     11 vectors produced by pass  5 Test12= 1.27D-14 8.33D-09 XBig12= 6.37D-07 2.38D-04.
     10 vectors produced by pass  6 Test12= 1.27D-14 8.33D-09 XBig12= 9.44D-09 2.67D-05.
      7 vectors produced by pass  7 Test12= 1.27D-14 8.33D-09 XBig12= 4.82D-11 1.74D-06.
      2 vectors produced by pass  8 Test12= 1.27D-14 8.33D-09 XBig12= 2.31D-13 9.99D-08.
 Inverted reduced A of dimension    90 with in-core refinement.
 Isotropic polarizability for W=    0.000000       39.54 Bohr**3.
 End of Minotr Frequency-dependent properties file   721 does not exist.
 End of Minotr Frequency-dependent properties file   722 does not exist.

 **********************************************************************

            Population analysis using the SCF density.

 **********************************************************************

 Orbital symmetries:
       Occupied  (A1) (B2) (A1) (A1) (A1) (A1) (B1) (B2) (A1) (B2)
                 (A1) (A1) (B2) (B1) (A1) (B2) (A2) (A1) (B1) (B2)
       Virtual   (A1) (B2) (A1) (B1) (A1) (B1) (A1) (B2) (B1) (A1)
                 (A1) (A1) (A2) (B2) (B2) (B1) (A1) (B2) (A1) (B1)
                 (B2) (A1) (A1) (B1) (B2) (A1) (B2) (A1) (B2) (A2)
                 (A1) (B1) (A1) (A2) (B2) (A1) (B1) (A1) (B1) (B2)
                 (A1) (A1) (A2) (B2) (B2) (B1) (B2) (A1) (B1) (A1)
                 (A1) (A2) (B2) (B1) (A1) (B1) (A1) (B2) (A2) (B2)
                 (A1) (B2) (B1) (A1) (A2) (B2) (A1) (B2) (A1) (A1)
                 (B1) (B2) (A1) (B2) (A1) (A1)
 The electronic state is 1-A1.
 Alpha  occ. eigenvalues -- -102.55054 -19.69696 -19.69693 -10.73057  -9.69199
 Alpha  occ. eigenvalues --   -7.41310  -7.41305  -7.41299  -1.28605  -1.23841
 Alpha  occ. eigenvalues --   -0.77941  -0.65605  -0.60777  -0.59797  -0.59665
 Alpha  occ. eigenvalues --   -0.44076  -0.44069  -0.29349  -0.29296  -0.29223
 Alpha virt. eigenvalues --    0.01627   0.05424   0.05728   0.05860   0.09096
 Alpha virt. eigenvalues --    0.09248   0.09524   0.09957   0.10049   0.16134
 Alpha virt. eigenvalues --    0.17474   0.20665   0.20741   0.22984   0.25243
 Alpha virt. eigenvalues --    0.28252   0.28912   0.31215   0.39251   0.52859
 Alpha virt. eigenvalues --    0.54338   0.54755   0.58377   0.59966   0.70643
 Alpha virt. eigenvalues --    0.87004   0.93755   1.00664   1.03673   1.03788
 Alpha virt. eigenvalues --    1.04231   1.04358   1.05173   1.05887   1.10382
 Alpha virt. eigenvalues --    1.11143   1.17039   1.21222   1.24918   1.25003
 Alpha virt. eigenvalues --    1.28767   1.46373   1.47379   1.48250   1.89520
 Alpha virt. eigenvalues --    2.36951   2.37714   2.39962   2.65484   2.67297
 Alpha virt. eigenvalues --    2.79570   2.81770   2.81922   2.93123   2.93291
 Alpha virt. eigenvalues --    3.18503   3.19663   3.28495   3.74021   3.74515
 Alpha virt. eigenvalues --    3.85097   3.89555   5.07656   5.10428   5.14559
 Alpha virt. eigenvalues --    5.16156   5.75940   5.76294   9.86239  24.48173
 Alpha virt. eigenvalues --   25.97554  25.99501  26.08480  50.03025  50.19008
 Alpha virt. eigenvalues --  215.92910
          Condensed to atoms (all electrons):
              1          2          3          4
     1  C    4.446070   0.473421   0.473421   0.037336
     2  O    0.473421   7.978673  -0.124417  -0.030034
     3  O    0.473421  -0.124417   7.978673  -0.030034
     4  Cl   0.037336  -0.030034  -0.030034  17.997196
 Mulliken atomic charges:
              1
     1  C    0.569752
     2  O   -0.297644
     3  O   -0.297644
     4  Cl  -0.974464
 Sum of Mulliken atomic charges =  -1.00000
 Mulliken charges with hydrogens summed into heavy atoms:
              1
     1  C    0.569752
     2  O   -0.297644
     3  O   -0.297644
     4  Cl  -0.974464
 Sum of Mulliken charges with hydrogens summed into heavy atoms =  -1.00000
 APT atomic charges:
              1
     1  C    1.876849
     2  O   -0.942212
     3  O   -0.942212
     4  Cl  -0.992424
 Sum of APT charges=  -1.00000
 APT Atomic charges with hydrogens summed into heavy atoms:
              1
     1  C    1.876849
     2  O   -0.942212
     3  O   -0.942212
     4  Cl  -0.992424
 Sum of APT charges=  -1.00000
 Electronic spatial extent (au):  <R**2>=            496.2072
 Charge=             -1.0000 electrons
 Dipole moment (field-independent basis, Debye):
    X=              0.0000    Y=              0.0000    Z=             -8.1152  Tot=              8.1152
 Quadrupole moment (field-independent basis, Debye-Ang):
   XX=            -31.8108   YY=            -37.4557   ZZ=            -47.4029
   XY=              0.0000   XZ=              0.0000   YZ=              0.0000
 Traceless Quadrupole moment (field-independent basis, Debye-Ang):
   XX=              7.0790   YY=              1.4341   ZZ=             -8.5131
   XY=              0.0000   XZ=              0.0000   YZ=              0.0000
 Octapole moment (field-independent basis, Debye-Ang**2):
  XXX=              0.0000  YYY=              0.0000  ZZZ=            -53.0355  XYY=              0.0000
  XXY=              0.0000  XXZ=             -9.5461  XZZ=              0.0000  YZZ=              0.0000
  YYZ=             -1.6702  XYZ=              0.0000
 Hexadecapole moment (field-independent basis, Debye-Ang**3):
 XXXX=            -38.2091 YYYY=           -133.8430 ZZZZ=           -565.9966 XXXY=              0.0000
 XXXZ=              0.0000 YYYX=              0.0000 YYYZ=              0.0000 ZZZX=              0.0000
 ZZZY=              0.0000 XXYY=            -28.0619 XXZZ=            -92.6967 YYZZ=           -118.7064
 XXYZ=              0.0000 YYXZ=              0.0000 ZZXY=              0.0000
 N-N= 1.192181150997D+02 E-N=-1.786226024327D+03  KE= 6.473671049177D+02
 Symmetry A1   KE= 4.737165855224D+02
 Symmetry A2   KE= 4.827993343341D+00
 Symmetry B1   KE= 4.908372802081D+01
 Symmetry B2   KE= 1.197387980311D+02
  Exact polarizability:  28.908   0.000  53.339   0.000   0.000  36.387
 Approx polarizability:  23.435   0.000  49.822   0.000   0.000  29.066
 D2PCM: PCM CHGder 2nd derivatives, FixD1E=F FixD2E=F DoIter=F DoCFld=F I1PDM=0
 Calling FoFJK, ICntrl=    100127 FMM=F ISym2X=1 I1Cent= 0 IOpClX= 0 NMat=1 NMatS=1 NMatT=0.
 Full mass-weighted force constant matrix:
 Low frequencies ---  -62.0703  -38.7094   -0.0055   -0.0053   -0.0037   30.1787
 Low frequencies ---  100.1053  134.6912  634.4011
 Diagonal vibrational polarizability:
        3.6517370       9.0157548      73.3429538
 Harmonic frequencies (cm**-1), IR intensities (KM/Mole), Raman scattering
 activities (A**4/AMU), depolarization ratios for plane and unpolarized
 incident light, reduced masses (AMU), force constants (mDyne/A),
 and normal coordinates:
                     1                      2                      3
                    A1                     B2                     A1
 Frequencies --   100.1053               134.5484               634.4011
 Red. masses --    21.3161                16.7882                13.0126
 Frc consts  --     0.1259                 0.1791                 3.0856
 IR Inten    --    24.2150                 0.8562               123.8613
  Atom  AN      X      Y      Z        X      Y      Z        X      Y      Z
     1   6     0.00   0.00   0.53     0.00  -0.19   0.00     0.00   0.00   0.87
     2   8     0.00   0.00   0.44     0.00  -0.17   0.65     0.00  -0.03  -0.35
     3   8     0.00   0.00   0.44     0.00  -0.17  -0.65     0.00   0.03  -0.35
     4  17     0.00   0.00  -0.58     0.00   0.22   0.00     0.00   0.00   0.03
                     4                      5                      6
                    B1                     A1                     B2
 Frequencies --   666.1670              1411.3778              2382.9857
 Red. masses --    12.8619                15.9875                12.8744
 Frc consts  --     3.3630                18.7636                43.0745
 IR Inten    --    60.2189                 2.3966              1633.8822
  Atom  AN      X      Y      Z        X      Y      Z        X      Y      Z
     1   6     0.89   0.00   0.00     0.00   0.00   0.04     0.00   0.88   0.00
     2   8    -0.33   0.00   0.00     0.00   0.71  -0.02     0.00  -0.33   0.01
     3   8    -0.33   0.00   0.00     0.00  -0.71  -0.02     0.00  -0.33  -0.01
     4  17     0.00   0.00   0.00     0.00   0.00   0.00     0.00   0.00   0.00

 -------------------
 - Thermochemistry -
 -------------------
 Temperature   298.150 Kelvin.  Pressure   1.00000 Atm.
 Atom     1 has atomic number  6 and mass  12.00000
 Atom     2 has atomic number  8 and mass  15.99491
 Atom     3 has atomic number  8 and mass  15.99491
 Atom     4 has atomic number 17 and mass  34.96885
 Molecular mass:    78.95868 amu.
 Principal axes and moments of inertia in atomic units:
                           1         2         3
     Eigenvalues --   152.49161 676.90212 829.39373
           X            0.00000   0.00000   1.00000
           Y            0.00000   1.00000   0.00000
           Z            1.00000   0.00000   0.00000
 This molecule is an asymmetric top.
 Rotational symmetry number  2.
 Rotational temperatures (Kelvin)      0.56799     0.12796     0.10443
 Rotational constants (GHZ):          11.83502     2.66618     2.17598
 Zero-point vibrational energy      31878.0 (Joules/Mol)
                                    7.61902 (Kcal/Mol)
 Warning -- explicit consideration of   2 degrees of freedom as
           vibrations may cause significant error
 Vibrational temperatures:    144.03   193.58   912.76   958.46  2030.66
          (Kelvin)           3428.58
 
 Zero-point correction=                           0.012142 (Hartree/Particle)
 Thermal correction to Energy=                    0.016655
 Thermal correction to Enthalpy=                  0.017600
 Thermal correction to Gibbs Free Energy=        -0.015983
 Sum of electronic and zero-point Energies=           -648.936483
 Sum of electronic and thermal Energies=              -648.931970
 Sum of electronic and thermal Enthalpies=            -648.931025
 Sum of electronic and thermal Free Energies=         -648.964608
 
                     E (Thermal)             CV                S
                      KCal/Mol        Cal/Mol-Kelvin    Cal/Mol-Kelvin
 Total                   10.451             11.789             70.680
 Electronic               0.000              0.000              0.000
 Translational            0.889              2.981             39.014
 Rotational               0.889              2.981             24.574
 Vibrational              8.674              5.827              7.093
 Vibration     1          0.604              1.949              3.452
 Vibration     2          0.613              1.919              2.880
                       Q            Log10(Q)             Ln(Q)
 Total Bot       0.224696D+08          7.351595         16.927673
 Total V=0       0.863718D+13         12.936372         29.787097
 Vib (Bot)       0.155581D-04         -4.808043        -11.070928
 Vib (Bot)    1  0.205008D+01          0.311770          0.717877
 Vib (Bot)    2  0.151343D+01          0.179961          0.414377
 Vib (V=0)       0.598046D+01          0.776734          1.788497
 Vib (V=0)    1  0.261017D+01          0.416669          0.959415
 Vib (V=0)    2  0.209388D+01          0.320952          0.739020
 Electronic      0.100000D+01          0.000000          0.000000
 Translational   0.275775D+08          7.440555         17.132511
 Rotational      0.523700D+05          4.719083         10.866089
 ***** Axes restored to original set *****
 -------------------------------------------------------------------
 Center     Atomic                   Forces (Hartrees/Bohr)
 Number     Number              X              Y              Z
 -------------------------------------------------------------------
      1        6           0.000036002   -0.000012234    0.000016604
      2        8          -0.000019769   -0.000011461   -0.000013632
      3        8          -0.000013603    0.000022801   -0.000001759
      4       17          -0.000002630    0.000000894   -0.000001213
 -------------------------------------------------------------------
 Cartesian Forces:  Max     0.000036002 RMS     0.000016194

 GradGradGradGradGradGradGradGradGradGradGradGradGradGradGradGradGradGrad
 Berny optimization.
 Internal  Forces:  Max     0.000027159 RMS     0.000016195
 Search for a local minimum.
 Step number   1 out of a maximum of    2
 All quantities printed in internal units (Hartrees-Bohrs-Radians)
 Second derivative matrix not updated -- analytic derivatives used.
 The second derivative matrix:
                          R1        R2        R3        A1        A2
           R1           1.06977
           R2           0.13443   1.06977
           R3           0.00186   0.00186   0.00828
           A1           0.00826   0.00826  -0.01215   0.08102
           A2          -0.00809  -0.00017   0.00607  -0.04051   0.04177
           A3          -0.00017  -0.00809   0.00607  -0.04051  -0.00126
           D1           0.00000   0.00000   0.00000   0.00000   0.00000
                          A3        D1
           A3           0.04177
           D1           0.00000   0.17138
     Eigenvalues ---    0.00634   0.04296   0.12328   0.17138   0.93541
     Eigenvalues ---    1.204401000.00000
 Angle between quadratic step and forces=  69.45 degrees.
 Linear search not attempted -- first point.
 Iteration  1 RMS(Cart)=  0.00030789 RMS(Int)=  0.00000002
 Iteration  2 RMS(Cart)=  0.00000001 RMS(Int)=  0.00000001
 ClnCor:  largest displacement from symmetrization is 9.12D-09 for atom     1.
 Variable       Old X    -DE/DX   Delta X   Delta X   Delta X     New X
                                 (Linear)    (Quad)   (Total)
    R1        2.18437  -0.00002   0.00000  -0.00002  -0.00002   2.18435
    R2        2.18437  -0.00002   0.00000  -0.00002  -0.00002   2.18435
    R3        5.84501   0.00000   0.00000   0.00112   0.00112   5.84613
    A1        3.07951   0.00003   0.00000   0.00034   0.00034   3.07985
    A2        1.60184  -0.00001   0.00000  -0.00017  -0.00017   1.60167
    A3        1.60184  -0.00001   0.00000  -0.00017  -0.00017   1.60167
    D1        3.14159   0.00000   0.00000   0.00000   0.00000   3.14159
         Item               Value     Threshold  Converged?
 Maximum Force            0.000027     0.000450     YES
 RMS     Force            0.000016     0.000300     YES
 Maximum Displacement     0.000568     0.001800     YES
 RMS     Displacement     0.000308     0.001200     YES
 Predicted change in Energy=-8.985785D-09
 Optimization completed.
    -- Stationary point found.
                           ----------------------------
                           !   Optimized Parameters   !
                           ! (Angstroms and Degrees)  !
 --------------------------                            --------------------------
 ! Name  Definition              Value          Derivative Info.                !
 --------------------------------------------------------------------------------
 ! R1    R(1,2)                  1.1559         -DE/DX =    0.0                 !
 ! R2    R(1,3)                  1.1559         -DE/DX =    0.0                 !
 ! R3    R(1,4)                  3.093          -DE/DX =    0.0                 !
 ! A1    A(2,1,3)              176.443          -DE/DX =    0.0                 !
 ! A2    A(2,1,4)               91.7785         -DE/DX =    0.0                 !
 ! A3    A(3,1,4)               91.7785         -DE/DX =    0.0                 !
 ! D1    D(2,1,4,3)            180.0            -DE/DX =    0.0                 !
 --------------------------------------------------------------------------------
 GradGradGradGradGradGradGradGradGradGradGradGradGradGradGradGradGradGrad

 1|1|UNPC-DESKTOP-319GPER|Freq|RM062X|6-311+G(d,p)|C1Cl1O2(1-)|SAGAD|20
 -Jan-2021|0||#N Geom=AllCheck Guess=TCheck SCRF=Check GenChk RM062X/6-
 311+G(d,p) Freq||carbonochloric anion m062x||-1,1|C,0.519711919,1.1264
 046918,0.2692556535|O,0.7445376002,2.192047801,0.6565628425|O,0.357143
 0134,0.0396065751,-0.0893386664|Cl,-2.1641459408,2.0383862809,-0.96854
 14983||Version=IA32W-G09RevA.02|State=1-A1|HF=-648.9486251|RMSD=4.295e
 -009|RMSF=1.619e-005|ZeroPoint=0.0121417|Thermal=0.0166555|Dipole=2.77
 03942,-0.9413869,1.2777078|DipoleDeriv=1.0918703,0.3864884,0.2942446,0
 .3864882,3.4306435,0.8819274,0.2942446,0.8819274,1.1080342,-0.5577062,
 -0.2824189,-0.1727664,-0.276584,-1.6863868,-0.4779162,-0.1713173,-0.48
 10997,-0.5825444,-0.5005933,-0.1276222,-0.1031636,-0.1334571,-1.794216
 6,-0.4266066,-0.1046126,-0.4234231,-0.5318276,-1.0335708,0.0235527,-0.
 0183146,0.0235527,-0.95004,0.0225954,-0.0183146,0.0225954,-0.9936623|P
 olar=35.22562,1.9017671,50.7563958,3.9192943,6.4635601,32.6511624|PG=C
 02V [C2(C1Cl1),SGV(O2)]|NImag=0||0.18158089,0.27515430,1.64763002,0.08
 721625,0.52279942,0.32438710,-0.10027096,-0.15278894,-0.05272532,0.077
 25340,-0.15266988,-0.80917328,-0.26607397,0.17808630,0.91946719,-0.052
 69575,-0.26613893,-0.16802252,0.06728191,0.31681410,0.15038223,-0.0874
 0054,-0.11910127,-0.03733728,0.02982346,-0.02675754,-0.01073917,0.0629
 5303,-0.11922033,-0.83347275,-0.25385889,-0.02517075,-0.11227949,-0.05
 088671,0.14078809,0.94646644,-0.03736684,-0.25379393,-0.15659346,-0.01
 034511,-0.05175244,0.01883100,0.05021705,0.30316971,0.13768335,0.00609
 061,-0.00326408,0.00284635,-0.00680590,0.00134112,-0.00384698,-0.00537
 595,0.00360299,-0.00250510,0.00609124,-0.00326408,-0.00498399,-0.00286
 656,-0.00012661,0.00198557,0.00021154,0.00507072,-0.00071420,0.0023766
 7,-0.00168003,0.00371262,0.00284635,-0.00286656,0.00022887,-0.00421148
 ,0.00101231,-0.00119071,-0.00214060,0.00157590,0.00007911,0.00350573,0
 .00027835,0.00088273||-0.00003600,0.00001223,-0.00001660,0.00001977,0.
 00001146,0.00001363,0.00001360,-0.00002280,0.00000176,0.00000263,-0.00
 000089,0.00000121|||@


 COMMON SENSE IS NOT SO COMMON.   -- VOLTAIRE
 Job cpu time:  0 days  0 hours  0 minutes 19.0 seconds.
 File lengths (MBytes):  RWF=     23 Int=      0 D2E=      0 Chk=      3 Scr=      1
 Normal termination of Gaussian 09 at Wed Jan 20 03:09:43 2021.
