 Entering Link 1 = C:\G09W\l1.exe PID=      4776.
  
 Copyright (c) 1988,1990,1992,1993,1995,1998,2003,2009, Gaussian, Inc.
                  All Rights Reserved.
  
 This is part of the Gaussian(R) 09 program.  It is based on
 the Gaussian(R) 03 system (copyright 2003, Gaussian, Inc.),
 the Gaussian(R) 98 system (copyright 1998, Gaussian, Inc.),
 the Gaussian(R) 94 system (copyright 1995, Gaussian, Inc.),
 the Gaussian 92(TM) system (copyright 1992, Gaussian, Inc.),
 the Gaussian 90(TM) system (copyright 1990, Gaussian, Inc.),
 the Gaussian 88(TM) system (copyright 1988, Gaussian, Inc.),
 the Gaussian 86(TM) system (copyright 1986, Carnegie Mellon
 University), and the Gaussian 82(TM) system (copyright 1983,
 Carnegie Mellon University). Gaussian is a federally registered
 trademark of Gaussian, Inc.
  
 This software contains proprietary and confidential information,
 including trade secrets, belonging to Gaussian, Inc.
  
 This software is provided under written license and may be
 used, copied, transmitted, or stored only in accord with that
 written license.
  
 The following legend is applicable only to US Government
 contracts under FAR:
  
                    RESTRICTED RIGHTS LEGEND
  
 Use, reproduction and disclosure by the US Government is
 subject to restrictions as set forth in subparagraphs (a)
 and (c) of the Commercial Computer Software - Restricted
 Rights clause in FAR 52.227-19.
  
 Gaussian, Inc.
 340 Quinnipiac St., Bldg. 40, Wallingford CT 06492
  
  
 ---------------------------------------------------------------
 Warning -- This program may not be used in any manner that
 competes with the business of Gaussian, Inc. or will provide
 assistance to any competitor of Gaussian, Inc.  The licensee
 of this program is prohibited from giving any competitor of
 Gaussian, Inc. access to this program.  By using this program,
 the user acknowledges that Gaussian, Inc. is engaged in the
 business of creating and licensing software in the field of
 computational chemistry and represents and warrants to the
 licensee that it is not a competitor of Gaussian, Inc. and that
 it will not use this program in any manner prohibited above.
 ---------------------------------------------------------------
  

 Cite this work as:
 Gaussian 09, Revision A.02,
 M. J. Frisch, G. W. Trucks, H. B. Schlegel, G. E. Scuseria, 
 M. A. Robb, J. R. Cheeseman, G. Scalmani, V. Barone, B. Mennucci, 
 G. A. Petersson, H. Nakatsuji, M. Caricato, X. Li, H. P. Hratchian, 
 A. F. Izmaylov, J. Bloino, G. Zheng, J. L. Sonnenberg, M. Hada, 
 M. Ehara, K. Toyota, R. Fukuda, J. Hasegawa, M. Ishida, T. Nakajima, 
 Y. Honda, O. Kitao, H. Nakai, T. Vreven, J. A. Montgomery, Jr., 
 J. E. Peralta, F. Ogliaro, M. Bearpark, J. J. Heyd, E. Brothers, 
 K. N. Kudin, V. N. Staroverov, R. Kobayashi, J. Normand, 
 K. Raghavachari, A. Rendell, J. C. Burant, S. S. Iyengar, J. Tomasi, 
 M. Cossi, N. Rega, J. M. Millam, M. Klene, J. E. Knox, J. B. Cross, 
 V. Bakken, C. Adamo, J. Jaramillo, R. Gomperts, R. E. Stratmann, 
 O. Yazyev, A. J. Austin, R. Cammi, C. Pomelli, J. W. Ochterski, 
 R. L. Martin, K. Morokuma, V. G. Zakrzewski, G. A. Voth, 
 P. Salvador, J. J. Dannenberg, S. Dapprich, A. D. Daniels, 
 O. Farkas, J. B. Foresman, J. V. Ortiz, J. Cioslowski, 
 and D. J. Fox, Gaussian, Inc., Wallingford CT, 2009.
 
 ******************************************
 Gaussian 09:  IA32W-G09RevA.02 11-Jun-2009
                19-Jan-2021 
 ******************************************
 %chk=D:\Documents\rayGit\FQ\quimicaComputacional\p4Pka\reactivos\formeateM062x.c
 hk
 %mem=1500MB
 %nprocshared=4
 Will use up to    4 processors via shared memory.
 -------------------------------------
 # opt freq 6-31+g(d,p) scrf=smd m062x
 -------------------------------------
 1/14=-1,18=20,19=15,26=3,38=1/1,3;
 2/9=110,12=2,17=6,18=5,40=1/2;
 3/5=1,6=6,7=111,11=2,16=1,25=1,30=1,70=32201,71=1,72=1,74=-55/1,2,3;
 4//1;
 5/5=2,38=5/2;
 6/7=2,8=2,9=2,10=2,28=1/1;
 7//1,2,3,16;
 1/14=-1,18=20,19=15/3(2);
 2/9=110/2;
 99//99;
 2/9=110/2;
 3/5=1,6=6,7=111,11=2,16=1,25=1,30=1,70=32205,71=1,74=-55/1,2,3;
 4/5=5,16=3/1;
 5/5=2,38=5/2;
 7//1,2,3,16;
 1/14=-1,18=20,19=15/3(-5);
 2/9=110/2;
 6/7=2,8=2,9=2,10=2,19=2,28=1/1;
 99/9=1/99;
 --------------
 formeate m062x
 --------------
 Symbolic Z-matrix:
 Charge = -1 Multiplicity = 1
 C                    -0.05876   0.11752   0. 
 H                     0.29791   0.11752  -1.00881 
 O                     0.41791   0.11752   1.34822 
 O                    -1.48876   0.11754   0. 
 

 GradGradGradGradGradGradGradGradGradGradGradGradGradGradGradGradGradGrad
 Berny optimization.
 Initialization pass.
                           ----------------------------
                           !    Initial Parameters    !
                           ! (Angstroms and Degrees)  !
 --------------------------                            --------------------------
 ! Name  Definition              Value          Derivative Info.                !
 --------------------------------------------------------------------------------
 ! R1    R(1,2)                  1.07           estimate D2E/DX2                !
 ! R2    R(1,3)                  1.43           estimate D2E/DX2                !
 ! R3    R(1,4)                  1.43           estimate D2E/DX2                !
 ! A1    A(2,1,3)              141.0576         estimate D2E/DX2                !
 ! A2    A(2,1,4)              109.4712         estimate D2E/DX2                !
 ! A3    A(3,1,4)              109.4712         estimate D2E/DX2                !
 ! D1    D(2,1,4,3)            180.0            estimate D2E/DX2                !
 --------------------------------------------------------------------------------
 Trust Radius=3.00D-01 FncErr=1.00D-07 GrdErr=1.00D-06
 Number of steps in this run=  20 maximum allowed number of steps= 100.
 GradGradGradGradGradGradGradGradGradGradGradGradGradGradGradGradGradGrad

                          Input orientation:                          
 ---------------------------------------------------------------------
 Center     Atomic      Atomic             Coordinates (Angstroms)
 Number     Number       Type             X           Y           Z
 ---------------------------------------------------------------------
      1          6           0       -0.058761    0.117521    0.000000
      2          1           0        0.297906    0.117517   -1.008806
      3          8           0        0.417906    0.117515    1.348217
      4          8           0       -1.488761    0.117539    0.000000
 ---------------------------------------------------------------------
                    Distance matrix (angstroms):
                    1          2          3          4
     1  C    0.000000
     2  H    1.070000   0.000000
     3  O    1.430000   2.360075   0.000000
     4  O    1.430000   2.051796   2.335180   0.000000
 Stoichiometry    CHO2(1-)
 Framework group  CS[SG(CHO2)]
 Deg. of freedom     5
 Full point group                 CS      NOp   2
 Largest Abelian subgroup         CS      NOp   2
 Largest concise Abelian subgroup C1      NOp   1
                         Standard orientation:                         
 ---------------------------------------------------------------------
 Center     Atomic      Atomic             Coordinates (Angstroms)
 Number     Number       Type             X           Y           Z
 ---------------------------------------------------------------------
      1          6           0        0.000000    0.529724    0.000000
      2          1           0       -0.315744    1.552077    0.000000
      3          8           0        1.186991   -0.267743    0.000000
      4          8           0       -1.147523   -0.323559    0.000000
 ---------------------------------------------------------------------
 Rotational constants (GHZ):     59.0411554     11.5646163      9.6704319
 Standard basis: 6-31+G(d,p) (6D, 7F)
 There are    46 symmetry adapted basis functions of A'  symmetry.
 There are    16 symmetry adapted basis functions of A"  symmetry.
 Integral buffers will be    262144 words long.
 Raffenetti 2 integral format.
 Two-electron integral symmetry is turned on.
    62 basis functions,   103 primitive gaussians,    62 cartesian basis functions
    12 alpha electrons       12 beta electrons
       nuclear repulsion energy        56.8526644942 Hartrees.
 NAtoms=    4 NActive=    4 NUniq=    4 SFac= 7.50D-01 NAtFMM=   80 NAOKFM=F Big=F
 ------------------------------------------------------------------------------
 Polarizable Continuum Model (PCM)
 =================================
 Model                : PCM.
 Atomic radii         : SMD-Coulomb.
 Polarization charges : Total charges.
 Charge compensation  : None.
 Solution method      : Matrix inversion.
 Cavity type          : VdW (van der Waals Surface) (Alpha=1.000).
 Cavity algorithm     : GePol (No added spheres)
                        Default sphere list used, NSphG=    4.
                        Lebedev-Laikov grids with approx.  5.0 points / Ang**2.
                        Smoothing algorithm: Karplus/York (Gamma=1.0000).
                        Polarization charges: spherical gaussians, with
                                              point-specific exponents (IZeta= 3).
                        Self-potential: point-specific (ISelfS= 7).
                        Self-field    : sphere-specific E.n sum rule (ISelfD= 2).
 1st derivatives      : Analytical E(r).r(x)/FMM algorithm (CHGder, D1EAlg=3).
                        Cavity 1st derivative terms included.
 Solvent              : Water, Eps=  78.355300 Eps(inf)=   1.777849
 ------------------------------------------------------------------------------
 Spheres list:
 ISph  on   Nord    Re0     Alpha      Xe            Ye            Ze
    1   C      1    1.850   1.000      0.000000      0.529724      0.000000
    2   H      2    1.200   1.000     -0.315744      1.552077      0.000000
    3   O      3    1.520   1.000      1.186991     -0.267743      0.000000
    4   O      4    1.520   1.000     -1.147523     -0.323559      0.000000
 ------------------------------------------------------------------------------
 ------------------------------------------------------------------------------
 Atomic radii for non-electrostatic terms: SMD-CDS.
 ------------------------------------------------------------------------------
 Nuclear repulsion after PCM non-electrostatic terms =       56.8563007308 Hartrees.
 One-electron integrals computed using PRISM.
 NBasis=    62 RedAO= T  NBF=    46    16
 NBsUse=    62 1.00D-06 NBFU=    46    16
 Harris functional with IExCor= 1009 diagonalized for initial guess.
 ExpMin= 4.38D-02 ExpMax= 5.48D+03 ExpMxC= 8.25D+02 IAcc=2 IRadAn=         0 AccDes= 0.00D+00
 HarFok:  IExCor= 1009 AccDes= 0.00D+00 IRadAn=         0 IDoV= 1
 ScaDFX=  1.000000  1.000000  1.000000  1.000000
 FoFCou: FMM=F IPFlag=           0 FMFlag=      100000 FMFlg1=           0
         NFxFlg=           0 DoJE=T BraDBF=F KetDBF=T FulRan=T
         Omega=  0.000000  0.000000  1.000000  0.000000  0.000000 ICntrl=     500 IOpCl=  0
         NMat0=    1 NMatS0=    1 NMatT0=    0 NMatD0=    1 NMtDS0=    0 NMtDT0=    0
         I1Cent=           4 NGrid=           0.
 Petite list used in FoFCou.
 Initial guess orbital symmetries:
       Occupied  (A') (A') (A') (A') (A') (A') (A') (A') (A") (A')
                 (A") (A')
       Virtual   (A") (A') (A') (A') (A") (A') (A') (A') (A') (A")
                 (A') (A") (A') (A') (A') (A') (A") (A') (A') (A')
                 (A') (A") (A') (A") (A') (A') (A') (A") (A") (A')
                 (A') (A') (A') (A") (A") (A') (A') (A') (A') (A")
                 (A") (A') (A") (A') (A') (A') (A') (A') (A') (A')
 The electronic state of the initial guess is 1-A'.
 Requested convergence on RMS density matrix=1.00D-08 within 128 cycles.
 Requested convergence on MAX density matrix=1.00D-06.
 Requested convergence on             energy=1.00D-06.
 No special actions if energy rises.
 Keep R1 ints in memory in canonical form, NReq=5059726.
 Error on total polarization charges =  0.05531
 SCF Done:  E(RM062X) =  -189.178753515     A.U. after   12 cycles
             Convg  =    0.5171D-08             -V/T =  2.0122
 SMD-CDS (non-electrostatic) energy             (kcal/mol) =       2.28
 (included in total energy above)

 **********************************************************************

            Population analysis using the SCF density.

 **********************************************************************

 Orbital symmetries:
       Occupied  (A') (A') (A') (A') (A') (A') (A') (A') (A") (A')
                 (A") (A')
       Virtual   (A") (A') (A') (A') (A") (A') (A') (A') (A") (A')
                 (A") (A') (A') (A') (A') (A') (A") (A') (A') (A')
                 (A') (A') (A") (A") (A') (A') (A') (A") (A") (A')
                 (A') (A') (A') (A") (A') (A") (A') (A') (A') (A")
                 (A") (A') (A") (A') (A') (A') (A') (A') (A') (A')
 The electronic state is 1-A'.
 Alpha  occ. eigenvalues --  -19.62509 -19.61336 -10.68546  -1.08831  -1.00467
 Alpha  occ. eigenvalues --   -0.68510  -0.51580  -0.46118  -0.43137  -0.34968
 Alpha  occ. eigenvalues --   -0.32131  -0.31530
 Alpha virt. eigenvalues --    0.00777   0.04424   0.05735   0.06261   0.08069
 Alpha virt. eigenvalues --    0.19210   0.19996   0.21154   0.23092   0.23697
 Alpha virt. eigenvalues --    0.25518   0.28715   0.29097   0.31001   0.37064
 Alpha virt. eigenvalues --    0.39731   0.70718   0.75014   0.84737   0.97052
 Alpha virt. eigenvalues --    1.06340   1.23527   1.24381   1.27780   1.28850
 Alpha virt. eigenvalues --    1.31192   1.38248   1.47911   1.51571   1.56240
 Alpha virt. eigenvalues --    1.58116   1.72289   1.88251   1.89002   1.89362
 Alpha virt. eigenvalues --    1.90857   2.04936   2.05967   2.10073   2.18121
 Alpha virt. eigenvalues --    2.42179   2.50125   2.64105   2.72656   2.86853
 Alpha virt. eigenvalues --    2.96351   3.48644   4.06914   4.12629   4.48536
          Condensed to atoms (all electrons):
              1          2          3          4
     1  C    4.676640   0.392192   0.274162   0.306981
     2  H    0.392192   0.482857  -0.038471  -0.069817
     3  O    0.274162  -0.038471   8.705223  -0.156100
     4  O    0.306981  -0.069817  -0.156100   8.717389
 Mulliken atomic charges:
              1
     1  C    0.350025
     2  H    0.233240
     3  O   -0.784813
     4  O   -0.798452
 Sum of Mulliken atomic charges =  -1.00000
 Mulliken charges with hydrogens summed into heavy atoms:
              1
     1  C    0.583265
     3  O   -0.784813
     4  O   -0.798452
 Sum of Mulliken charges with hydrogens summed into heavy atoms =  -1.00000
 Electronic spatial extent (au):  <R**2>=            148.8384
 Charge=             -1.0000 electrons
 Dipole moment (field-independent basis, Debye):
    X=             -0.2400    Y=              4.6493    Z=              0.0000  Tot=              4.6555
 Quadrupole moment (field-independent basis, Debye-Ang):
   XX=            -31.3181   YY=            -17.8108   ZZ=            -19.4112
   XY=             -1.0434   XZ=              0.0000   YZ=              0.0000
 Traceless Quadrupole moment (field-independent basis, Debye-Ang):
   XX=             -8.4714   YY=              5.0359   ZZ=              3.4355
   XY=             -1.0434   XZ=              0.0000   YZ=              0.0000
 Octapole moment (field-independent basis, Debye-Ang**2):
  XXX=             -0.2055  YYY=              6.4243  ZZZ=              0.0000  XYY=             -0.8055
  XXY=              2.5716  XXZ=              0.0000  XZZ=              0.0057  YZZ=              0.7654
  YYZ=              0.0000  XYZ=              0.0000
 Hexadecapole moment (field-independent basis, Debye-Ang**3):
 XXXX=           -154.9187 YYYY=            -38.7460 ZZZZ=            -20.1721 XXXY=             -1.4106
 XXXZ=              0.0000 YYYX=             -2.6686 YYYZ=              0.0000 ZZZX=              0.0000
 ZZZY=              0.0000 XXYY=            -29.9646 XXZZ=            -26.9195 YYZZ=            -10.8258
 XXYZ=              0.0000 YYXZ=              0.0000 ZZXY=             -0.1974
 N-N= 5.685630073077D+01 E-N=-5.651123354984D+02  KE= 1.868979209785D+02
 Symmetry A'   KE= 1.792723474727D+02
 Symmetry A"   KE= 7.625573505774D+00
 D1PCM: PCM CHGder 1st derivatives, ID1Alg=3 FixD1E=F DoIter=F DoCFld=F I1PDM=0.
 Calling FoFJK, ICntrl=      2127 FMM=F ISym2X=1 I1Cent= 0 IOpClX= 0 NMat=1 NMatS=1 NMatT=0.
 ***** Axes restored to original set *****
 -------------------------------------------------------------------
 Center     Atomic                   Forces (Hartrees/Bohr)
 Number     Number              X              Y              Z
 -------------------------------------------------------------------
      1        6          -0.147799770    0.000001821    0.170242305
      2        1           0.031106308   -0.000000383   -0.005530503
      3        8          -0.008647558    0.000000107   -0.144461373
      4        8           0.125341020   -0.000001545   -0.020250429
 -------------------------------------------------------------------
 Cartesian Forces:  Max     0.170242305 RMS     0.086066700

 GradGradGradGradGradGradGradGradGradGradGradGradGradGradGradGradGradGrad
 Berny optimization.
 Internal  Forces:  Max     0.139120446 RMS     0.076755174
 Search for a local minimum.
 Step number   1 out of a maximum of   20
 All quantities printed in internal units (Hartrees-Bohrs-Radians)
 Mixed Optimization -- RFO/linear search
 Second derivative matrix not updated -- first step.
 The second derivative matrix:
                          R1        R2        R3        A1        A2
           R1           0.37230
           R2           0.00000   0.40989
           R3           0.00000   0.00000   0.40989
           A1           0.00000   0.00000   0.00000   0.16000
           A2           0.00000   0.00000   0.00000   0.00000   0.16000
           A3           0.00000   0.00000   0.00000   0.00000   0.00000
           D1           0.00000   0.00000   0.00000   0.00000   0.00000
                          A3        D1
           A3           0.25000
           D1           0.00000   0.01295
     Eigenvalues ---    0.01295   0.16000   0.22000   0.37230   0.40989
     Eigenvalues ---    0.409891000.00000
 RFO step:  Lambda=-9.08105334D-02 EMin= 1.29493782D-02
 Linear search not attempted -- first point.
 Maximum step size (   0.300) exceeded in Quadratic search.
    -- Step size scaled by   0.653
 Iteration  1 RMS(Cart)=  0.08955475 RMS(Int)=  0.00480053
 Iteration  2 RMS(Cart)=  0.00540546 RMS(Int)=  0.00001257
 Iteration  3 RMS(Cart)=  0.00001052 RMS(Int)=  0.00000000
 Iteration  4 RMS(Cart)=  0.00000000 RMS(Int)=  0.00000000
 ClnCor:  largest displacement from symmetrization is 1.28D-08 for atom     1.
 Variable       Old X    -DE/DX   Delta X   Delta X   Delta X     New X
                                 (Linear)    (Quad)   (Total)
    R1        2.02201   0.01561   0.00000   0.02202   0.02202   2.04403
    R2        2.70231  -0.13912   0.00000  -0.18154  -0.18154   2.52077
    R3        2.70231  -0.12532   0.00000  -0.16353  -0.16353   2.53877
    A1        2.46192  -0.05466   0.00000  -0.12874  -0.12874   2.33318
    A2        1.91063   0.00036   0.00000   0.01460   0.01460   1.92523
    A3        1.91063   0.05430   0.00000   0.11414   0.11414   2.02477
    D1        3.14159   0.00000   0.00000   0.00000   0.00000   3.14159
         Item               Value     Threshold  Converged?
 Maximum Force            0.139120     0.000450     NO 
 RMS     Force            0.076755     0.000300     NO 
 Maximum Displacement     0.157073     0.001800     NO 
 RMS     Displacement     0.090093     0.001200     NO 
 Predicted change in Energy=-4.403643D-02
 GradGradGradGradGradGradGradGradGradGradGradGradGradGradGradGradGradGrad

                          Input orientation:                          
 ---------------------------------------------------------------------
 Center     Atomic      Atomic             Coordinates (Angstroms)
 Number     Number       Type             X           Y           Z
 ---------------------------------------------------------------------
      1          6           0       -0.110310    0.117522    0.042809
      2          1           0        0.307283    0.117517   -0.954983
      3          8           0        0.423908    0.117515    1.265097
      4          8           0       -1.452590    0.117539   -0.013512
 ---------------------------------------------------------------------
                    Distance matrix (angstroms):
                    1          2          3          4
     1  C    0.000000
     2  H    1.081653   0.000000
     3  O    1.333933   2.223142   0.000000
     4  O    1.343461   1.995876   2.270701   0.000000
 Stoichiometry    CHO2(1-)
 Framework group  CS[SG(CHO2)]
 Deg. of freedom     5
 Full point group                 CS      NOp   2
 Largest Abelian subgroup         CS      NOp   2
 Largest concise Abelian subgroup C1      NOp   1
                         Standard orientation:                         
 ---------------------------------------------------------------------
 Center     Atomic      Atomic             Coordinates (Angstroms)
 Number     Number       Type             X           Y           Z
 ---------------------------------------------------------------------
      1          6           0        0.000000    0.447537    0.000000
      2          1           0       -0.248222    1.500324    0.000000
      3          8           0        1.150361   -0.227775    0.000000
      4          8           0       -1.119333   -0.295418    0.000000
 ---------------------------------------------------------------------
 Rotational constants (GHZ):     73.9590888     12.2418399     10.5033129
 Standard basis: 6-31+G(d,p) (6D, 7F)
 There are    46 symmetry adapted basis functions of A'  symmetry.
 There are    16 symmetry adapted basis functions of A"  symmetry.
 Integral buffers will be    262144 words long.
 Raffenetti 2 integral format.
 Two-electron integral symmetry is turned on.
    62 basis functions,   103 primitive gaussians,    62 cartesian basis functions
    12 alpha electrons       12 beta electrons
       nuclear repulsion energy        59.8242252959 Hartrees.
 NAtoms=    4 NActive=    4 NUniq=    4 SFac= 7.50D-01 NAtFMM=   80 NAOKFM=F Big=F
 ------------------------------------------------------------------------------
 Polarizable Continuum Model (PCM)
 =================================
 Model                : PCM.
 Atomic radii         : SMD-Coulomb.
 Polarization charges : Total charges.
 Charge compensation  : None.
 Solution method      : Matrix inversion.
 Cavity type          : VdW (van der Waals Surface) (Alpha=1.000).
 Cavity algorithm     : GePol (No added spheres)
                        Default sphere list used, NSphG=    4.
                        Lebedev-Laikov grids with approx.  5.0 points / Ang**2.
                        Smoothing algorithm: Karplus/York (Gamma=1.0000).
                        Polarization charges: spherical gaussians, with
                                              point-specific exponents (IZeta= 3).
                        Self-potential: point-specific (ISelfS= 7).
                        Self-field    : sphere-specific E.n sum rule (ISelfD= 2).
 1st derivatives      : Analytical E(r).r(x)/FMM algorithm (CHGder, D1EAlg=3).
                        Cavity 1st derivative terms included.
 Solvent              : Water, Eps=  78.355300 Eps(inf)=   1.777849
 ------------------------------------------------------------------------------
 Spheres list:
 ISph  on   Nord    Re0     Alpha      Xe            Ye            Ze
    1   C      1    1.850   1.000      0.000000      0.447537      0.000000
    2   H      2    1.200   1.000     -0.248222      1.500324      0.000000
    3   O      3    1.520   1.000      1.150361     -0.227775      0.000000
    4   O      4    1.520   1.000     -1.119333     -0.295418      0.000000
 ------------------------------------------------------------------------------
 ------------------------------------------------------------------------------
 Atomic radii for non-electrostatic terms: SMD-CDS.
 ------------------------------------------------------------------------------
 Nuclear repulsion after PCM non-electrostatic terms =       59.8296977573 Hartrees.
 One-electron integrals computed using PRISM.
 NBasis=    62 RedAO= T  NBF=    46    16
 NBsUse=    62 1.00D-06 NBFU=    46    16
 Initial guess read from the read-write file.
 B after Tr=     0.000000    0.000000    0.000000
         Rot=    1.000000    0.000000    0.000000    0.000000 Ang=   0.00 deg.
 Initial guess orbital symmetries:
       Occupied  (A') (A') (A') (A') (A') (A') (A') (A') (A") (A')
                 (A") (A')
       Virtual   (A") (A') (A') (A') (A") (A') (A') (A') (A") (A')
                 (A") (A') (A') (A') (A') (A') (A") (A') (A') (A')
                 (A') (A') (A") (A") (A') (A') (A') (A") (A") (A')
                 (A') (A') (A') (A") (A') (A") (A') (A') (A') (A")
                 (A") (A') (A") (A') (A') (A') (A') (A') (A') (A')
 Harris functional with IExCor= 1009 diagonalized for initial guess.
 ExpMin= 4.38D-02 ExpMax= 5.48D+03 ExpMxC= 8.25D+02 IAcc=2 IRadAn=         0 AccDes= 0.00D+00
 HarFok:  IExCor= 1009 AccDes= 0.00D+00 IRadAn=         0 IDoV= 1
 ScaDFX=  1.000000  1.000000  1.000000  1.000000
 FoFCou: FMM=F IPFlag=           0 FMFlag=      100000 FMFlg1=           0
         NFxFlg=           0 DoJE=T BraDBF=F KetDBF=T FulRan=T
         Omega=  0.000000  0.000000  1.000000  0.000000  0.000000 ICntrl=     500 IOpCl=  0
         NMat0=    1 NMatS0=    1 NMatT0=    0 NMatD0=    1 NMtDS0=    0 NMtDT0=    0
         I1Cent=           4 NGrid=           0.
 Petite list used in FoFCou.
 Requested convergence on RMS density matrix=1.00D-08 within 128 cycles.
 Requested convergence on MAX density matrix=1.00D-06.
 Requested convergence on             energy=1.00D-06.
 No special actions if energy rises.
 Keep R1 ints in memory in canonical form, NReq=5052172.
 Error on total polarization charges =  0.05476
 SCF Done:  E(RM062X) =  -189.226683683     A.U. after   12 cycles
             Convg  =    0.2108D-08             -V/T =  2.0106
 SMD-CDS (non-electrostatic) energy             (kcal/mol) =       3.43
 (included in total energy above)
 D1PCM: PCM CHGder 1st derivatives, ID1Alg=3 FixD1E=F DoIter=F DoCFld=F I1PDM=0.
 Calling FoFJK, ICntrl=      2127 FMM=F ISym2X=1 I1Cent= 0 IOpClX= 0 NMat=1 NMatS=1 NMatT=0.
 ***** Axes restored to original set *****
 -------------------------------------------------------------------
 Center     Atomic                   Forces (Hartrees/Bohr)
 Number     Number              X              Y              Z
 -------------------------------------------------------------------
      1        6          -0.092413935    0.000001139    0.097339030
      2        1           0.026253674   -0.000000324    0.000411152
      3        8          -0.001849563    0.000000023   -0.087459245
      4        8           0.068009824   -0.000000838   -0.010290937
 -------------------------------------------------------------------
 Cartesian Forces:  Max     0.097339030 RMS     0.050898941

 GradGradGradGradGradGradGradGradGradGradGradGradGradGradGradGradGradGrad
 Berny optimization.
 Using GEDIIS/GDIIS optimizer.
 Internal  Forces:  Max     0.080869820 RMS     0.045891055
 Search for a local minimum.
 Step number   2 out of a maximum of   20
 All quantities printed in internal units (Hartrees-Bohrs-Radians)
 Mixed Optimization -- RFO/linear search
 Update second derivatives using D2CorX and points    1    2
 DE= -4.79D-02 DEPred=-4.40D-02 R= 1.09D+00
 SS=  1.41D+00  RLast= 3.00D-01 DXNew= 5.0454D-01 9.0000D-01
 Trust test= 1.09D+00 RLast= 3.00D-01 DXMaxT set to 5.05D-01
 The second derivative matrix:
                          R1        R2        R3        A1        A2
           R1           0.37159
           R2           0.00517   0.37572
           R3           0.00331  -0.01736   0.40757
           A1           0.00297  -0.02471  -0.01993   0.15052
           A2          -0.00192   0.01855   0.01789   0.00380   0.16095
           A3          -0.00380   0.03114   0.02455   0.01259  -0.00553
           D1           0.00000   0.00000   0.00000   0.00000   0.00000
                          A3        D1
           A3           0.23336
           D1           0.00000   0.01295
 Use linear search instead of GDIIS.
     Eigenvalues ---    0.01295   0.13838   0.20439   0.36966   0.38218
     Eigenvalues ---    0.416261000.00000
 RFO step:  Lambda=-6.67058964D-03 EMin= 1.29493782D-02
 Quartic linear search produced a step of  1.42692.
 Iteration  1 RMS(Cart)=  0.12523886 RMS(Int)=  0.05264710
 Iteration  2 RMS(Cart)=  0.05565306 RMS(Int)=  0.00161616
 Iteration  3 RMS(Cart)=  0.00133534 RMS(Int)=  0.00000094
 Iteration  4 RMS(Cart)=  0.00000099 RMS(Int)=  0.00000000
 ClnCor:  largest displacement from symmetrization is 6.08D-09 for atom     1.
 Variable       Old X    -DE/DX   Delta X   Delta X   Delta X     New X
                                 (Linear)    (Quad)   (Total)
    R1        2.04403   0.00975   0.03142   0.00352   0.03495   2.07898
    R2        2.52077  -0.08087  -0.25904   0.00489  -0.25415   2.26662
    R3        2.53877  -0.06752  -0.23335   0.03535  -0.19800   2.34078
    A1        2.33318  -0.04458  -0.18370  -0.15377  -0.33747   1.99571
    A2        1.92523   0.00547   0.02083   0.08501   0.10584   2.03106
    A3        2.02477   0.03911   0.16287   0.06876   0.23163   2.25641
    D1        3.14159   0.00000   0.00000   0.00000   0.00000   3.14159
         Item               Value     Threshold  Converged?
 Maximum Force            0.080870     0.000450     NO 
 RMS     Force            0.045891     0.000300     NO 
 Maximum Displacement     0.317528     0.001800     NO 
 RMS     Displacement     0.176822     0.001200     NO 
 Predicted change in Energy=-3.241962D-02
 GradGradGradGradGradGradGradGradGradGradGradGradGradGradGradGradGradGrad

                          Input orientation:                          
 ---------------------------------------------------------------------
 Center     Atomic      Atomic             Coordinates (Angstroms)
 Number     Number       Type             X           Y           Z
 ---------------------------------------------------------------------
      1          6           0       -0.211668    0.117523    0.098867
      2          1           0        0.371023    0.117516   -0.834296
      3          8           0        0.453355    0.117515    1.097068
      4          8           0       -1.444419    0.117538   -0.022229
 ---------------------------------------------------------------------
                    Distance matrix (angstroms):
                    1          2          3          4
     1  C    0.000000
     2  H    1.100146   0.000000
     3  O    1.199441   1.933118   0.000000
     4  O    1.238685   1.988790   2.203264   0.000000
 Stoichiometry    CHO2(1-)
 Framework group  CS[SG(CHO2)]
 Deg. of freedom     5
 Full point group                 CS      NOp   2
 Largest Abelian subgroup         CS      NOp   2
 Largest concise Abelian subgroup C1      NOp   1
                         Standard orientation:                         
 ---------------------------------------------------------------------
 Center     Atomic      Atomic             Coordinates (Angstroms)
 Number     Number       Type             X           Y           Z
 ---------------------------------------------------------------------
      1          6           0        0.000000    0.315587    0.000000
      2          1           0       -0.020613    1.415541    0.000000
      3          8           0        1.101852   -0.158314    0.000000
      4          8           0       -1.099275   -0.255320    0.000000
 ---------------------------------------------------------------------
 Rotational constants (GHZ):    111.4915587     13.0153741     11.6548076
 Standard basis: 6-31+G(d,p) (6D, 7F)
 There are    46 symmetry adapted basis functions of A'  symmetry.
 There are    16 symmetry adapted basis functions of A"  symmetry.
 Integral buffers will be    262144 words long.
 Raffenetti 2 integral format.
 Two-electron integral symmetry is turned on.
    62 basis functions,   103 primitive gaussians,    62 cartesian basis functions
    12 alpha electrons       12 beta electrons
       nuclear repulsion energy        64.2590302388 Hartrees.
 NAtoms=    4 NActive=    4 NUniq=    4 SFac= 7.50D-01 NAtFMM=   80 NAOKFM=F Big=F
 ------------------------------------------------------------------------------
 Polarizable Continuum Model (PCM)
 =================================
 Model                : PCM.
 Atomic radii         : SMD-Coulomb.
 Polarization charges : Total charges.
 Charge compensation  : None.
 Solution method      : Matrix inversion.
 Cavity type          : VdW (van der Waals Surface) (Alpha=1.000).
 Cavity algorithm     : GePol (No added spheres)
                        Default sphere list used, NSphG=    4.
                        Lebedev-Laikov grids with approx.  5.0 points / Ang**2.
                        Smoothing algorithm: Karplus/York (Gamma=1.0000).
                        Polarization charges: spherical gaussians, with
                                              point-specific exponents (IZeta= 3).
                        Self-potential: point-specific (ISelfS= 7).
                        Self-field    : sphere-specific E.n sum rule (ISelfD= 2).
 1st derivatives      : Analytical E(r).r(x)/FMM algorithm (CHGder, D1EAlg=3).
                        Cavity 1st derivative terms included.
 Solvent              : Water, Eps=  78.355300 Eps(inf)=   1.777849
 ------------------------------------------------------------------------------
 Spheres list:
 ISph  on   Nord    Re0     Alpha      Xe            Ye            Ze
    1   C      1    1.850   1.000      0.000000      0.315587      0.000000
    2   H      2    1.200   1.000     -0.020613      1.415541      0.000000
    3   O      3    1.520   1.000      1.101852     -0.158314      0.000000
    4   O      4    1.520   1.000     -1.099275     -0.255320      0.000000
 ------------------------------------------------------------------------------
 ------------------------------------------------------------------------------
 Atomic radii for non-electrostatic terms: SMD-CDS.
 ------------------------------------------------------------------------------
 Nuclear repulsion after PCM non-electrostatic terms =       64.2658400122 Hartrees.
 One-electron integrals computed using PRISM.
 NBasis=    62 RedAO= T  NBF=    46    16
 NBsUse=    62 1.00D-06 NBFU=    46    16
 Initial guess read from the read-write file.
 B after Tr=     0.000000    0.000000    0.000000
         Rot=    1.000000    0.000000    0.000000    0.000000 Ang=   0.00 deg.
 Initial guess orbital symmetries:
       Occupied  (A') (A') (A') (A') (A') (A') (A') (A') (A") (A')
                 (A") (A')
       Virtual   (A") (A') (A') (A') (A") (A') (A') (A") (A') (A')
                 (A") (A') (A') (A') (A') (A') (A") (A') (A') (A')
                 (A') (A') (A") (A') (A") (A') (A') (A") (A") (A')
                 (A') (A') (A') (A") (A") (A') (A') (A') (A') (A")
                 (A") (A') (A") (A') (A') (A') (A') (A') (A') (A')
 Harris functional with IExCor= 1009 diagonalized for initial guess.
 ExpMin= 4.38D-02 ExpMax= 5.48D+03 ExpMxC= 8.25D+02 IAcc=2 IRadAn=         0 AccDes= 0.00D+00
 HarFok:  IExCor= 1009 AccDes= 0.00D+00 IRadAn=         0 IDoV= 1
 ScaDFX=  1.000000  1.000000  1.000000  1.000000
 FoFCou: FMM=F IPFlag=           0 FMFlag=      100000 FMFlg1=           0
         NFxFlg=           0 DoJE=T BraDBF=F KetDBF=T FulRan=T
         Omega=  0.000000  0.000000  1.000000  0.000000  0.000000 ICntrl=     500 IOpCl=  0
         NMat0=    1 NMatS0=    1 NMatT0=    0 NMatD0=    1 NMtDS0=    0 NMtDT0=    0
         I1Cent=           4 NGrid=           0.
 Petite list used in FoFCou.
 Requested convergence on RMS density matrix=1.00D-08 within 128 cycles.
 Requested convergence on MAX density matrix=1.00D-06.
 Requested convergence on             energy=1.00D-06.
 No special actions if energy rises.
 Keep R1 ints in memory in canonical form, NReq=5039391.
 Error on total polarization charges =  0.05386
 SCF Done:  E(RM062X) =  -189.244269639     A.U. after   12 cycles
             Convg  =    0.4341D-08             -V/T =  2.0069
 SMD-CDS (non-electrostatic) energy             (kcal/mol) =       4.27
 (included in total energy above)
 D1PCM: PCM CHGder 1st derivatives, ID1Alg=3 FixD1E=F DoIter=F DoCFld=F I1PDM=0.
 Calling FoFJK, ICntrl=      2127 FMM=F ISym2X=1 I1Cent= 0 IOpClX= 0 NMat=1 NMatS=1 NMatT=0.
 ***** Axes restored to original set *****
 -------------------------------------------------------------------
 Center     Atomic                   Forces (Hartrees/Bohr)
 Number     Number              X              Y              Z
 -------------------------------------------------------------------
      1        6          -0.007338044    0.000000091   -0.067210385
      2        1           0.002563792   -0.000000032   -0.014210006
      3        8           0.044224200   -0.000000545    0.082394565
      4        8          -0.039449947    0.000000486   -0.000974174
 -------------------------------------------------------------------
 Cartesian Forces:  Max     0.082394565 RMS     0.035451224

 GradGradGradGradGradGradGradGradGradGradGradGradGradGradGradGradGradGrad
 Berny optimization.
 Using GEDIIS/GDIIS optimizer.
 Internal  Forces:  Max     0.093093425 RMS     0.038886201
 Search for a local minimum.
 Step number   3 out of a maximum of   20
 All quantities printed in internal units (Hartrees-Bohrs-Radians)
 Mixed Optimization -- RFO/linear search
 Update second derivatives using D2CorX and points    2    3
 DE= -1.76D-02 DEPred=-3.24D-02 R= 5.42D-01
 SS=  1.41D+00  RLast= 5.33D-01 DXNew= 8.4853D-01 1.5981D+00
 Trust test= 5.42D-01 RLast= 5.33D-01 DXMaxT set to 8.49D-01
 The second derivative matrix:
                          R1        R2        R3        A1        A2
           R1           0.37023
           R2           0.02435   0.58788
           R3           0.01782   0.09030   0.45485
           A1           0.01132   0.02317  -0.00185   0.15609
           A2          -0.00322   0.01468   0.01739   0.00416   0.16073
           A3          -0.01175  -0.00543   0.01316   0.01039  -0.00629
           D1           0.00000   0.00000   0.00000   0.00000   0.00000
                          A3        D1
           A3           0.23269
           D1           0.00000   0.01295
 Use linear search instead of GDIIS.
     Eigenvalues ---    0.01295   0.15012   0.20720   0.36782   0.41111
     Eigenvalues ---    0.637521000.00000
 RFO step:  Lambda=-5.17398607D-03 EMin= 1.29493782D-02
 Quartic linear search produced a step of -0.29675.
 Iteration  1 RMS(Cart)=  0.05193838 RMS(Int)=  0.00003712
 Iteration  2 RMS(Cart)=  0.00003818 RMS(Int)=  0.00000001
 Iteration  3 RMS(Cart)=  0.00000000 RMS(Int)=  0.00000001
 ClnCor:  largest displacement from symmetrization is 9.01D-09 for atom     1.
 Variable       Old X    -DE/DX   Delta X   Delta X   Delta X     New X
                                 (Linear)    (Quad)   (Total)
    R1        2.07898   0.01341  -0.01037   0.03776   0.02739   2.10636
    R2        2.26662   0.09309   0.07542   0.06162   0.13704   2.40366
    R3        2.34078   0.03935   0.05876  -0.01329   0.04546   2.38624
    A1        1.99571   0.01037   0.10015  -0.10368  -0.00353   1.99218
    A2        2.03106  -0.00139  -0.03141   0.03559   0.00419   2.03525
    A3        2.25641  -0.00898  -0.06874   0.06808  -0.00065   2.25575
    D1        3.14159   0.00000   0.00000   0.00000   0.00000   3.14159
         Item               Value     Threshold  Converged?
 Maximum Force            0.093093     0.000450     NO 
 RMS     Force            0.038886     0.000300     NO 
 Maximum Displacement     0.090245     0.001800     NO 
 RMS     Displacement     0.051931     0.001200     NO 
 Predicted change in Energy=-8.070003D-03
 GradGradGradGradGradGradGradGradGradGradGradGradGradGradGradGradGradGrad

                          Input orientation:                          
 ---------------------------------------------------------------------
 Center     Atomic      Atomic             Coordinates (Angstroms)
 Number     Number       Type             X           Y           Z
 ---------------------------------------------------------------------
      1          6           0       -0.218466    0.117523    0.086719
      2          1           0        0.374638    0.117516   -0.857024
      3          8           0        0.487437    0.117515    1.144824
      4          8           0       -1.475319    0.117539   -0.035108
 ---------------------------------------------------------------------
                    Distance matrix (angstroms):
                    1          2          3          4
     1  C    0.000000
     2  H    1.114640   0.000000
     3  O    1.271961   2.005024   0.000000
     4  O    1.262744   2.024324   2.290120   0.000000
 Stoichiometry    CHO2(1-)
 Framework group  CS[SG(CHO2)]
 Deg. of freedom     5
 Full point group                 CS      NOp   2
 Largest Abelian subgroup         CS      NOp   2
 Largest concise Abelian subgroup C1      NOp   1
                         Standard orientation:                         
 ---------------------------------------------------------------------
 Center     Atomic      Atomic             Coordinates (Angstroms)
 Number     Number       Type             X           Y           Z
 ---------------------------------------------------------------------
      1          6           0        0.000000    0.329423    0.000000
      2          1           0       -0.037329    1.443438    0.000000
      3          8           0       -1.142620   -0.229420    0.000000
      4          8           0        1.147286   -0.198077    0.000000
 ---------------------------------------------------------------------
 Rotational constants (GHZ):    104.8686556     12.0487742     10.8071034
 Standard basis: 6-31+G(d,p) (6D, 7F)
 There are    46 symmetry adapted basis functions of A'  symmetry.
 There are    16 symmetry adapted basis functions of A"  symmetry.
 Integral buffers will be    262144 words long.
 Raffenetti 2 integral format.
 Two-electron integral symmetry is turned on.
    62 basis functions,   103 primitive gaussians,    62 cartesian basis functions
    12 alpha electrons       12 beta electrons
       nuclear repulsion energy        61.9245343967 Hartrees.
 NAtoms=    4 NActive=    4 NUniq=    4 SFac= 7.50D-01 NAtFMM=   80 NAOKFM=F Big=F
 ------------------------------------------------------------------------------
 Polarizable Continuum Model (PCM)
 =================================
 Model                : PCM.
 Atomic radii         : SMD-Coulomb.
 Polarization charges : Total charges.
 Charge compensation  : None.
 Solution method      : Matrix inversion.
 Cavity type          : VdW (van der Waals Surface) (Alpha=1.000).
 Cavity algorithm     : GePol (No added spheres)
                        Default sphere list used, NSphG=    4.
                        Lebedev-Laikov grids with approx.  5.0 points / Ang**2.
                        Smoothing algorithm: Karplus/York (Gamma=1.0000).
                        Polarization charges: spherical gaussians, with
                                              point-specific exponents (IZeta= 3).
                        Self-potential: point-specific (ISelfS= 7).
                        Self-field    : sphere-specific E.n sum rule (ISelfD= 2).
 1st derivatives      : Analytical E(r).r(x)/FMM algorithm (CHGder, D1EAlg=3).
                        Cavity 1st derivative terms included.
 Solvent              : Water, Eps=  78.355300 Eps(inf)=   1.777849
 ------------------------------------------------------------------------------
 Spheres list:
 ISph  on   Nord    Re0     Alpha      Xe            Ye            Ze
    1   C      1    1.850   1.000      0.000000      0.329423      0.000000
    2   H      2    1.200   1.000     -0.037329      1.443438      0.000000
    3   O      3    1.520   1.000     -1.142620     -0.229420      0.000000
    4   O      4    1.520   1.000      1.147286     -0.198077      0.000000
 ------------------------------------------------------------------------------
 ------------------------------------------------------------------------------
 Atomic radii for non-electrostatic terms: SMD-CDS.
 ------------------------------------------------------------------------------
 Nuclear repulsion after PCM non-electrostatic terms =       61.9309802279 Hartrees.
 One-electron integrals computed using PRISM.
 NBasis=    62 RedAO= T  NBF=    46    16
 NBsUse=    62 1.00D-06 NBFU=    46    16
 Initial guess read from the read-write file.
 B after Tr=     0.000000    0.000000    0.000000
         Rot=    1.000000    0.000000    0.000000    0.000000 Ang=   0.00 deg.
 Initial guess orbital symmetries:
       Occupied  (A') (A') (A') (A') (A') (A') (A') (A') (A") (A")
                 (A') (A')
       Virtual   (A') (A') (A') (A") (A") (A') (A') (A") (A') (A")
                 (A') (A') (A') (A') (A') (A') (A") (A') (A') (A')
                 (A') (A') (A") (A') (A') (A") (A') (A") (A") (A')
                 (A') (A') (A') (A") (A") (A') (A') (A') (A") (A')
                 (A") (A") (A') (A') (A') (A') (A') (A') (A') (A')
 Harris functional with IExCor= 1009 diagonalized for initial guess.
 ExpMin= 4.38D-02 ExpMax= 5.48D+03 ExpMxC= 8.25D+02 IAcc=2 IRadAn=         0 AccDes= 0.00D+00
 HarFok:  IExCor= 1009 AccDes= 0.00D+00 IRadAn=         0 IDoV= 1
 ScaDFX=  1.000000  1.000000  1.000000  1.000000
 FoFCou: FMM=F IPFlag=           0 FMFlag=      100000 FMFlg1=           0
         NFxFlg=           0 DoJE=T BraDBF=F KetDBF=T FulRan=T
         Omega=  0.000000  0.000000  1.000000  0.000000  0.000000 ICntrl=     500 IOpCl=  0
         NMat0=    1 NMatS0=    1 NMatT0=    0 NMatD0=    1 NMtDS0=    0 NMtDT0=    0
         I1Cent=           4 NGrid=           0.
 Petite list used in FoFCou.
 Requested convergence on RMS density matrix=1.00D-08 within 128 cycles.
 Requested convergence on MAX density matrix=1.00D-06.
 Requested convergence on             energy=1.00D-06.
 No special actions if energy rises.
 Keep R1 ints in memory in canonical form, NReq=5041719.
 Error on total polarization charges =  0.05371
 SCF Done:  E(RM062X) =  -189.249791703     A.U. after   12 cycles
             Convg  =    0.4262D-08             -V/T =  2.0089
 SMD-CDS (non-electrostatic) energy             (kcal/mol) =       4.04
 (included in total energy above)
 D1PCM: PCM CHGder 1st derivatives, ID1Alg=3 FixD1E=F DoIter=F DoCFld=F I1PDM=0.
 Calling FoFJK, ICntrl=      2127 FMM=F ISym2X=1 I1Cent= 0 IOpClX= 0 NMat=1 NMatS=1 NMatT=0.
 ***** Axes restored to original set *****
 -------------------------------------------------------------------
 Center     Atomic                   Forces (Hartrees/Bohr)
 Number     Number              X              Y              Z
 -------------------------------------------------------------------
      1        6           0.010256986   -0.000000126   -0.000005800
      2        1          -0.003329627    0.000000041   -0.000139562
      3        8          -0.016269535    0.000000201   -0.007910683
      4        8           0.009342177   -0.000000115    0.008056046
 -------------------------------------------------------------------
 Cartesian Forces:  Max     0.016269535 RMS     0.007046066

 GradGradGradGradGradGradGradGradGradGradGradGradGradGradGradGradGradGrad
 Berny optimization.
 Using GEDIIS/GDIIS optimizer.
 Internal  Forces:  Max     0.015611070 RMS     0.009394040
 Search for a local minimum.
 Step number   4 out of a maximum of   20
 All quantities printed in internal units (Hartrees-Bohrs-Radians)
 Mixed Optimization -- RFO/linear search
 Update second derivatives using D2CorX and points    2    3    4
 DE= -5.52D-03 DEPred=-8.07D-03 R= 6.84D-01
 SS=  1.41D+00  RLast= 1.47D-01 DXNew= 1.4270D+00 4.4120D-01
 Trust test= 6.84D-01 RLast= 1.47D-01 DXMaxT set to 8.49D-01
 The second derivative matrix:
                          R1        R2        R3        A1        A2
           R1           0.36567
           R2           0.02774   0.72710
           R3           0.02958   0.18741   0.50395
           A1           0.00941   0.01193  -0.00829   0.16499
           A2          -0.01642  -0.03861   0.00264   0.01183   0.15729
           A3          -0.00659   0.02339   0.02659  -0.00085  -0.01516
           D1           0.00000   0.00000   0.00000   0.00000   0.00000
                          A3        D1
           A3           0.24720
           D1           0.00000   0.01295
 Use linear search instead of GDIIS.
     Eigenvalues ---    0.01295   0.14408   0.23070   0.36138   0.40264
     Eigenvalues ---    0.840361000.00000
 RFO step:  Lambda=-1.15714031D-03 EMin= 1.29493782D-02
 Quartic linear search produced a step of -0.18057.
 Iteration  1 RMS(Cart)=  0.03146260 RMS(Int)=  0.00059376
 Iteration  2 RMS(Cart)=  0.00056425 RMS(Int)=  0.00000008
 Iteration  3 RMS(Cart)=  0.00000009 RMS(Int)=  0.00000000
 ClnCor:  largest displacement from symmetrization is 1.37D-09 for atom     1.
 Variable       Old X    -DE/DX   Delta X   Delta X   Delta X     New X
                                 (Linear)    (Quad)   (Total)
    R1        2.10636  -0.00165  -0.00495  -0.00112  -0.00606   2.10030
    R2        2.40366  -0.01561  -0.02475   0.00247  -0.02228   2.38138
    R3        2.38624  -0.01008  -0.00821  -0.00163  -0.00984   2.37640
    A1        1.99218   0.00939   0.00064   0.05148   0.05212   2.04430
    A2        2.03525   0.00360  -0.00076   0.00167   0.00092   2.03617
    A3        2.25575  -0.01299   0.00012  -0.05315  -0.05303   2.20272
    D1        3.14159   0.00000   0.00000   0.00000   0.00000   3.14159
         Item               Value     Threshold  Converged?
 Maximum Force            0.015611     0.000450     NO 
 RMS     Force            0.009394     0.000300     NO 
 Maximum Displacement     0.052167     0.001800     NO 
 RMS     Displacement     0.031432     0.001200     NO 
 Predicted change in Energy=-7.771046D-04
 GradGradGradGradGradGradGradGradGradGradGradGradGradGradGradGradGradGrad

                          Input orientation:                          
 ---------------------------------------------------------------------
 Center     Atomic      Atomic             Coordinates (Angstroms)
 Number     Number       Type             X           Y           Z
 ---------------------------------------------------------------------
      1          6           0       -0.203884    0.117523    0.079252
      2          1           0        0.370018    0.117516   -0.872546
      3          8           0        0.459832    0.117515    1.150473
      4          8           0       -1.457674    0.117539   -0.017768
 ---------------------------------------------------------------------
                    Distance matrix (angstroms):
                    1          2          3          4
     1  C    0.000000
     2  H    1.111433   0.000000
     3  O    1.260172   2.025011   0.000000
     4  O    1.257538   2.017698   2.245354   0.000000
 Stoichiometry    CHO2(1-)
 Framework group  CS[SG(CHO2)]
 Deg. of freedom     5
 Full point group                 CS      NOp   2
 Largest Abelian subgroup         CS      NOp   2
 Largest concise Abelian subgroup C1      NOp   1
                         Standard orientation:                         
 ---------------------------------------------------------------------
 Center     Atomic      Atomic             Coordinates (Angstroms)
 Number     Number       Type             X           Y           Z
 ---------------------------------------------------------------------
      1          6           0        0.000000    0.347841    0.000000
      2          1           0       -0.002534    1.459270    0.000000
      3          8           0        1.122833   -0.224244    0.000000
      4          8           0       -1.122516   -0.219046    0.000000
 ---------------------------------------------------------------------
 Rotational constants (GHZ):     98.6471515     12.5341478     11.1210966
 Standard basis: 6-31+G(d,p) (6D, 7F)
 There are    46 symmetry adapted basis functions of A'  symmetry.
 There are    16 symmetry adapted basis functions of A"  symmetry.
 Integral buffers will be    262144 words long.
 Raffenetti 2 integral format.
 Two-electron integral symmetry is turned on.
    62 basis functions,   103 primitive gaussians,    62 cartesian basis functions
    12 alpha electrons       12 beta electrons
       nuclear repulsion energy        62.4837112813 Hartrees.
 NAtoms=    4 NActive=    4 NUniq=    4 SFac= 7.50D-01 NAtFMM=   80 NAOKFM=F Big=F
 ------------------------------------------------------------------------------
 Polarizable Continuum Model (PCM)
 =================================
 Model                : PCM.
 Atomic radii         : SMD-Coulomb.
 Polarization charges : Total charges.
 Charge compensation  : None.
 Solution method      : Matrix inversion.
 Cavity type          : VdW (van der Waals Surface) (Alpha=1.000).
 Cavity algorithm     : GePol (No added spheres)
                        Default sphere list used, NSphG=    4.
                        Lebedev-Laikov grids with approx.  5.0 points / Ang**2.
                        Smoothing algorithm: Karplus/York (Gamma=1.0000).
                        Polarization charges: spherical gaussians, with
                                              point-specific exponents (IZeta= 3).
                        Self-potential: point-specific (ISelfS= 7).
                        Self-field    : sphere-specific E.n sum rule (ISelfD= 2).
 1st derivatives      : Analytical E(r).r(x)/FMM algorithm (CHGder, D1EAlg=3).
                        Cavity 1st derivative terms included.
 Solvent              : Water, Eps=  78.355300 Eps(inf)=   1.777849
 ------------------------------------------------------------------------------
 Spheres list:
 ISph  on   Nord    Re0     Alpha      Xe            Ye            Ze
    1   C      1    1.850   1.000      0.000000      0.347841      0.000000
    2   H      2    1.200   1.000     -0.002534      1.459270      0.000000
    3   O      3    1.520   1.000      1.122833     -0.224244      0.000000
    4   O      4    1.520   1.000     -1.122516     -0.219046      0.000000
 ------------------------------------------------------------------------------
 ------------------------------------------------------------------------------
 Atomic radii for non-electrostatic terms: SMD-CDS.
 ------------------------------------------------------------------------------
 Nuclear repulsion after PCM non-electrostatic terms =       62.4902514601 Hartrees.
 One-electron integrals computed using PRISM.
 NBasis=    62 RedAO= T  NBF=    46    16
 NBsUse=    62 1.00D-06 NBFU=    46    16
 Initial guess read from the read-write file.
 B after Tr=     0.000000    0.000000    0.000000
         Rot=    1.000000    0.000000    0.000000    0.000000 Ang=   0.00 deg.
 Initial guess orbital symmetries:
       Occupied  (A') (A') (A') (A') (A') (A') (A') (A') (A") (A')
                 (A") (A')
       Virtual   (A') (A") (A') (A') (A") (A') (A') (A") (A') (A")
                 (A') (A') (A') (A') (A') (A') (A") (A') (A') (A')
                 (A') (A') (A") (A') (A') (A") (A') (A") (A") (A')
                 (A') (A') (A') (A") (A") (A') (A') (A') (A') (A")
                 (A") (A") (A') (A') (A') (A') (A') (A') (A') (A')
 Harris functional with IExCor= 1009 diagonalized for initial guess.
 ExpMin= 4.38D-02 ExpMax= 5.48D+03 ExpMxC= 8.25D+02 IAcc=2 IRadAn=         0 AccDes= 0.00D+00
 HarFok:  IExCor= 1009 AccDes= 0.00D+00 IRadAn=         0 IDoV= 1
 ScaDFX=  1.000000  1.000000  1.000000  1.000000
 FoFCou: FMM=F IPFlag=           0 FMFlag=      100000 FMFlg1=           0
         NFxFlg=           0 DoJE=T BraDBF=F KetDBF=T FulRan=T
         Omega=  0.000000  0.000000  1.000000  0.000000  0.000000 ICntrl=     500 IOpCl=  0
         NMat0=    1 NMatS0=    1 NMatT0=    0 NMatD0=    1 NMtDS0=    0 NMtDT0=    0
         I1Cent=           4 NGrid=           0.
 Petite list used in FoFCou.
 Requested convergence on RMS density matrix=1.00D-08 within 128 cycles.
 Requested convergence on MAX density matrix=1.00D-06.
 Requested convergence on             energy=1.00D-06.
 No special actions if energy rises.
 Keep R1 ints in memory in canonical form, NReq=5037961.
 Error on total polarization charges =  0.05370
 SCF Done:  E(RM062X) =  -189.250481524     A.U. after   12 cycles
             Convg  =    0.3687D-08             -V/T =  2.0086
 SMD-CDS (non-electrostatic) energy             (kcal/mol) =       4.10
 (included in total energy above)
 D1PCM: PCM CHGder 1st derivatives, ID1Alg=3 FixD1E=F DoIter=F DoCFld=F I1PDM=0.
 Calling FoFJK, ICntrl=      2127 FMM=F ISym2X=1 I1Cent= 0 IOpClX= 0 NMat=1 NMatS=1 NMatT=0.
 ***** Axes restored to original set *****
 -------------------------------------------------------------------
 Center     Atomic                   Forces (Hartrees/Bohr)
 Number     Number              X              Y              Z
 -------------------------------------------------------------------
      1        6           0.000516066   -0.000000006    0.002205449
      2        1           0.000316208   -0.000000004    0.000932745
      3        8           0.001805543   -0.000000022   -0.001353970
      4        8          -0.002637817    0.000000033   -0.001784225
 -------------------------------------------------------------------
 Cartesian Forces:  Max     0.002637817 RMS     0.001333388

 GradGradGradGradGradGradGradGradGradGradGradGradGradGradGradGradGradGrad
 Berny optimization.
 Using GEDIIS/GDIIS optimizer.
 Internal  Forces:  Max     0.003032307 RMS     0.001818847
 Search for a local minimum.
 Step number   5 out of a maximum of   20
 All quantities printed in internal units (Hartrees-Bohrs-Radians)
 Mixed Optimization -- RFO/linear search
 Update second derivatives using D2CorX and points    2    3    4    5
 DE= -6.90D-04 DEPred=-7.77D-04 R= 8.88D-01
 SS=  1.41D+00  RLast= 7.85D-02 DXNew= 1.4270D+00 2.3544D-01
 Trust test= 8.88D-01 RLast= 7.85D-02 DXMaxT set to 8.49D-01
 The second derivative matrix:
                          R1        R2        R3        A1        A2
           R1           0.36423
           R2           0.01952   0.68916
           R3           0.02354   0.17420   0.51592
           A1           0.01805   0.02805  -0.02798   0.19937
           A2          -0.01744  -0.03721  -0.00090   0.02962   0.15981
           A3          -0.01759  -0.00653   0.04309  -0.03283  -0.03181
           D1           0.00000   0.00000   0.00000   0.00000   0.00000
                          A3        D1
           A3           0.26603
           D1           0.00000   0.01295
 Use linear search instead of GDIIS.
     Eigenvalues ---    0.01295   0.13950   0.27298   0.36839   0.42718
     Eigenvalues ---    0.801401000.00000
 RFO step:  Lambda=-1.64767326D-05 EMin= 1.29493782D-02
 Quartic linear search produced a step of -0.14689.
 Iteration  1 RMS(Cart)=  0.00569856 RMS(Int)=  0.00001565
 Iteration  2 RMS(Cart)=  0.00001393 RMS(Int)=  0.00000001
 Iteration  3 RMS(Cart)=  0.00000000 RMS(Int)=  0.00000000
 ClnCor:  largest displacement from symmetrization is 3.52D-09 for atom     1.
 Variable       Old X    -DE/DX   Delta X   Delta X   Delta X     New X
                                 (Linear)    (Quad)   (Total)
    R1        2.10030  -0.00064   0.00089  -0.00213  -0.00124   2.09906
    R2        2.38138  -0.00020   0.00327  -0.00441  -0.00114   2.38024
    R3        2.37640   0.00277   0.00144   0.00311   0.00456   2.38096
    A1        2.04430  -0.00231  -0.00766  -0.00033  -0.00799   2.03631
    A2        2.03617  -0.00072  -0.00013  -0.00103  -0.00116   2.03500
    A3        2.20272   0.00303   0.00779   0.00136   0.00915   2.21188
    D1        3.14159   0.00000   0.00000   0.00000   0.00000   3.14159
         Item               Value     Threshold  Converged?
 Maximum Force            0.003032     0.000450     NO 
 RMS     Force            0.001819     0.000300     NO 
 Maximum Displacement     0.007949     0.001800     NO 
 RMS     Displacement     0.005697     0.001200     NO 
 Predicted change in Energy=-3.152916D-05
 GradGradGradGradGradGradGradGradGradGradGradGradGradGradGradGradGradGrad

                          Input orientation:                          
 ---------------------------------------------------------------------
 Center     Atomic      Atomic             Coordinates (Angstroms)
 Number     Number       Type             X           Y           Z
 ---------------------------------------------------------------------
      1          6           0       -0.205272    0.117523    0.080992
      2          1           0        0.370629    0.117516   -0.868831
      3          8           0        0.464039    0.117515    1.148014
      4          8           0       -1.461105    0.117539   -0.020764
 ---------------------------------------------------------------------
                    Distance matrix (angstroms):
                    1          2          3          4
     1  C    0.000000
     2  H    1.110777   0.000000
     3  O    1.259568   2.019007   0.000000
     4  O    1.259950   2.018531   2.252159   0.000000
 Stoichiometry    CHO2(1-)
 Framework group  CS[SG(CHO2)]
 Deg. of freedom     5
 Full point group                 CS      NOp   2
 Largest Abelian subgroup         CS      NOp   2
 Largest concise Abelian subgroup C1      NOp   1
                         Standard orientation:                         
 ---------------------------------------------------------------------
 Center     Atomic      Atomic             Coordinates (Angstroms)
 Number     Number       Type             X           Y           Z
 ---------------------------------------------------------------------
      1          6           0        0.000000    0.344571    0.000000
      2          1           0       -0.001208    1.455348    0.000000
      3          8           0        1.126155   -0.219597    0.000000
      4          8           0       -1.126004   -0.220750    0.000000
 ---------------------------------------------------------------------
 Rotational constants (GHZ):     99.7999072     12.4585379     11.0758788
 Standard basis: 6-31+G(d,p) (6D, 7F)
 There are    46 symmetry adapted basis functions of A'  symmetry.
 There are    16 symmetry adapted basis functions of A"  symmetry.
 Integral buffers will be    262144 words long.
 Raffenetti 2 integral format.
 Two-electron integral symmetry is turned on.
    62 basis functions,   103 primitive gaussians,    62 cartesian basis functions
    12 alpha electrons       12 beta electrons
       nuclear repulsion energy        62.4161831172 Hartrees.
 NAtoms=    4 NActive=    4 NUniq=    4 SFac= 7.50D-01 NAtFMM=   80 NAOKFM=F Big=F
 ------------------------------------------------------------------------------
 Polarizable Continuum Model (PCM)
 =================================
 Model                : PCM.
 Atomic radii         : SMD-Coulomb.
 Polarization charges : Total charges.
 Charge compensation  : None.
 Solution method      : Matrix inversion.
 Cavity type          : VdW (van der Waals Surface) (Alpha=1.000).
 Cavity algorithm     : GePol (No added spheres)
                        Default sphere list used, NSphG=    4.
                        Lebedev-Laikov grids with approx.  5.0 points / Ang**2.
                        Smoothing algorithm: Karplus/York (Gamma=1.0000).
                        Polarization charges: spherical gaussians, with
                                              point-specific exponents (IZeta= 3).
                        Self-potential: point-specific (ISelfS= 7).
                        Self-field    : sphere-specific E.n sum rule (ISelfD= 2).
 1st derivatives      : Analytical E(r).r(x)/FMM algorithm (CHGder, D1EAlg=3).
                        Cavity 1st derivative terms included.
 Solvent              : Water, Eps=  78.355300 Eps(inf)=   1.777849
 ------------------------------------------------------------------------------
 Spheres list:
 ISph  on   Nord    Re0     Alpha      Xe            Ye            Ze
    1   C      1    1.850   1.000      0.000000      0.344571      0.000000
    2   H      2    1.200   1.000     -0.001208      1.455348      0.000000
    3   O      3    1.520   1.000      1.126155     -0.219597      0.000000
    4   O      4    1.520   1.000     -1.126004     -0.220750      0.000000
 ------------------------------------------------------------------------------
 ------------------------------------------------------------------------------
 Atomic radii for non-electrostatic terms: SMD-CDS.
 ------------------------------------------------------------------------------
 Nuclear repulsion after PCM non-electrostatic terms =       62.4227097427 Hartrees.
 One-electron integrals computed using PRISM.
 NBasis=    62 RedAO= T  NBF=    46    16
 NBsUse=    62 1.00D-06 NBFU=    46    16
 Initial guess read from the read-write file.
 B after Tr=     0.000000    0.000000    0.000000
         Rot=    1.000000    0.000000    0.000000    0.000000 Ang=   0.00 deg.
 Initial guess orbital symmetries:
       Occupied  (A') (A') (A') (A') (A') (A') (A') (A') (A") (A")
                 (A') (A')
       Virtual   (A') (A') (A") (A') (A") (A') (A') (A") (A') (A")
                 (A') (A') (A') (A') (A') (A') (A") (A') (A') (A')
                 (A') (A') (A") (A') (A') (A") (A') (A") (A") (A')
                 (A') (A') (A') (A") (A") (A') (A') (A') (A') (A")
                 (A") (A") (A') (A') (A') (A') (A') (A') (A') (A')
 Requested convergence on RMS density matrix=1.00D-08 within 128 cycles.
 Requested convergence on MAX density matrix=1.00D-06.
 Requested convergence on             energy=1.00D-06.
 No special actions if energy rises.
 Keep R1 ints in memory in canonical form, NReq=5037731.
 Error on total polarization charges =  0.05368
 SCF Done:  E(RM062X) =  -189.250512460     A.U. after   10 cycles
             Convg  =    0.1673D-08             -V/T =  2.0086
 SMD-CDS (non-electrostatic) energy             (kcal/mol) =       4.10
 (included in total energy above)
 D1PCM: PCM CHGder 1st derivatives, ID1Alg=3 FixD1E=F DoIter=F DoCFld=F I1PDM=0.
 Calling FoFJK, ICntrl=      2127 FMM=F ISym2X=1 I1Cent= 0 IOpClX= 0 NMat=1 NMatS=1 NMatT=0.
 ***** Axes restored to original set *****
 -------------------------------------------------------------------
 Center     Atomic                   Forces (Hartrees/Bohr)
 Number     Number              X              Y              Z
 -------------------------------------------------------------------
      1        6          -0.000614988    0.000000008    0.000320746
      2        1           0.000052877   -0.000000001    0.000069330
      3        8          -0.000014562    0.000000000   -0.000332966
      4        8           0.000576674   -0.000000007   -0.000057110
 -------------------------------------------------------------------
 Cartesian Forces:  Max     0.000614988 RMS     0.000279223

 GradGradGradGradGradGradGradGradGradGradGradGradGradGradGradGradGradGrad
 Berny optimization.
 Using GEDIIS/GDIIS optimizer.
 Internal  Forces:  Max     0.000570165 RMS     0.000264931
 Search for a local minimum.
 Step number   6 out of a maximum of   20
 All quantities printed in internal units (Hartrees-Bohrs-Radians)
 Mixed Optimization -- En-DIIS/RFO-DIIS
 Update second derivatives using D2CorX and points    2    3    4    5    6
 DE= -3.09D-05 DEPred=-3.15D-05 R= 9.81D-01
 SS=  1.41D+00  RLast= 1.31D-02 DXNew= 1.4270D+00 3.9413D-02
 Trust test= 9.81D-01 RLast= 1.31D-02 DXMaxT set to 8.49D-01
 The second derivative matrix:
                          R1        R2        R3        A1        A2
           R1           0.36509
           R2           0.01775   0.67953
           R3           0.01669   0.17921   0.57489
           A1           0.01621   0.01523  -0.04639   0.19781
           A2          -0.01698  -0.03525  -0.00651   0.03202   0.16003
           A3          -0.01063   0.01655   0.06173  -0.02795  -0.03131
           D1           0.00000   0.00000   0.00000   0.00000   0.00000
                          A3        D1
           A3           0.24953
           D1           0.00000   0.01295
 Use linear search instead of GDIIS.
     Eigenvalues ---    0.01295   0.13783   0.25751   0.36719   0.45798
     Eigenvalues ---    0.822061000.00000
 RFO step:  Lambda=-1.08968964D-06 EMin= 1.29493782D-02
 Quartic linear search produced a step of  0.02111.
 Iteration  1 RMS(Cart)=  0.00057361 RMS(Int)=  0.00000025
 Iteration  2 RMS(Cart)=  0.00000025 RMS(Int)=  0.00000001
 ClnCor:  largest displacement from symmetrization is 7.08D-09 for atom     1.
 Variable       Old X    -DE/DX   Delta X   Delta X   Delta X     New X
                                 (Linear)    (Quad)   (Total)
    R1        2.09906  -0.00003  -0.00003   0.00008   0.00006   2.09912
    R2        2.38024  -0.00029  -0.00002  -0.00009  -0.00011   2.38012
    R3        2.38096  -0.00057   0.00010  -0.00125  -0.00116   2.37980
    A1        2.03631  -0.00019  -0.00017  -0.00098  -0.00115   2.03516
    A2        2.03500  -0.00002  -0.00002   0.00017   0.00015   2.03515
    A3        2.21188   0.00021   0.00019   0.00081   0.00100   2.21288
    D1        3.14159   0.00000   0.00000   0.00000   0.00000   3.14159
         Item               Value     Threshold  Converged?
 Maximum Force            0.000570     0.000450     NO 
 RMS     Force            0.000265     0.000300     YES
 Maximum Displacement     0.000849     0.001800     YES
 RMS     Displacement     0.000574     0.001200     YES
 Predicted change in Energy=-5.577785D-07
 GradGradGradGradGradGradGradGradGradGradGradGradGradGradGradGradGradGrad

                          Input orientation:                          
 ---------------------------------------------------------------------
 Center     Atomic      Atomic             Coordinates (Angstroms)
 Number     Number       Type             X           Y           Z
 ---------------------------------------------------------------------
      1          6           0       -0.205721    0.117523    0.081147
      2          1           0        0.370637    0.117516   -0.868435
      3          8           0        0.464286    0.117515    1.147659
      4          8           0       -1.460912    0.117539   -0.020960
 ---------------------------------------------------------------------
                    Distance matrix (angstroms):
                    1          2          3          4
     1  C    0.000000
     2  H    1.110808   0.000000
     3  O    1.259508   2.018268   0.000000
     4  O    1.259338   2.018115   2.252124   0.000000
 Stoichiometry    CHO2(1-)
 Framework group  CS[SG(CHO2)]
 Deg. of freedom     5
 Full point group                 CS      NOp   2
 Largest Abelian subgroup         CS      NOp   2
 Largest concise Abelian subgroup C1      NOp   1
                         Standard orientation:                         
 ---------------------------------------------------------------------
 Center     Atomic      Atomic             Coordinates (Angstroms)
 Number     Number       Type             X           Y           Z
 ---------------------------------------------------------------------
      1          6           0        0.000000    0.344073    0.000000
      2          1           0       -0.000165    1.454880    0.000000
      3          8           0       -1.126051   -0.220168    0.000000
      4          8           0        1.126072   -0.219747    0.000000
 ---------------------------------------------------------------------
 Rotational constants (GHZ):     99.9677875     12.4589327     11.0782555
 Standard basis: 6-31+G(d,p) (6D, 7F)
 There are    46 symmetry adapted basis functions of A'  symmetry.
 There are    16 symmetry adapted basis functions of A"  symmetry.
 Integral buffers will be    262144 words long.
 Raffenetti 2 integral format.
 Two-electron integral symmetry is turned on.
    62 basis functions,   103 primitive gaussians,    62 cartesian basis functions
    12 alpha electrons       12 beta electrons
       nuclear repulsion energy        62.4283041938 Hartrees.
 NAtoms=    4 NActive=    4 NUniq=    4 SFac= 7.50D-01 NAtFMM=   80 NAOKFM=F Big=F
 ------------------------------------------------------------------------------
 Polarizable Continuum Model (PCM)
 =================================
 Model                : PCM.
 Atomic radii         : SMD-Coulomb.
 Polarization charges : Total charges.
 Charge compensation  : None.
 Solution method      : Matrix inversion.
 Cavity type          : VdW (van der Waals Surface) (Alpha=1.000).
 Cavity algorithm     : GePol (No added spheres)
                        Default sphere list used, NSphG=    4.
                        Lebedev-Laikov grids with approx.  5.0 points / Ang**2.
                        Smoothing algorithm: Karplus/York (Gamma=1.0000).
                        Polarization charges: spherical gaussians, with
                                              point-specific exponents (IZeta= 3).
                        Self-potential: point-specific (ISelfS= 7).
                        Self-field    : sphere-specific E.n sum rule (ISelfD= 2).
 1st derivatives      : Analytical E(r).r(x)/FMM algorithm (CHGder, D1EAlg=3).
                        Cavity 1st derivative terms included.
 Solvent              : Water, Eps=  78.355300 Eps(inf)=   1.777849
 ------------------------------------------------------------------------------
 Spheres list:
 ISph  on   Nord    Re0     Alpha      Xe            Ye            Ze
    1   C      1    1.850   1.000      0.000000      0.344073      0.000000
    2   H      2    1.200   1.000     -0.000165      1.454880      0.000000
    3   O      3    1.520   1.000     -1.126051     -0.220168      0.000000
    4   O      4    1.520   1.000      1.126072     -0.219747      0.000000
 ------------------------------------------------------------------------------
 ------------------------------------------------------------------------------
 Atomic radii for non-electrostatic terms: SMD-CDS.
 ------------------------------------------------------------------------------
 Nuclear repulsion after PCM non-electrostatic terms =       62.4348331271 Hartrees.
 One-electron integrals computed using PRISM.
 NBasis=    62 RedAO= T  NBF=    46    16
 NBsUse=    62 1.00D-06 NBFU=    46    16
 Initial guess read from the read-write file.
 B after Tr=     0.000000    0.000000    0.000000
         Rot=    1.000000    0.000000    0.000000    0.000000 Ang=   0.00 deg.
 Initial guess orbital symmetries:
       Occupied  (A') (A') (A') (A') (A') (A') (A') (A') (A") (A")
                 (A') (A')
       Virtual   (A') (A') (A") (A') (A") (A') (A') (A") (A') (A")
                 (A') (A') (A') (A') (A') (A') (A") (A') (A') (A')
                 (A') (A') (A") (A') (A') (A") (A') (A") (A") (A')
                 (A') (A') (A') (A") (A") (A') (A') (A') (A') (A")
                 (A") (A") (A') (A') (A') (A') (A') (A') (A') (A')
 Requested convergence on RMS density matrix=1.00D-08 within 128 cycles.
 Requested convergence on MAX density matrix=1.00D-06.
 Requested convergence on             energy=1.00D-06.
 No special actions if energy rises.
 Keep R1 ints in memory in canonical form, NReq=5037731.
 Error on total polarization charges =  0.05368
 SCF Done:  E(RM062X) =  -189.250512960     A.U. after   13 cycles
             Convg  =    0.3150D-08             -V/T =  2.0086
 SMD-CDS (non-electrostatic) energy             (kcal/mol) =       4.10
 (included in total energy above)
 D1PCM: PCM CHGder 1st derivatives, ID1Alg=3 FixD1E=F DoIter=F DoCFld=F I1PDM=0.
 Calling FoFJK, ICntrl=      2127 FMM=F ISym2X=1 I1Cent= 0 IOpClX= 0 NMat=1 NMatS=1 NMatT=0.
 ***** Axes restored to original set *****
 -------------------------------------------------------------------
 Center     Atomic                   Forces (Hartrees/Bohr)
 Number     Number              X              Y              Z
 -------------------------------------------------------------------
      1        6           0.000123998   -0.000000002    0.000045098
      2        1           0.000018345    0.000000000   -0.000012485
      3        8          -0.000057549    0.000000001   -0.000055881
      4        8          -0.000084793    0.000000001    0.000023268
 -------------------------------------------------------------------
 Cartesian Forces:  Max     0.000123998 RMS     0.000051694

 GradGradGradGradGradGradGradGradGradGradGradGradGradGradGradGradGradGrad
 Berny optimization.
 Using GEDIIS/GDIIS optimizer.
 Internal  Forces:  Max     0.000082624 RMS     0.000047520
 Search for a local minimum.
 Step number   7 out of a maximum of   20
 All quantities printed in internal units (Hartrees-Bohrs-Radians)
 Mixed Optimization -- En-DIIS/RFO-DIIS
 Swaping is turned off.
 Update second derivatives using D2CorX and points    2    3    4    5    6
                                                      7
 DE= -5.00D-07 DEPred=-5.58D-07 R= 8.97D-01
 Trust test= 8.97D-01 RLast= 1.92D-03 DXMaxT set to 8.49D-01
 The second derivative matrix:
                          R1        R2        R3        A1        A2
           R1           0.36580
           R2           0.01872   0.65653
           R3           0.02534   0.14439   0.62270
           A1           0.02236  -0.00009  -0.04158   0.19078
           A2          -0.01493  -0.03560   0.00383   0.03574   0.16203
           A3          -0.01395   0.03399   0.03384  -0.03235  -0.03623
           D1           0.00000   0.00000   0.00000   0.00000   0.00000
                          A3        D1
           A3           0.26320
           D1           0.00000   0.01295
     Eigenvalues ---    0.01295   0.13280   0.28064   0.37093   0.49902
     Eigenvalues ---    0.794201000.00000
 En-DIIS/RFO-DIIS IScMMF=        0 using points:     7    6
 RFO step:  Lambda=-2.34993523D-08.
 DIIS coeffs:      0.89553      0.10447
 Iteration  1 RMS(Cart)=  0.00011027 RMS(Int)=  0.00000001
 Iteration  2 RMS(Cart)=  0.00000000 RMS(Int)=  0.00000000
 ClnCor:  largest displacement from symmetrization is 4.00D-09 for atom     1.
 Variable       Old X    -DE/DX   Delta X   Delta X   Delta X     New X
                                  (DIIS)     (GDIIS)  (Total)
    R1        2.09912   0.00002  -0.00001   0.00005   0.00005   2.09917
    R2        2.38012  -0.00008   0.00001  -0.00016  -0.00015   2.37998
    R3        2.37980   0.00008   0.00012   0.00005   0.00017   2.37998
    A1        2.03516   0.00001   0.00012  -0.00009   0.00003   2.03519
    A2        2.03515   0.00003  -0.00002   0.00012   0.00011   2.03526
    A3        2.21288  -0.00004  -0.00010  -0.00003  -0.00014   2.21274
    D1        3.14159   0.00000   0.00000   0.00000   0.00000   3.14159
         Item               Value     Threshold  Converged?
 Maximum Force            0.000083     0.000450     YES
 RMS     Force            0.000048     0.000300     YES
 Maximum Displacement     0.000153     0.001800     YES
 RMS     Displacement     0.000110     0.001200     YES
 Predicted change in Energy=-1.769349D-08
 Optimization completed.
    -- Stationary point found.
                           ----------------------------
                           !   Optimized Parameters   !
[...]
 Atomic radii for non-electrostatic terms: SMD-CDS.
 ------------------------------------------------------------------------------
 Nuclear repulsion after PCM non-electrostatic terms =       62.4348331271 Hartrees.
 One-electron integrals computed using PRISM.
 NBasis=    62 RedAO= T  NBF=    46    16
 NBsUse=    62 1.00D-06 NBFU=    46    16
 Initial guess read from the checkpoint file:  D:\Documents\rayGit\FQ\quimicaComp
 utacional\p4Pka\reactivos\formeateM062x.chk
 B after Tr=     0.000000    0.000000    0.000000
         Rot=    1.000000    0.000000    0.000000    0.000000 Ang=   0.00 deg.
 Initial guess orbital symmetries:
       Occupied  (A') (A') (A') (A') (A') (A') (A') (A') (A") (A")
                 (A') (A')
       Virtual   (A') (A') (A") (A') (A") (A') (A') (A") (A') (A")
                 (A') (A') (A') (A') (A') (A') (A") (A') (A') (A')
                 (A') (A') (A") (A') (A') (A") (A') (A") (A") (A')
                 (A') (A') (A') (A") (A") (A') (A') (A') (A') (A")
                 (A") (A") (A') (A') (A') (A') (A') (A') (A') (A')
 Requested convergence on RMS density matrix=1.00D-08 within 128 cycles.
 Requested convergence on MAX density matrix=1.00D-06.
 Requested convergence on             energy=1.00D-06.
 No special actions if energy rises.
 Keep R1 ints in memory in canonical form, NReq=5037731.
 Error on total polarization charges =  0.05368
 SCF Done:  E(RM062X) =  -189.250512960     A.U. after    1 cycles
             Convg  =    0.3287D-09             -V/T =  2.0086
 SMD-CDS (non-electrostatic) energy             (kcal/mol) =       4.10
 (included in total energy above)
 Range of M.O.s used for correlation:     1    62
 NBasis=    62 NAE=    12 NBE=    12 NFC=     0 NFV=     0
 NROrb=     62 NOA=    12 NOB=    12 NVA=    50 NVB=    50
 Symmetrizing basis deriv contribution to polar:
 IMax=3 JMax=2 DiffMx= 0.00D+00
 G2DrvN: will do     5 centers at a time, making    1 passes doing MaxLOS=2.
 Calling FoFCou, ICntrl=  3107 FMM=F I1Cent=   0 AccDes= 0.00D+00.
 FoFDir/FoFCou used for L=0 through L=2.
 G2PCM: DoFxE=T DoFxN=T DoGrad=T DoPD/DQ/DG=FFF NFrqRd=   0 IEInf=0 DoCFld=F IF1Alg=4.
 End of G2Drv Frequency-dependent properties file   721 does not exist.
 End of G2Drv Frequency-dependent properties file   722 does not exist.
          IDoAtm=1111
 NEqPCM:  Using equilibrium solvation (IEInf=0, Eps=  78.3553, EpsInf=   1.7778)
          Differentiating once with respect to electric field.
                with respect to dipole field.
          Differentiating once with respect to nuclear coordinates.
          Keep R1 ints in memory in canonical form, NReq=2729096.
          There are    15 degrees of freedom in the 1st order CPHF.  IDoFFX=5.
     12 vectors produced by pass  0 Test12= 4.00D-15 6.67D-09 XBig12= 1.62D+01 2.73D+00.
 AX will form    12 AO Fock derivatives at one time.
     12 vectors produced by pass  1 Test12= 4.00D-15 6.67D-09 XBig12= 3.74D+00 6.01D-01.
     12 vectors produced by pass  2 Test12= 4.00D-15 6.67D-09 XBig12= 4.87D-02 7.13D-02.
     12 vectors produced by pass  3 Test12= 4.00D-15 6.67D-09 XBig12= 4.04D-04 6.83D-03.
     12 vectors produced by pass  4 Test12= 4.00D-15 6.67D-09 XBig12= 3.34D-06 5.47D-04.
     12 vectors produced by pass  5 Test12= 4.00D-15 6.67D-09 XBig12= 1.58D-08 5.43D-05.
     12 vectors produced by pass  6 Test12= 4.00D-15 6.67D-09 XBig12= 6.75D-11 2.45D-06.
      6 vectors produced by pass  7 Test12= 4.00D-15 6.67D-09 XBig12= 2.09D-13 2.08D-07.
      1 vectors produced by pass  8 Test12= 4.00D-15 6.67D-09 XBig12= 9.84D-16 9.53D-09.
 Inverted reduced A of dimension    91 with in-core refinement.
 Isotropic polarizability for W=    0.000000       30.39 Bohr**3.
 End of Minotr Frequency-dependent properties file   721 does not exist.
 End of Minotr Frequency-dependent properties file   722 does not exist.

 **********************************************************************

            Population analysis using the SCF density.

 **********************************************************************

 Orbital symmetries:
       Occupied  (A') (A') (A') (A') (A') (A') (A') (A') (A") (A")
                 (A') (A')
       Virtual   (A') (A') (A") (A') (A") (A') (A') (A") (A') (A")
                 (A') (A') (A') (A') (A') (A') (A") (A') (A') (A')
                 (A') (A') (A") (A') (A') (A") (A') (A") (A") (A')
                 (A') (A') (A') (A") (A") (A') (A') (A') (A') (A")
                 (A") (A") (A') (A') (A') (A') (A') (A') (A') (A')
 The electronic state is 1-A'.
 Alpha  occ. eigenvalues --  -19.60353 -19.60350 -10.64362  -1.15814  -1.06497
 Alpha  occ. eigenvalues --   -0.64114  -0.53615  -0.49870  -0.47759  -0.33478
 Alpha  occ. eigenvalues --   -0.33317  -0.32501
 Alpha virt. eigenvalues --    0.04383   0.05998   0.06014   0.06105   0.09786
 Alpha virt. eigenvalues --    0.20020   0.20491   0.22910   0.24704   0.27316
 Alpha virt. eigenvalues --    0.27507   0.28727   0.30429   0.32427   0.49561
 Alpha virt. eigenvalues --    0.50600   0.71794   0.84772   0.85402   0.98482
 Alpha virt. eigenvalues --    1.10452   1.22997   1.26072   1.30456   1.31821
 Alpha virt. eigenvalues --    1.32004   1.36033   1.49632   1.51981   1.57161
 Alpha virt. eigenvalues --    1.60092   1.80005   1.86329   1.89169   1.90222
 Alpha virt. eigenvalues --    2.00357   2.00674   2.23556   2.29229   2.30124
 Alpha virt. eigenvalues --    2.61670   2.74870   2.82791   3.00210   3.08169
 Alpha virt. eigenvalues --    3.09615   3.46984   4.12172   4.18483   4.51311
          Condensed to atoms (all electrons):
              1          2          3          4
     1  C    4.527081   0.453365   0.312647   0.312719
     2  H    0.453365   0.648451  -0.102479  -0.102492
     3  O    0.312647  -0.102479   8.685145  -0.146504
     4  O    0.312719  -0.102492  -0.146504   8.684810
 Mulliken atomic charges:
              1
     1  C    0.394187
     2  H    0.103154
     3  O   -0.748809
     4  O   -0.748533
 Sum of Mulliken atomic charges =  -1.00000
 Mulliken charges with hydrogens summed into heavy atoms:
              1
     1  C    0.497342
     3  O   -0.748809
     4  O   -0.748533
 Sum of Mulliken charges with hydrogens summed into heavy atoms =  -1.00000
 APT atomic charges:
              1
     1  C    1.861570
     2  H   -0.090059
     3  O   -1.385801
     4  O   -1.385710
 Sum of APT charges=  -1.00000
 APT Atomic charges with hydrogens summed into heavy atoms:
              1
     1  C    1.771511
     2  H    0.000000
     3  O   -1.385801
     4  O   -1.385710
 Sum of APT charges=  -1.00000
 Electronic spatial extent (au):  <R**2>=            135.5863
 Charge=             -1.0000 electrons
 Dipole moment (field-independent basis, Debye):
    X=              0.0013    Y=              2.8923    Z=              0.0000  Tot=              2.8923
 Quadrupole moment (field-independent basis, Debye-Ang):
   XX=            -29.7779   YY=            -19.1706   ZZ=            -18.6744
   XY=             -0.0021   XZ=              0.0000   YZ=              0.0000
 Traceless Quadrupole moment (field-independent basis, Debye-Ang):
   XX=             -7.2369   YY=              3.3704   ZZ=              3.8666
   XY=             -0.0021   XZ=              0.0000   YZ=              0.0000
 Octapole moment (field-independent basis, Debye-Ang**2):
  XXX=              0.0043  YYY=              2.5361  ZZZ=              0.0000  XYY=              0.0016
  XXY=              1.8362  XXZ=              0.0000  XZZ=              0.0013  YZZ=              0.2928
  YYZ=              0.0000  XYZ=              0.0000
 Hexadecapole moment (field-independent basis, Debye-Ang**3):
 XXXX=           -137.4515 YYYY=            -37.0591 ZZZZ=            -18.4893 XXXY=             -0.0113
 XXXZ=              0.0000 YYYX=             -0.0098 YYYZ=              0.0000 ZZZX=              0.0000
 ZZZY=              0.0000 XXYY=            -27.7347 XXZZ=            -24.1323 YYZZ=             -9.5895
 XXYZ=              0.0000 YYXZ=              0.0000 ZZXY=             -0.0032
 N-N= 6.243483312712D+01 E-N=-5.767849535719D+02  KE= 1.876350490121D+02
 Symmetry A'   KE= 1.798877321603D+02
 Symmetry A"   KE= 7.747316851812D+00
  Exact polarizability:  43.119   0.003  29.898   0.000   0.000  18.146
 Approx polarizability:  35.385   0.003  22.917   0.000   0.000  15.840
 D2PCM: PCM CHGder 2nd derivatives, FixD1E=F FixD2E=F DoIter=F DoCFld=F I1PDM=0
 Calling FoFJK, ICntrl=    100127 FMM=F ISym2X=1 I1Cent= 0 IOpClX= 0 NMat=1 NMatS=1 NMatT=0.
 Full mass-weighted force constant matrix:
 Low frequencies ---    0.0020    0.0022    0.0029   45.2096   92.7199  118.7838
 Low frequencies ---  754.2715 1104.1665 1392.4766
 Diagonal vibrational polarizability:
       18.9750246       6.5966661       0.0355987
 Harmonic frequencies (cm**-1), IR intensities (KM/Mole), Raman scattering
 activities (A**4/AMU), depolarization ratios for plane and unpolarized
 incident light, reduced masses (AMU), force constants (mDyne/A),
 and normal coordinates:
                     1                      2                      3
                    A'                     A"                     A'
 Frequencies --   754.2715              1104.1171              1392.4766
 Red. masses --    11.6006                 1.7547                10.2885
 Frc consts  --     3.8885                 1.2603                11.7538
 IR Inten    --    64.1825                 1.6126               201.6443
  Atom  AN      X      Y      Z        X      Y      Z        X      Y      Z
     1   6     0.00   0.50   0.00     0.00   0.00   0.24     0.00   0.59   0.00
     2   1     0.00   0.48   0.00     0.00   0.00  -0.97     0.02   0.54   0.00
     3   8     0.47  -0.20   0.00     0.00   0.00  -0.06    -0.36  -0.24   0.00
     4   8    -0.47  -0.20   0.00     0.00   0.00  -0.06     0.35  -0.24   0.00
                     4                      5                      6
                    A'                     A'                     A'
 Frequencies --  1415.6380              1594.8118              2979.9813
 Red. masses --     1.2044                 5.7907                 1.0772
 Frc consts  --     1.4221                 8.6776                 5.6359
 IR Inten    --   208.1633              1529.1413               251.5870
  Atom  AN      X      Y      Z        X      Y      Z        X      Y      Z
     1   6     0.05   0.00   0.00     0.57   0.00   0.00     0.00  -0.08   0.00
     2   1     0.99   0.00   0.00    -0.77   0.00   0.00     0.00   1.00   0.00
     3   8    -0.05  -0.06   0.00    -0.19  -0.07   0.00     0.00   0.00   0.00
     4   8    -0.05   0.06   0.00    -0.19   0.07   0.00     0.00   0.00   0.00

 -------------------
 - Thermochemistry -
 -------------------
 Temperature   298.150 Kelvin.  Pressure   1.00000 Atm.
 Atom     1 has atomic number  6 and mass  12.00000
 Atom     2 has atomic number  1 and mass   1.00783
 Atom     3 has atomic number  8 and mass  15.99491
 Atom     4 has atomic number  8 and mass  15.99491
 Molecular mass:    44.99765 amu.
 Principal axes and moments of inertia in atomic units:
                           1         2         3
     Eigenvalues --    18.05323 144.85520 162.90843
           X            1.00000  -0.00020   0.00000
           Y            0.00020   1.00000   0.00000
           Z            0.00000   0.00000   1.00000
 This molecule is an asymmetric top.
 Rotational symmetry number  1.
 Rotational temperatures (Kelvin)      4.79769     0.59793     0.53167
 Rotational constants (GHZ):          99.96779    12.45893    11.07826
 Zero-point vibrational energy      55275.2 (Joules/Mol)
                                   13.21110 (Kcal/Mol)
 Vibrational temperatures:   1085.23  1588.58  2003.46  2036.78  2294.58
          (Kelvin)           4287.52
 
 Zero-point correction=                           0.021053 (Hartree/Particle)
 Thermal correction to Energy=                    0.024021
 Thermal correction to Enthalpy=                  0.024965
 Thermal correction to Gibbs Free Energy=        -0.002769
 Sum of electronic and zero-point Energies=           -189.229460
 Sum of electronic and thermal Energies=              -189.226492
 Sum of electronic and thermal Enthalpies=            -189.225548
 Sum of electronic and thermal Free Energies=         -189.253282
 
                     E (Thermal)             CV                S
                      KCal/Mol        Cal/Mol-Kelvin    Cal/Mol-Kelvin
 Total                   15.073              7.230             58.372
 Electronic               0.000              0.000              0.000
 Translational            0.889              2.981             37.338
 Rotational               0.889              2.981             20.682
 Vibrational             13.296              1.268              0.352
                       Q            Log10(Q)             Ln(Q)
 Total Bot       0.187877D+02          1.273873          2.933200
 Total V=0       0.907114D+11         10.957662         25.230949
 Vib (Bot)       0.214324D-09         -9.668930        -22.263534
 Vib (V=0)       0.103481D+01          0.014859          0.034215
 Electronic      0.100000D+01          0.000000          0.000000
 Translational   0.118642D+08          7.074240         16.289040
 Rotational      0.738861D+04          3.868563          8.907695
 ***** Axes restored to original set *****
 -------------------------------------------------------------------
 Center     Atomic                   Forces (Hartrees/Bohr)
 Number     Number              X              Y              Z
 -------------------------------------------------------------------
      1        6           0.000123998   -0.000000002    0.000045099
      2        1           0.000018345    0.000000000   -0.000012486
      3        8          -0.000057549    0.000000001   -0.000055881
      4        8          -0.000084793    0.000000001    0.000023268
 -------------------------------------------------------------------
 Cartesian Forces:  Max     0.000123998 RMS     0.000051694

 GradGradGradGradGradGradGradGradGradGradGradGradGradGradGradGradGradGrad
 Berny optimization.
 Internal  Forces:  Max     0.000082624 RMS     0.000047520
 Search for a local minimum.
 Step number   1 out of a maximum of    2
 All quantities printed in internal units (Hartrees-Bohrs-Radians)
 Second derivative matrix not updated -- analytic derivatives used.
 The second derivative matrix:
                          R1        R2        R3        A1        A2
           R1           0.31740
           R2           0.02859   0.62947
           R3           0.02860   0.12958   0.63018
           A1           0.01146   0.01462  -0.04600   0.12959
           A2           0.01147  -0.04600   0.01465  -0.03134   0.12964
           A3          -0.02293   0.03138   0.03135  -0.09826  -0.09831
           D1           0.00000   0.00000   0.00000   0.00000   0.00000
                          A3        D1
           A3           0.19656
           D1           0.00000   0.08728
     Eigenvalues ---    0.08728   0.15044   0.26657   0.33637   0.51075
     Eigenvalues ---    0.768721000.00000
 Angle between quadratic step and forces=  13.34 degrees.
 Linear search not attempted -- first point.
 Iteration  1 RMS(Cart)=  0.00009920 RMS(Int)=  0.00000000
 Iteration  2 RMS(Cart)=  0.00000000 RMS(Int)=  0.00000000
 ClnCor:  largest displacement from symmetrization is 4.54D-12 for atom     1.
 Variable       Old X    -DE/DX   Delta X   Delta X   Delta X     New X
                                 (Linear)    (Quad)   (Total)
    R1        2.09912   0.00002   0.00000   0.00005   0.00005   2.09917
    R2        2.38012  -0.00008   0.00000  -0.00015  -0.00015   2.37997
    R3        2.37980   0.00008   0.00000   0.00017   0.00017   2.37997
    A1        2.03516   0.00001   0.00000   0.00006   0.00006   2.03522
    A2        2.03515   0.00003   0.00000   0.00007   0.00007   2.03522
    A3        2.21288  -0.00004   0.00000  -0.00013  -0.00013   2.21275
    D1        3.14159   0.00000   0.00000   0.00000   0.00000   3.14159
         Item               Value     Threshold  Converged?
 Maximum Force            0.000083     0.000450     YES
 RMS     Force            0.000048     0.000300     YES
 Maximum Displacement     0.000129     0.001800     YES
 RMS     Displacement     0.000099     0.001200     YES
 Predicted change in Energy=-1.719478D-08
 Optimization completed.
    -- Stationary point found.
                           ----------------------------
                           !   Optimized Parameters   !
                           ! (Angstroms and Degrees)  !
 --------------------------                            --------------------------
 ! Name  Definition              Value          Derivative Info.                !
 --------------------------------------------------------------------------------
 ! R1    R(1,2)                  1.1108         -DE/DX =    0.0                 !
 ! R2    R(1,3)                  1.2595         -DE/DX =   -0.0001              !
 ! R3    R(1,4)                  1.2593         -DE/DX =    0.0001              !
 ! A1    A(2,1,3)              116.606          -DE/DX =    0.0                 !
 ! A2    A(2,1,4)              116.6055         -DE/DX =    0.0                 !
 ! A3    A(3,1,4)              126.7886         -DE/DX =    0.0                 !
 ! D1    D(2,1,4,3)            180.0            -DE/DX =    0.0                 !
 --------------------------------------------------------------------------------
 GradGradGradGradGradGradGradGradGradGradGradGradGradGradGradGradGradGrad

 1|1|UNPC-DESKTOP-319GPER|Freq|RM062X|6-31+G(d,p)|C1H1O2(1-)|SAGAD|19-J
 an-2021|0||#N Geom=AllCheck Guess=TCheck SCRF=Check GenChk RM062X/6-31
 +G(d,p) Freq||formeate m062x||-1,1|C,-0.2057207355,0.1175231788,0.0811
 465207|H,0.3706374872,0.1175160786,-0.8684347742|O,0.4642862598,0.1175
 149194,1.1476594258|O,-1.4609121916,0.1175386472,-0.0209600223||Versio
 n=IA32W-G09RevA.02|State=1-A'|HF=-189.250513|RMSD=3.287e-010|RMSF=5.16
 9e-005|ZeroPoint=0.0210532|Thermal=0.0240209|Dipole=0.589845,-0.000007
 3,-0.9730865|DipoleDeriv=3.0742874,-0.0000338,0.8625691,-0.0000338,0.3
 337236,-0.0000106,0.8625223,-0.0000106,2.1766997,-0.0980878,0.0000027,
 0.1840298,0.0000027,0.1175451,-0.0000023,0.1840548,-0.0000023,-0.28963
 51,-1.5569371,0.0000102,-0.49591,0.0000102,-0.725767,0.0000061,-0.9992
 02,0.0000123,-1.8747001,-2.4192626,0.0000209,-0.5506889,0.0000209,-0.7
 255017,0.0000068,-0.0473752,0.0000006,-1.0123645|Polar=39.5588332,-0.0
 002639,18.1458629,5.8647661,-0.0000723,33.4588022|PG=CS [SG(C1H1O2)]|N
 Imag=0||0.77322055,-0.00000684,0.21845402,0.04083251,-0.00000050,0.730
 10178,-0.10823847,0.00000043,0.09571577,0.13899023,0.00000043,-0.07338
 994,-0.00000118,-0.00000140,0.02562501,0.09571970,-0.00000118,-0.20785
 028,-0.10829980,0.00000133,0.25166243,-0.17208240,0.00000123,-0.169760
 26,0.01123940,0.00000016,0.00334682,0.25152031,0.00000123,-0.07255901,
 0.00000209,0.00000016,0.02387857,-0.00000004,-0.00000279,0.02497445,-0
 .13331923,0.00000164,-0.42117053,-0.01846109,0.00000023,-0.04851351,0.
 24420201,-0.00000301,0.47180842,-0.49289968,0.00000518,0.03321198,-0.0
 4199116,0.00000081,0.00923328,-0.09067730,0.00000141,-0.09242169,0.625
 56814,0.00000518,-0.07250507,-0.00000041,0.00000081,0.02388636,-0.0000
 0011,0.00000141,0.02370599,0.00000114,-0.00000740,0.02491273,-0.003232
 98,0.00000004,-0.10108096,0.03104512,-0.00000038,0.00470137,-0.0777885
 7,0.00000096,-0.00212437,0.04997643,-0.00000062,0.09850397||-0.0001240
 0,0.,-0.00004510,-0.00001834,0.,0.00001249,0.00005755,0.,0.00005588,0.
 00008479,0.,-0.00002327|||@


 IF IT HAPPENS, IT MUST BE POSSIBLE.

 -- THE UNNAMED LAW FROM PAUL DICKSON'S 
    "THE OFFICIAL RULES"
 Job cpu time:  0 days  0 hours  0 minutes 11.0 seconds.
 File lengths (MBytes):  RWF=      9 Int=      0 D2E=      0 Chk=      2 Scr=      1
 Normal termination of Gaussian 09 at Tue Jan 19 21:59:14 2021.
