 Entering Link 1 = C:\G09W\l1.exe PID=      1616.
  
 Copyright (c) 1988,1990,1992,1993,1995,1998,2003,2009, Gaussian, Inc.
                  All Rights Reserved.
  
 This is part of the Gaussian(R) 09 program.  It is based on
 the Gaussian(R) 03 system (copyright 2003, Gaussian, Inc.),
 the Gaussian(R) 98 system (copyright 1998, Gaussian, Inc.),
 the Gaussian(R) 94 system (copyright 1995, Gaussian, Inc.),
 the Gaussian 92(TM) system (copyright 1992, Gaussian, Inc.),
 the Gaussian 90(TM) system (copyright 1990, Gaussian, Inc.),
 the Gaussian 88(TM) system (copyright 1988, Gaussian, Inc.),
 the Gaussian 86(TM) system (copyright 1986, Carnegie Mellon
 University), and the Gaussian 82(TM) system (copyright 1983,
 Carnegie Mellon University). Gaussian is a federally registered
 trademark of Gaussian, Inc.
  
 This software contains proprietary and confidential information,
 including trade secrets, belonging to Gaussian, Inc.
  
 This software is provided under written license and may be
 used, copied, transmitted, or stored only in accord with that
 written license.
  
 The following legend is applicable only to US Government
 contracts under FAR:
  
                    RESTRICTED RIGHTS LEGEND
  
 Use, reproduction and disclosure by the US Government is
 subject to restrictions as set forth in subparagraphs (a)
 and (c) of the Commercial Computer Software - Restricted
 Rights clause in FAR 52.227-19.
  
 Gaussian, Inc.
 340 Quinnipiac St., Bldg. 40, Wallingford CT 06492
  
  
 ---------------------------------------------------------------
 Warning -- This program may not be used in any manner that
 competes with the business of Gaussian, Inc. or will provide
 assistance to any competitor of Gaussian, Inc.  The licensee
 of this program is prohibited from giving any competitor of
 Gaussian, Inc. access to this program.  By using this program,
 the user acknowledges that Gaussian, Inc. is engaged in the
 business of creating and licensing software in the field of
 computational chemistry and represents and warrants to the
 licensee that it is not a competitor of Gaussian, Inc. and that
 it will not use this program in any manner prohibited above.
 ---------------------------------------------------------------
  

 Cite this work as:
 Gaussian 09, Revision A.02,
 M. J. Frisch, G. W. Trucks, H. B. Schlegel, G. E. Scuseria, 
 M. A. Robb, J. R. Cheeseman, G. Scalmani, V. Barone, B. Mennucci, 
 G. A. Petersson, H. Nakatsuji, M. Caricato, X. Li, H. P. Hratchian, 
 A. F. Izmaylov, J. Bloino, G. Zheng, J. L. Sonnenberg, M. Hada, 
 M. Ehara, K. Toyota, R. Fukuda, J. Hasegawa, M. Ishida, T. Nakajima, 
 Y. Honda, O. Kitao, H. Nakai, T. Vreven, J. A. Montgomery, Jr., 
 J. E. Peralta, F. Ogliaro, M. Bearpark, J. J. Heyd, E. Brothers, 
 K. N. Kudin, V. N. Staroverov, R. Kobayashi, J. Normand, 
 K. Raghavachari, A. Rendell, J. C. Burant, S. S. Iyengar, J. Tomasi, 
 M. Cossi, N. Rega, J. M. Millam, M. Klene, J. E. Knox, J. B. Cross, 
 V. Bakken, C. Adamo, J. Jaramillo, R. Gomperts, R. E. Stratmann, 
 O. Yazyev, A. J. Austin, R. Cammi, C. Pomelli, J. W. Ochterski, 
 R. L. Martin, K. Morokuma, V. G. Zakrzewski, G. A. Voth, 
 P. Salvador, J. J. Dannenberg, S. Dapprich, A. D. Daniels, 
 O. Farkas, J. B. Foresman, J. V. Ortiz, J. Cioslowski, 
 and D. J. Fox, Gaussian, Inc., Wallingford CT, 2009.
 
 ******************************************
 Gaussian 09:  IA32W-G09RevA.02 11-Jun-2009
                19-Jan-2021 
 ******************************************
 %chk=D:\Documents\rayGit\FQ\quimicaComputacional\p4Pka\reactivos\formicAcidM062x
 .chk
 %mem=1500mb
 %nproc=4
 Will use up to    4 processors via shared memory.
 -------------------------------------
 # opt freq 6-31+G(d,p) scrf=smd m062x
 -------------------------------------
 1/14=-1,18=20,19=15,26=3,38=1/1,3;
 2/9=110,12=2,17=6,18=5,40=1/2;
 3/5=1,6=6,7=111,11=2,16=1,25=1,30=1,70=32201,71=1,72=1,74=-55/1,2,3;
 4//1;
 5/5=2,38=5/2;
 6/7=2,8=2,9=2,10=2,28=1/1;
 7//1,2,3,16;
 1/14=-1,18=20,19=15/3(2);
 2/9=110/2;
 99//99;
 2/9=110/2;
 3/5=1,6=6,7=111,11=2,16=1,25=1,30=1,70=32205,71=1,74=-55/1,2,3;
 4/5=5,16=3/1;
 5/5=2,38=5/2;
 7//1,2,3,16;
 1/14=-1,18=20,19=15/3(-5);
 2/9=110/2;
 6/7=2,8=2,9=2,10=2,19=2,28=1/1;
 99/9=1/99;
 -----------------
 formic acid m062x
 -----------------
 Symbolic Z-matrix:
 Charge =  0 Multiplicity = 1
 C                    -0.05876   0.11752   0. 
 H                     0.29791   0.11752  -1.00881 
 O                     0.41791   0.11752   1.34822 
 O                    -1.48876   0.11754   0. 
 H                    -1.80876   0.11754   0.9051 
 

 GradGradGradGradGradGradGradGradGradGradGradGradGradGradGradGradGradGrad
 Berny optimization.
 Initialization pass.
                           ----------------------------
                           !    Initial Parameters    !
                           ! (Angstroms and Degrees)  !
 --------------------------                            --------------------------
 ! Name  Definition              Value          Derivative Info.                !
 --------------------------------------------------------------------------------
 ! R1    R(1,2)                  1.07           estimate D2E/DX2                !
 ! R2    R(1,3)                  1.43           estimate D2E/DX2                !
 ! R3    R(1,4)                  1.43           estimate D2E/DX2                !
 ! R4    R(4,5)                  0.96           estimate D2E/DX2                !
 ! A1    A(2,1,3)              141.0576         estimate D2E/DX2                !
 ! A2    A(2,1,4)              109.4712         estimate D2E/DX2                !
 ! A3    A(3,1,4)              109.4712         estimate D2E/DX2                !
 ! A4    A(1,4,5)              109.4712         estimate D2E/DX2                !
 ! D1    D(2,1,4,5)            180.0            estimate D2E/DX2                !
 ! D2    D(3,1,4,5)              0.0            estimate D2E/DX2                !
 --------------------------------------------------------------------------------
 Trust Radius=3.00D-01 FncErr=1.00D-07 GrdErr=1.00D-06
 Number of steps in this run=  20 maximum allowed number of steps= 100.
 GradGradGradGradGradGradGradGradGradGradGradGradGradGradGradGradGradGrad

                          Input orientation:                          
 ---------------------------------------------------------------------
 Center     Atomic      Atomic             Coordinates (Angstroms)
 Number     Number       Type             X           Y           Z
 ---------------------------------------------------------------------
      1          6           0       -0.058761    0.117521    0.000000
      2          1           0        0.297906    0.117517   -1.008806
      3          8           0        0.417906    0.117515    1.348217
      4          8           0       -1.488761    0.117539    0.000000
      5          1           0       -1.808761    0.117543    0.905097
 ---------------------------------------------------------------------
                    Distance matrix (angstroms):
                    1          2          3          4          5
     1  C    0.000000
     2  H    1.070000   0.000000
     3  O    1.430000   2.360075   0.000000
     4  O    1.430000   2.051796   2.335180   0.000000
     5  H    1.970203   2.846237   2.270331   0.960000   0.000000
 Stoichiometry    CH2O2
 Framework group  CS[SG(CH2O2)]
 Deg. of freedom     7
 Full point group                 CS      NOp   2
 Largest Abelian subgroup         CS      NOp   2
 Largest concise Abelian subgroup C1      NOp   1
                         Standard orientation:                         
 ---------------------------------------------------------------------
 Center     Atomic      Atomic             Coordinates (Angstroms)
 Number     Number       Type             X           Y           Z
 ---------------------------------------------------------------------
      1          6           0        0.000000    0.582538    0.000000
      2          1           0       -0.378337    1.583418    0.000000
      3          8           0        1.234016   -0.140029    0.000000
      4          8           0       -1.092582   -0.340048    0.000000
      5          1           0       -0.753139   -1.238034    0.000000
 ---------------------------------------------------------------------
 Rotational constants (GHZ):     50.8353699     11.3562764      9.2826054
 Standard basis: 6-31+G(d,p) (6D, 7F)
 There are    50 symmetry adapted basis functions of A'  symmetry.
 There are    17 symmetry adapted basis functions of A"  symmetry.
 Integral buffers will be    262144 words long.
 Raffenetti 2 integral format.
 Two-electron integral symmetry is turned on.
    67 basis functions,   110 primitive gaussians,    67 cartesian basis functions
    12 alpha electrons       12 beta electrons
       nuclear repulsion energy        64.9246075200 Hartrees.
 NAtoms=    5 NActive=    5 NUniq=    5 SFac= 7.50D-01 NAtFMM=   80 NAOKFM=F Big=F
 ------------------------------------------------------------------------------
 Polarizable Continuum Model (PCM)
 =================================
 Model                : PCM.
 Atomic radii         : SMD-Coulomb.
 Polarization charges : Total charges.
 Charge compensation  : None.
 Solution method      : Matrix inversion.
 Cavity type          : VdW (van der Waals Surface) (Alpha=1.000).
 Cavity algorithm     : GePol (No added spheres)
                        Default sphere list used, NSphG=    5.
                        Lebedev-Laikov grids with approx.  5.0 points / Ang**2.
                        Smoothing algorithm: Karplus/York (Gamma=1.0000).
                        Polarization charges: spherical gaussians, with
                                              point-specific exponents (IZeta= 3).
                        Self-potential: point-specific (ISelfS= 7).
                        Self-field    : sphere-specific E.n sum rule (ISelfD= 2).
 1st derivatives      : Analytical E(r).r(x)/FMM algorithm (CHGder, D1EAlg=3).
                        Cavity 1st derivative terms included.
 Solvent              : Water, Eps=  78.355300 Eps(inf)=   1.777849
 ------------------------------------------------------------------------------
 Spheres list:
 ISph  on   Nord    Re0     Alpha      Xe            Ye            Ze
    1   C      1    1.850   1.000      0.000000      0.582538      0.000000
    2   H      2    1.200   1.000     -0.378337      1.583418      0.000000
    3   O      3    1.520   1.000      1.234016     -0.140029      0.000000
    4   O      4    1.520   1.000     -1.092582     -0.340048      0.000000
    5   H      5    1.200   1.000     -0.753139     -1.238034      0.000000
 ------------------------------------------------------------------------------
 ------------------------------------------------------------------------------
 Atomic radii for non-electrostatic terms: SMD-CDS.
 ------------------------------------------------------------------------------
 Nuclear repulsion after PCM non-electrostatic terms =       64.9293466890 Hartrees.
 One-electron integrals computed using PRISM.
 NBasis=    67 RedAO= T  NBF=    50    17
 NBsUse=    67 1.00D-06 NBFU=    50    17
 Harris functional with IExCor= 1009 diagonalized for initial guess.
 ExpMin= 4.38D-02 ExpMax= 5.48D+03 ExpMxC= 8.25D+02 IAcc=2 IRadAn=         0 AccDes= 0.00D+00
 HarFok:  IExCor= 1009 AccDes= 0.00D+00 IRadAn=         0 IDoV= 1
 ScaDFX=  1.000000  1.000000  1.000000  1.000000
 FoFCou: FMM=F IPFlag=           0 FMFlag=      100000 FMFlg1=           0
         NFxFlg=           0 DoJE=T BraDBF=F KetDBF=T FulRan=T
         Omega=  0.000000  0.000000  1.000000  0.000000  0.000000 ICntrl=     500 IOpCl=  0
         NMat0=    1 NMatS0=    1 NMatT0=    0 NMatD0=    1 NMtDS0=    0 NMtDT0=    0
         I1Cent=           4 NGrid=           0.
 Petite list used in FoFCou.
 Initial guess orbital symmetries:
       Occupied  (A') (A') (A') (A') (A') (A') (A') (A') (A') (A")
                 (A") (A')
       Virtual   (A") (A') (A') (A') (A") (A') (A') (A') (A') (A')
                 (A") (A") (A') (A') (A') (A') (A') (A") (A') (A')
                 (A') (A') (A') (A') (A") (A") (A') (A') (A') (A")
                 (A") (A') (A') (A") (A') (A') (A") (A') (A') (A')
                 (A") (A") (A') (A') (A') (A") (A") (A') (A') (A')
                 (A') (A') (A') (A') (A')
 The electronic state of the initial guess is 1-A'.
 Requested convergence on RMS density matrix=1.00D-08 within 128 cycles.
 Requested convergence on MAX density matrix=1.00D-06.
 Requested convergence on             energy=1.00D-06.
 No special actions if energy rises.
 Keep R1 ints in memory in canonical form, NReq=5792354.
 Error on total polarization charges =  0.03248
 SCF Done:  E(RM062X) =  -189.636833130     A.U. after   12 cycles
             Convg  =    0.3339D-08             -V/T =  2.0120
 SMD-CDS (non-electrostatic) energy             (kcal/mol) =       2.97
 (included in total energy above)

 **********************************************************************

            Population analysis using the SCF density.

 **********************************************************************

 Orbital symmetries:
       Occupied  (A') (A') (A') (A') (A') (A') (A') (A') (A") (A')
                 (A") (A')
       Virtual   (A") (A') (A') (A') (A") (A') (A') (A') (A') (A")
                 (A') (A") (A') (A') (A') (A') (A') (A") (A') (A')
                 (A') (A') (A') (A') (A") (A") (A') (A') (A') (A")
                 (A") (A') (A') (A") (A') (A') (A") (A') (A') (A')
                 (A") (A") (A') (A') (A') (A") (A") (A') (A') (A')
                 (A') (A') (A') (A') (A')
 The electronic state is 1-A'.
 Alpha  occ. eigenvalues --  -19.71229 -19.67456 -10.74568  -1.20530  -1.07889
 Alpha  occ. eigenvalues --   -0.77619  -0.59241  -0.57565  -0.49974  -0.48128
 Alpha  occ. eigenvalues --   -0.38634  -0.37664
 Alpha virt. eigenvalues --   -0.03808   0.03066   0.04824   0.05228   0.07196
 Alpha virt. eigenvalues --    0.16847   0.17261   0.19080   0.21170   0.21532
 Alpha virt. eigenvalues --    0.23146   0.24021   0.26223   0.27538   0.32113
 Alpha virt. eigenvalues --    0.34623   0.39371   0.67884   0.71534   0.80672
 Alpha virt. eigenvalues --    0.93225   1.00454   1.08870   1.16556   1.18562
 Alpha virt. eigenvalues --    1.23145   1.27947   1.28730   1.36557   1.42004
 Alpha virt. eigenvalues --    1.44383   1.53796   1.56180   1.63518   1.69806
 Alpha virt. eigenvalues --    1.81463   1.85994   1.88354   1.96450   2.01204
 Alpha virt. eigenvalues --    2.14647   2.34491   2.38475   2.46372   2.55504
 Alpha virt. eigenvalues --    2.55725   2.71197   2.78017   2.83534   3.01807
 Alpha virt. eigenvalues --    3.41417   3.56682   4.05924   4.13678   4.44682
          Condensed to atoms (all electrons):
              1          2          3          4          5
     1  C    4.614879   0.389384   0.365809   0.230314  -0.009836
     2  H    0.389384   0.398130  -0.022377  -0.060053   0.003549
     3  O    0.365809  -0.022377   8.406563  -0.109559   0.005421
     4  O    0.230314  -0.060053  -0.109559   8.165352   0.271187
     5  H   -0.009836   0.003549   0.005421   0.271187   0.287395
 Mulliken atomic charges:
              1
     1  C    0.409449
     2  H    0.291366
     3  O   -0.645857
     4  O   -0.497242
     5  H    0.442284
 Sum of Mulliken atomic charges =   0.00000
 Mulliken charges with hydrogens summed into heavy atoms:
              1
     1  C    0.700815
     3  O   -0.645857
     4  O   -0.054958
 Sum of Mulliken charges with hydrogens summed into heavy atoms =   0.00000
 Electronic spatial extent (au):  <R**2>=            145.6239
 Charge=              0.0000 electrons
 Dipole moment (field-independent basis, Debye):
    X=             -3.0042    Y=              1.3869    Z=              0.0000  Tot=              3.3089
 Quadrupole moment (field-independent basis, Debye-Ang):
   XX=            -25.0247   YY=            -10.8260   ZZ=            -17.8408
   XY=              0.4882   XZ=              0.0000   YZ=              0.0000
 Traceless Quadrupole moment (field-independent basis, Debye-Ang):
   XX=             -7.1275   YY=              7.0712   ZZ=              0.0563
   XY=              0.4882   XZ=              0.0000   YZ=              0.0000
 Octapole moment (field-independent basis, Debye-Ang**2):
  XXX=             -5.6423  YYY=             -0.2329  ZZZ=              0.0000  XYY=             -5.4159
  XXY=             -0.6770  XXZ=              0.0000  XZZ=             -0.8894  YZZ=             -0.1087
  YYZ=              0.0000  XYZ=              0.0000
 Hexadecapole moment (field-independent basis, Debye-Ang**3):
 XXXX=           -131.7579 YYYY=            -25.1114 ZZZZ=            -16.1577 XXXY=             -4.8136
 XXXZ=              0.0000 YYYX=             -2.0029 YYYZ=              0.0000 ZZZX=              0.0000
 ZZZY=              0.0000 XXYY=            -23.8495 XXZZ=            -23.2996 YYZZ=             -9.4472
 XXYZ=              0.0000 YYXZ=              0.0000 ZZXY=             -1.3136
 N-N= 6.492934668902D+01 E-N=-5.750813658255D+02  KE= 1.873961884703D+02
 Symmetry A'   KE= 1.793164520565D+02
 Symmetry A"   KE= 8.079736413738D+00
 D1PCM: PCM CHGder 1st derivatives, ID1Alg=3 FixD1E=F DoIter=F DoCFld=F I1PDM=0.
 Calling FoFJK, ICntrl=      2127 FMM=F ISym2X=1 I1Cent= 0 IOpClX= 0 NMat=1 NMatS=1 NMatT=0.
 ***** Axes restored to original set *****
 -------------------------------------------------------------------
 Center     Atomic                   Forces (Hartrees/Bohr)
 Number     Number              X              Y              Z
 -------------------------------------------------------------------
      1        6          -0.075534410    0.000000930    0.207802755
      2        1           0.022124553   -0.000000273   -0.007522312
      3        8          -0.031063457    0.000000383   -0.179220086
      4        8           0.083135710   -0.000001024   -0.036468286
      5        1           0.001337605   -0.000000017    0.015407929
 -------------------------------------------------------------------
 Cartesian Forces:  Max     0.207802755 RMS     0.077888367

 GradGradGradGradGradGradGradGradGradGradGradGradGradGradGradGradGradGrad
 Berny optimization.
 Internal  Forces:  Max     0.179329129 RMS     0.065755511
 Search for a local minimum.
 Step number   1 out of a maximum of   20
 All quantities printed in internal units (Hartrees-Bohrs-Radians)
 Mixed Optimization -- RFO/linear search
 Second derivative matrix not updated -- first step.
 The second derivative matrix:
                          R1        R2        R3        R4        A1
           R1           0.37230
           R2           0.00000   0.40989
           R3           0.00000   0.00000   0.40989
           R4           0.00000   0.00000   0.00000   0.55473
           A1           0.00000   0.00000   0.00000   0.00000   0.16000
           A2           0.00000   0.00000   0.00000   0.00000   0.00000
           A3           0.00000   0.00000   0.00000   0.00000   0.00000
           A4           0.00000   0.00000   0.00000   0.00000   0.00000
           D1           0.00000   0.00000   0.00000   0.00000   0.00000
           D2           0.00000   0.00000   0.00000   0.00000   0.00000
                          A2        A3        A4        D1        D2
           A2           0.16000
           A3           0.00000   0.25000
           A4           0.00000   0.00000   0.16000
           D1           0.00000   0.00000   0.00000   0.01295
           D2           0.00000   0.00000   0.00000   0.00000   0.01295
     Eigenvalues ---    0.01295   0.01295   0.16000   0.16000   0.22000
     Eigenvalues ---    0.37230   0.40989   0.40989   0.554731000.00000
 RFO step:  Lambda=-9.11732487D-02 EMin= 1.29493782D-02
 Linear search not attempted -- first point.
 Maximum step size (   0.300) exceeded in Quadratic search.
    -- Step size scaled by   0.672
 Iteration  1 RMS(Cart)=  0.06866687 RMS(Int)=  0.01441178
 Iteration  2 RMS(Cart)=  0.01374553 RMS(Int)=  0.00004511
 Iteration  3 RMS(Cart)=  0.00005736 RMS(Int)=  0.00000000
 Iteration  4 RMS(Cart)=  0.00000000 RMS(Int)=  0.00000000
 ClnCor:  largest displacement from symmetrization is 1.85D-08 for atom     1.
 Variable       Old X    -DE/DX   Delta X   Delta X   Delta X     New X
                                 (Linear)    (Quad)   (Total)
    R1        2.02201   0.01447   0.00000   0.02100   0.02100   2.04300
    R2        2.70231  -0.17933   0.00000  -0.24068  -0.24068   2.46163
    R3        2.70231  -0.08448   0.00000  -0.11338  -0.11338   2.58893
    R4        1.81414   0.01409   0.00000   0.01467   0.01467   1.82881
    A1        2.46192  -0.03980   0.00000  -0.09559  -0.09559   2.36633
    A2        1.91063  -0.00272   0.00000   0.00370   0.00370   1.91433
    A3        1.91063   0.04252   0.00000   0.09189   0.09189   2.00253
    A4        1.91063  -0.01162   0.00000  -0.03111  -0.03111   1.87952
    D1        3.14159   0.00000   0.00000   0.00000   0.00000   3.14159
    D2        0.00000   0.00000   0.00000   0.00000   0.00000   0.00000
         Item               Value     Threshold  Converged?
 Maximum Force            0.179329     0.000450     NO 
 RMS     Force            0.065756     0.000300     NO 
 Maximum Displacement     0.181689     0.001800     NO 
 RMS     Displacement     0.078067     0.001200     NO 
 Predicted change in Energy=-4.479948D-02
 GradGradGradGradGradGradGradGradGradGradGradGradGradGradGradGradGradGrad

                          Input orientation:                          
 ---------------------------------------------------------------------
 Center     Atomic      Atomic             Coordinates (Angstroms)
 Number     Number       Type             X           Y           Z
 ---------------------------------------------------------------------
      1          6           0       -0.094884    0.117522    0.048389
      2          1           0        0.309099    0.117517   -0.954405
      3          8           0        0.403129    0.117516    1.252071
      4          8           0       -1.463823    0.117539   -0.005623
      5          1           0       -1.793992    0.117543    0.904076
 ---------------------------------------------------------------------
                    Distance matrix (angstroms):
                    1          2          3          4          5
     1  C    0.000000
     2  H    1.081110   0.000000
     3  O    1.302638   2.208479   0.000000
     4  O    1.370004   2.010831   2.251067   0.000000
     5  H    1.902411   2.806590   2.224509   0.967762   0.000000
 Stoichiometry    CH2O2
 Framework group  CS[SG(CH2O2)]
 Deg. of freedom     7
 Full point group                 CS      NOp   2
 Largest Abelian subgroup         CS      NOp   2
 Largest concise Abelian subgroup C1      NOp   1
                         Standard orientation:                         
 ---------------------------------------------------------------------
 Center     Atomic      Atomic             Coordinates (Angstroms)
 Number     Number       Type             X           Y           Z
 ---------------------------------------------------------------------
      1          6           0        0.000000    0.510610    0.000000
      2          1           0       -0.377772    1.523570    0.000000
      3          8           0        1.179357   -0.042549    0.000000
      4          8           0       -1.047400   -0.372489    0.000000
      5          1           0       -0.677883   -1.266928    0.000000
 ---------------------------------------------------------------------
 Rotational constants (GHZ):     60.8220671     12.2069881     10.1665597
 Standard basis: 6-31+G(d,p) (6D, 7F)
 There are    50 symmetry adapted basis functions of A'  symmetry.
 There are    17 symmetry adapted basis functions of A"  symmetry.
 Integral buffers will be    262144 words long.
 Raffenetti 2 integral format.
 Two-electron integral symmetry is turned on.
    67 basis functions,   110 primitive gaussians,    67 cartesian basis functions
    12 alpha electrons       12 beta electrons
       nuclear repulsion energy        68.1788460997 Hartrees.
 NAtoms=    5 NActive=    5 NUniq=    5 SFac= 7.50D-01 NAtFMM=   80 NAOKFM=F Big=F
 ------------------------------------------------------------------------------
 Polarizable Continuum Model (PCM)
 =================================
 Model                : PCM.
 Atomic radii         : SMD-Coulomb.
 Polarization charges : Total charges.
 Charge compensation  : None.
 Solution method      : Matrix inversion.
 Cavity type          : VdW (van der Waals Surface) (Alpha=1.000).
 Cavity algorithm     : GePol (No added spheres)
                        Default sphere list used, NSphG=    5.
                        Lebedev-Laikov grids with approx.  5.0 points / Ang**2.
                        Smoothing algorithm: Karplus/York (Gamma=1.0000).
                        Polarization charges: spherical gaussians, with
                                              point-specific exponents (IZeta= 3).
                        Self-potential: point-specific (ISelfS= 7).
                        Self-field    : sphere-specific E.n sum rule (ISelfD= 2).
 1st derivatives      : Analytical E(r).r(x)/FMM algorithm (CHGder, D1EAlg=3).
                        Cavity 1st derivative terms included.
 Solvent              : Water, Eps=  78.355300 Eps(inf)=   1.777849
 ------------------------------------------------------------------------------
 Spheres list:
 ISph  on   Nord    Re0     Alpha      Xe            Ye            Ze
    1   C      1    1.850   1.000      0.000000      0.510610      0.000000
    2   H      2    1.200   1.000     -0.377772      1.523570      0.000000
    3   O      3    1.520   1.000      1.179357     -0.042549      0.000000
    4   O      4    1.520   1.000     -1.047400     -0.372489      0.000000
    5   H      5    1.200   1.000     -0.677883     -1.266928      0.000000
 ------------------------------------------------------------------------------
 ------------------------------------------------------------------------------
 Atomic radii for non-electrostatic terms: SMD-CDS.
 ------------------------------------------------------------------------------
 Nuclear repulsion after PCM non-electrostatic terms =       68.1850452163 Hartrees.
 One-electron integrals computed using PRISM.
 NBasis=    67 RedAO= T  NBF=    50    17
 NBsUse=    67 1.00D-06 NBFU=    50    17
 Initial guess read from the read-write file.
 B after Tr=     0.000000    0.000000    0.000000
         Rot=    1.000000    0.000000    0.000000    0.000000 Ang=   0.00 deg.
 Initial guess orbital symmetries:
       Occupied  (A') (A') (A') (A') (A') (A') (A') (A') (A") (A')
                 (A") (A')
       Virtual   (A") (A') (A') (A') (A") (A') (A') (A') (A') (A")
                 (A') (A") (A') (A') (A') (A') (A') (A") (A') (A')
                 (A') (A') (A') (A') (A") (A") (A') (A') (A') (A")
                 (A") (A') (A') (A") (A') (A') (A") (A') (A') (A')
                 (A") (A") (A') (A') (A') (A") (A") (A') (A') (A')
                 (A') (A') (A') (A') (A')
 Harris functional with IExCor= 1009 diagonalized for initial guess.
 ExpMin= 4.38D-02 ExpMax= 5.48D+03 ExpMxC= 8.25D+02 IAcc=2 IRadAn=         0 AccDes= 0.00D+00
 HarFok:  IExCor= 1009 AccDes= 0.00D+00 IRadAn=         0 IDoV= 1
 ScaDFX=  1.000000  1.000000  1.000000  1.000000
 FoFCou: FMM=F IPFlag=           0 FMFlag=      100000 FMFlg1=           0
         NFxFlg=           0 DoJE=T BraDBF=F KetDBF=T FulRan=T
         Omega=  0.000000  0.000000  1.000000  0.000000  0.000000 ICntrl=     500 IOpCl=  0
         NMat0=    1 NMatS0=    1 NMatT0=    0 NMatD0=    1 NMtDS0=    0 NMtDT0=    0
         I1Cent=           4 NGrid=           0.
 Petite list used in FoFCou.
 Requested convergence on RMS density matrix=1.00D-08 within 128 cycles.
 Requested convergence on MAX density matrix=1.00D-06.
 Requested convergence on             energy=1.00D-06.
 No special actions if energy rises.
 Keep R1 ints in memory in canonical form, NReq=5791641.
 Error on total polarization charges =  0.03129
 SCF Done:  E(RM062X) =  -189.686280092     A.U. after   11 cycles
             Convg  =    0.7786D-08             -V/T =  2.0102
 SMD-CDS (non-electrostatic) energy             (kcal/mol) =       3.89
 (included in total energy above)
 D1PCM: PCM CHGder 1st derivatives, ID1Alg=3 FixD1E=F DoIter=F DoCFld=F I1PDM=0.
 Calling FoFJK, ICntrl=      2127 FMM=F ISym2X=1 I1Cent= 0 IOpClX= 0 NMat=1 NMatS=1 NMatT=0.
 ***** Axes restored to original set *****
 -------------------------------------------------------------------
 Center     Atomic                   Forces (Hartrees/Bohr)
 Number     Number              X              Y              Z
 -------------------------------------------------------------------
      1        6          -0.031437072    0.000000387    0.122726675
      2        1           0.016475573   -0.000000203   -0.000254669
      3        8          -0.015402505    0.000000190   -0.109266304
      4        8           0.032460261   -0.000000400   -0.019433627
      5        1          -0.002096257    0.000000026    0.006227925
 -------------------------------------------------------------------
 Cartesian Forces:  Max     0.122726675 RMS     0.044700868

 GradGradGradGradGradGradGradGradGradGradGradGradGradGradGradGradGradGrad
 Berny optimization.
 Using GEDIIS/GDIIS optimizer.
 Internal  Forces:  Max     0.106861613 RMS     0.038341471
 Search for a local minimum.
 Step number   2 out of a maximum of   20
 All quantities printed in internal units (Hartrees-Bohrs-Radians)
 Mixed Optimization -- RFO/linear search
 Update second derivatives using D2CorX and points    1    2
 DE= -4.94D-02 DEPred=-4.48D-02 R= 1.10D+00
 SS=  1.41D+00  RLast= 3.00D-01 DXNew= 5.0454D-01 9.0000D-01
 Trust test= 1.10D+00 RLast= 3.00D-01 DXMaxT set to 5.05D-01
 The second derivative matrix:
                          R1        R2        R3        R4        A1
           R1           0.37299
           R2           0.00052   0.32017
           R3          -0.00622   0.01575   0.46106
           R4           0.00044   0.00308  -0.00456   0.55493
           A1           0.00146  -0.02628  -0.00689   0.00176   0.15475
           A2          -0.00038   0.00391   0.00245  -0.00037   0.00048
           A3          -0.00304   0.04708   0.01608  -0.00343   0.00860
           A4          -0.00238   0.01712   0.01712  -0.00209   0.00072
           D1           0.00000   0.00000   0.00000   0.00000   0.00000
           D2           0.00000   0.00000   0.00000   0.00000   0.00000
                          A2        A3        A4        D1        D2
           A2           0.16001
           A3          -0.00064   0.23628
           A4           0.00042   0.00010   0.16424
           D1           0.00000   0.00000   0.00000   0.01295
           D2           0.00000   0.00000   0.00000   0.00000   0.01295
 Use linear search instead of GDIIS.
     Eigenvalues ---    0.01295   0.01295   0.14868   0.16241   0.19338
     Eigenvalues ---    0.33667   0.37261   0.46615   0.555241000.00000
 RFO step:  Lambda=-6.71399847D-03 EMin= 1.29493782D-02
 Quartic linear search produced a step of  0.94356.
 Iteration  1 RMS(Cart)=  0.11497839 RMS(Int)=  0.03184998
 Iteration  2 RMS(Cart)=  0.02911361 RMS(Int)=  0.00022455
 Iteration  3 RMS(Cart)=  0.00025677 RMS(Int)=  0.00000005
 Iteration  4 RMS(Cart)=  0.00000005 RMS(Int)=  0.00000000
 ClnCor:  largest displacement from symmetrization is 4.58D-08 for atom     1.
 Variable       Old X    -DE/DX   Delta X   Delta X   Delta X     New X
                                 (Linear)    (Quad)   (Total)
    R1        2.04300   0.00640   0.01981  -0.00754   0.01227   2.05528
    R2        2.46163  -0.10686  -0.22709  -0.04993  -0.27702   2.18461
    R3        2.58893  -0.02983  -0.10698   0.07196  -0.03502   2.55391
    R4        1.82881   0.00658   0.01384  -0.00229   0.01155   1.84036
    A1        2.36633  -0.03294  -0.09019  -0.08486  -0.17505   2.19128
    A2        1.91433  -0.00196   0.00349   0.00277   0.00626   1.92058
    A3        2.00253   0.03490   0.08671   0.08209   0.16880   2.17133
    A4        1.87952  -0.00031  -0.02936   0.08185   0.05249   1.93201
    D1        3.14159   0.00000   0.00000   0.00000   0.00000   3.14159
    D2        0.00000   0.00000   0.00000   0.00000   0.00000   0.00000
         Item               Value     Threshold  Converged?
 Maximum Force            0.106862     0.000450     NO 
 RMS     Force            0.038341     0.000300     NO 
 Maximum Displacement     0.257774     0.001800     NO 
 RMS     Displacement     0.120764     0.001200     NO 
 Predicted change in Energy=-2.787041D-02
 GradGradGradGradGradGradGradGradGradGradGradGradGradGradGradGradGradGrad

                          Input orientation:                          
 ---------------------------------------------------------------------
 Center     Atomic      Atomic             Coordinates (Angstroms)
 Number     Number       Type             X           Y           Z
 ---------------------------------------------------------------------
      1          6           0       -0.111739    0.117522    0.112962
      2          1           0        0.341040    0.117516   -0.875914
      3          8           0        0.463616    0.117515    1.115663
      4          8           0       -1.458933    0.117539    0.005509
      5          1           0       -1.874454    0.117544    0.886289
 ---------------------------------------------------------------------
                    Distance matrix (angstroms):
                    1          2          3          4          5
     1  C    0.000000
     2  H    1.087606   0.000000
     3  O    1.156046   1.995346   0.000000
     4  O    1.351472   2.004198   2.220053   0.000000
     5  H    1.924890   2.830861   2.349295   0.973875   0.000000
 Stoichiometry    CH2O2
 Framework group  CS[SG(CH2O2)]
 Deg. of freedom     7
 Full point group                 CS      NOp   2
 Largest Abelian subgroup         CS      NOp   2
 Largest concise Abelian subgroup C1      NOp   1
                         Standard orientation:                         
 ---------------------------------------------------------------------
 Center     Atomic      Atomic             Coordinates (Angstroms)
 Number     Number       Type             X           Y           Z
 ---------------------------------------------------------------------
      1          6           0        0.000000    0.425475    0.000000
      2          1           0       -0.416808    1.430043    0.000000
      3          8           0        1.126341    0.165094    0.000000
      4          8           0       -0.995204   -0.488880    0.000000
      5          1           0       -0.632283   -1.392606    0.000000
 ---------------------------------------------------------------------
 Rotational constants (GHZ):     78.7506372     12.4118618     10.7219749
 Standard basis: 6-31+G(d,p) (6D, 7F)
 There are    50 symmetry adapted basis functions of A'  symmetry.
 There are    17 symmetry adapted basis functions of A"  symmetry.
 Integral buffers will be    262144 words long.
 Raffenetti 2 integral format.
 Two-electron integral symmetry is turned on.
    67 basis functions,   110 primitive gaussians,    67 cartesian basis functions
    12 alpha electrons       12 beta electrons
       nuclear repulsion energy        71.1603940282 Hartrees.
 NAtoms=    5 NActive=    5 NUniq=    5 SFac= 7.50D-01 NAtFMM=   80 NAOKFM=F Big=F
 ------------------------------------------------------------------------------
 Polarizable Continuum Model (PCM)
 =================================
 Model                : PCM.
 Atomic radii         : SMD-Coulomb.
 Polarization charges : Total charges.
 Charge compensation  : None.
 Solution method      : Matrix inversion.
 Cavity type          : VdW (van der Waals Surface) (Alpha=1.000).
 Cavity algorithm     : GePol (No added spheres)
                        Default sphere list used, NSphG=    5.
                        Lebedev-Laikov grids with approx.  5.0 points / Ang**2.
                        Smoothing algorithm: Karplus/York (Gamma=1.0000).
                        Polarization charges: spherical gaussians, with
                                              point-specific exponents (IZeta= 3).
                        Self-potential: point-specific (ISelfS= 7).
                        Self-field    : sphere-specific E.n sum rule (ISelfD= 2).
 1st derivatives      : Analytical E(r).r(x)/FMM algorithm (CHGder, D1EAlg=3).
                        Cavity 1st derivative terms included.
 Solvent              : Water, Eps=  78.355300 Eps(inf)=   1.777849
 ------------------------------------------------------------------------------
 Spheres list:
 ISph  on   Nord    Re0     Alpha      Xe            Ye            Ze
    1   C      1    1.850   1.000      0.000000      0.425475      0.000000
    2   H      2    1.200   1.000     -0.416808      1.430043      0.000000
    3   O      3    1.520   1.000      1.126341      0.165094      0.000000
    4   O      4    1.520   1.000     -0.995204     -0.488880      0.000000
    5   H      5    1.200   1.000     -0.632283     -1.392606      0.000000
 ------------------------------------------------------------------------------
 ------------------------------------------------------------------------------
 Atomic radii for non-electrostatic terms: SMD-CDS.
 ------------------------------------------------------------------------------
 Nuclear repulsion after PCM non-electrostatic terms =       71.1673333217 Hartrees.
 One-electron integrals computed using PRISM.
 NBasis=    67 RedAO= T  NBF=    50    17
 NBsUse=    67 1.00D-06 NBFU=    50    17
 Initial guess read from the read-write file.
 B after Tr=     0.000000    0.000000    0.000000
         Rot=    1.000000    0.000000    0.000000    0.000000 Ang=   0.00 deg.
 Initial guess orbital symmetries:
       Occupied  (A') (A') (A') (A') (A') (A') (A') (A') (A") (A')
                 (A") (A')
       Virtual   (A") (A') (A') (A') (A") (A') (A') (A') (A") (A')
                 (A") (A') (A') (A') (A') (A') (A') (A") (A') (A')
                 (A') (A') (A') (A') (A") (A") (A') (A') (A') (A")
                 (A") (A') (A') (A") (A') (A') (A") (A') (A') (A')
                 (A") (A') (A") (A') (A") (A') (A") (A') (A') (A')
                 (A') (A') (A') (A') (A')
 Harris functional with IExCor= 1009 diagonalized for initial guess.
 ExpMin= 4.38D-02 ExpMax= 5.48D+03 ExpMxC= 8.25D+02 IAcc=2 IRadAn=         0 AccDes= 0.00D+00
 HarFok:  IExCor= 1009 AccDes= 0.00D+00 IRadAn=         0 IDoV= 1
 ScaDFX=  1.000000  1.000000  1.000000  1.000000
 FoFCou: FMM=F IPFlag=           0 FMFlag=      100000 FMFlg1=           0
         NFxFlg=           0 DoJE=T BraDBF=F KetDBF=T FulRan=T
         Omega=  0.000000  0.000000  1.000000  0.000000  0.000000 ICntrl=     500 IOpCl=  0
         NMat0=    1 NMatS0=    1 NMatT0=    0 NMatD0=    1 NMtDS0=    0 NMtDT0=    0
         I1Cent=           4 NGrid=           0.
 Petite list used in FoFCou.
 Requested convergence on RMS density matrix=1.00D-08 within 128 cycles.
 Requested convergence on MAX density matrix=1.00D-06.
 Requested convergence on             energy=1.00D-06.
 No special actions if energy rises.
 Keep R1 ints in memory in canonical form, NReq=5789238.
 Error on total polarization charges =  0.03058
 SCF Done:  E(RM062X) =  -189.698547673     A.U. after   12 cycles
             Convg  =    0.2455D-08             -V/T =  2.0073
 SMD-CDS (non-electrostatic) energy             (kcal/mol) =       4.35
 (included in total energy above)
 D1PCM: PCM CHGder 1st derivatives, ID1Alg=3 FixD1E=F DoIter=F DoCFld=F I1PDM=0.
 Calling FoFJK, ICntrl=      2127 FMM=F ISym2X=1 I1Cent= 0 IOpClX= 0 NMat=1 NMatS=1 NMatT=0.
 ***** Axes restored to original set *****
 -------------------------------------------------------------------
 Center     Atomic                   Forces (Hartrees/Bohr)
 Number     Number              X              Y              Z
 -------------------------------------------------------------------
      1        6          -0.057241048    0.000000706   -0.079495234
      2        1           0.002239222   -0.000000028   -0.007056009
      3        8           0.053096649   -0.000000655    0.090264144
      4        8          -0.000096696    0.000000001   -0.004214580
      5        1           0.002001873   -0.000000025    0.000501679
 -------------------------------------------------------------------
 Cartesian Forces:  Max     0.090264144 RMS     0.037094233

 GradGradGradGradGradGradGradGradGradGradGradGradGradGradGradGradGradGrad
 Berny optimization.
 Using GEDIIS/GDIIS optimizer.
 Internal  Forces:  Max     0.104659384 RMS     0.033226604
 Search for a local minimum.
 Step number   3 out of a maximum of   20
 All quantities printed in internal units (Hartrees-Bohrs-Radians)
 Mixed Optimization -- RFO/linear search
 Update second derivatives using D2CorX and points    2    3
 DE= -1.23D-02 DEPred=-2.79D-02 R= 4.40D-01
 Trust test= 4.40D-01 RLast= 3.74D-01 DXMaxT set to 5.05D-01
 The second derivative matrix:
                          R1        R2        R3        R4        A1
           R1           0.37252
           R2           0.01326   0.75317
           R3          -0.00378   0.05847   0.46364
           R4          -0.00027  -0.00506  -0.00471   0.55482
           A1           0.00425   0.02432  -0.00370   0.00152   0.15868
           A2          -0.00034   0.00160   0.00208  -0.00027   0.00004
           A3          -0.00668   0.01520   0.01669  -0.00432   0.00902
           A4          -0.00284   0.01422   0.01734  -0.00223   0.00095
           D1           0.00000   0.00000   0.00000   0.00000   0.00000
           D2           0.00000   0.00000   0.00000   0.00000   0.00000
                          A2        A3        A4        D1        D2
           A2           0.16001
           A3          -0.00013   0.23000
           A4           0.00049  -0.00087   0.16410
           D1           0.00000   0.00000   0.00000   0.01295
           D2           0.00000   0.00000   0.00000   0.00000   0.01295
 Use linear search instead of GDIIS.
     Eigenvalues ---    0.01295   0.01295   0.15779   0.16280   0.20046
     Eigenvalues ---    0.37191   0.45428   0.55487   0.765981000.00000
 RFO step:  Lambda=-5.89890983D-03 EMin= 1.29493782D-02
 Quartic linear search produced a step of -0.30409.
 Iteration  1 RMS(Cart)=  0.04100906 RMS(Int)=  0.00122892
 Iteration  2 RMS(Cart)=  0.00135658 RMS(Int)=  0.00000133
 Iteration  3 RMS(Cart)=  0.00000140 RMS(Int)=  0.00000000
 Iteration  4 RMS(Cart)=  0.00000000 RMS(Int)=  0.00000001
 ClnCor:  largest displacement from symmetrization is 6.58D-09 for atom     4.
 Variable       Old X    -DE/DX   Delta X   Delta X   Delta X     New X
                                 (Linear)    (Quad)   (Total)
    R1        2.05528   0.00739  -0.00373   0.02176   0.01803   2.07330
    R2        2.18461   0.10466   0.08424   0.03868   0.12292   2.30753
    R3        2.55391  -0.00168   0.01065  -0.03477  -0.02412   2.52979
    R4        1.84036  -0.00027  -0.00351   0.00544   0.00193   1.84229
    A1        2.19128  -0.00020   0.05323  -0.11058  -0.05734   2.13393
    A2        1.92058  -0.00243  -0.00190   0.00527   0.00337   1.92395
    A3        2.17133   0.00263  -0.05133   0.10531   0.05398   2.22530
    A4        1.93201  -0.00401  -0.01596   0.00032  -0.01564   1.91637
    D1        3.14159   0.00000   0.00000   0.00000   0.00000   3.14159
    D2        0.00000   0.00000   0.00000   0.00000   0.00000   0.00000
         Item               Value     Threshold  Converged?
 Maximum Force            0.104659     0.000450     NO 
 RMS     Force            0.033227     0.000300     NO 
 Maximum Displacement     0.098079     0.001800     NO 
 RMS     Displacement     0.041179     0.001200     NO 
 Predicted change in Energy=-7.040923D-03
 GradGradGradGradGradGradGradGradGradGradGradGradGradGradGradGradGradGrad

                          Input orientation:                          
 ---------------------------------------------------------------------
 Center     Atomic      Atomic             Coordinates (Angstroms)
 Number     Number       Type             X           Y           Z
 ---------------------------------------------------------------------
      1          6           0       -0.137177    0.117522    0.112383
      2          1           0        0.333833    0.117517   -0.878513
      3          8           0        0.515517    0.117514    1.144400
      4          8           0       -1.470400    0.117539   -0.008697
      5          1           0       -1.882243    0.117544    0.874935
 ---------------------------------------------------------------------
                    Distance matrix (angstroms):
                    1          2          3          4          5
     1  C    0.000000
     2  H    1.097145   0.000000
     3  O    1.221093   2.031056   0.000000
     4  O    1.338709   2.002956   2.296410   0.000000
     5  H    1.904400   2.825875   2.412854   0.974895   0.000000
 Stoichiometry    CH2O2
 Framework group  CS[SG(CH2O2)]
 Deg. of freedom     7
 Full point group                 CS      NOp   2
 Largest Abelian subgroup         CS      NOp   2
 Largest concise Abelian subgroup C1      NOp   1
                         Standard orientation:                         
 ---------------------------------------------------------------------
 Center     Atomic      Atomic             Coordinates (Angstroms)
 Number     Number       Type             X           Y           Z
 ---------------------------------------------------------------------
      1          6           0        0.000000    0.406045    0.000000
      2          1           0       -0.341935    1.448546    0.000000
      3          8           0        1.184272    0.108442    0.000000
      4          8           0       -1.049232   -0.425371    0.000000
      5          1           0       -0.738386   -1.349382    0.000000
 ---------------------------------------------------------------------
 Rotational constants (GHZ):     80.5296185     11.6397241     10.1697866
 Standard basis: 6-31+G(d,p) (6D, 7F)
 There are    50 symmetry adapted basis functions of A'  symmetry.
 There are    17 symmetry adapted basis functions of A"  symmetry.
 Integral buffers will be    262144 words long.
 Raffenetti 2 integral format.
 Two-electron integral symmetry is turned on.
    67 basis functions,   110 primitive gaussians,    67 cartesian basis functions
    12 alpha electrons       12 beta electrons
       nuclear repulsion energy        69.5665785801 Hartrees.
 NAtoms=    5 NActive=    5 NUniq=    5 SFac= 7.50D-01 NAtFMM=   80 NAOKFM=F Big=F
 ------------------------------------------------------------------------------
 Polarizable Continuum Model (PCM)
 =================================
 Model                : PCM.
 Atomic radii         : SMD-Coulomb.
 Polarization charges : Total charges.
 Charge compensation  : None.
 Solution method      : Matrix inversion.
 Cavity type          : VdW (van der Waals Surface) (Alpha=1.000).
 Cavity algorithm     : GePol (No added spheres)
                        Default sphere list used, NSphG=    5.
                        Lebedev-Laikov grids with approx.  5.0 points / Ang**2.
                        Smoothing algorithm: Karplus/York (Gamma=1.0000).
                        Polarization charges: spherical gaussians, with
                                              point-specific exponents (IZeta= 3).
                        Self-potential: point-specific (ISelfS= 7).
                        Self-field    : sphere-specific E.n sum rule (ISelfD= 2).
 1st derivatives      : Analytical E(r).r(x)/FMM algorithm (CHGder, D1EAlg=3).
                        Cavity 1st derivative terms included.
 Solvent              : Water, Eps=  78.355300 Eps(inf)=   1.777849
 ------------------------------------------------------------------------------
 Spheres list:
 ISph  on   Nord    Re0     Alpha      Xe            Ye            Ze
    1   C      1    1.850   1.000      0.000000      0.406045      0.000000
    2   H      2    1.200   1.000     -0.341935      1.448546      0.000000
    3   O      3    1.520   1.000      1.184272      0.108442      0.000000
    4   O      4    1.520   1.000     -1.049232     -0.425371      0.000000
    5   H      5    1.200   1.000     -0.738386     -1.349382      0.000000
 ------------------------------------------------------------------------------
 ------------------------------------------------------------------------------
 Atomic radii for non-electrostatic terms: SMD-CDS.
 ------------------------------------------------------------------------------
 Nuclear repulsion after PCM non-electrostatic terms =       69.5733374624 Hartrees.
 One-electron integrals computed using PRISM.
 NBasis=    67 RedAO= T  NBF=    50    17
 NBsUse=    67 1.00D-06 NBFU=    50    17
 Initial guess read from the read-write file.
 B after Tr=     0.000000    0.000000    0.000000
         Rot=    1.000000    0.000000    0.000000    0.000000 Ang=   0.00 deg.
 Initial guess orbital symmetries:
       Occupied  (A') (A') (A') (A') (A') (A') (A') (A') (A") (A')
                 (A") (A')
       Virtual   (A') (A") (A') (A') (A") (A') (A') (A") (A') (A')
                 (A") (A') (A') (A') (A') (A') (A') (A") (A') (A')
                 (A') (A') (A') (A') (A") (A") (A') (A') (A') (A")
                 (A") (A') (A') (A") (A') (A") (A') (A') (A') (A')
                 (A") (A') (A") (A') (A") (A') (A") (A') (A') (A')
                 (A') (A') (A') (A') (A')
 Harris functional with IExCor= 1009 diagonalized for initial guess.
 ExpMin= 4.38D-02 ExpMax= 5.48D+03 ExpMxC= 8.25D+02 IAcc=2 IRadAn=         0 AccDes= 0.00D+00
 HarFok:  IExCor= 1009 AccDes= 0.00D+00 IRadAn=         0 IDoV= 1
 ScaDFX=  1.000000  1.000000  1.000000  1.000000
 FoFCou: FMM=F IPFlag=           0 FMFlag=      100000 FMFlg1=           0
         NFxFlg=           0 DoJE=T BraDBF=F KetDBF=T FulRan=T
         Omega=  0.000000  0.000000  1.000000  0.000000  0.000000 ICntrl=     500 IOpCl=  0
         NMat0=    1 NMatS0=    1 NMatT0=    0 NMatD0=    1 NMtDS0=    0 NMtDT0=    0
         I1Cent=           4 NGrid=           0.
 Petite list used in FoFCou.
 Requested convergence on RMS density matrix=1.00D-08 within 128 cycles.
 Requested convergence on MAX density matrix=1.00D-06.
 Requested convergence on             energy=1.00D-06.
 No special actions if energy rises.
 Keep R1 ints in memory in canonical form, NReq=5794102.
 Error on total polarization charges =  0.03126
 SCF Done:  E(RM062X) =  -189.703196037     A.U. after   11 cycles
             Convg  =    0.2697D-08             -V/T =  2.0089
 SMD-CDS (non-electrostatic) energy             (kcal/mol) =       4.24
 (included in total energy above)
 D1PCM: PCM CHGder 1st derivatives, ID1Alg=3 FixD1E=F DoIter=F DoCFld=F I1PDM=0.
 Calling FoFJK, ICntrl=      2127 FMM=F ISym2X=1 I1Cent= 0 IOpClX= 0 NMat=1 NMatS=1 NMatT=0.
 ***** Axes restored to original set *****
 -------------------------------------------------------------------
 Center     Atomic                   Forces (Hartrees/Bohr)
 Number     Number              X              Y              Z
 -------------------------------------------------------------------
      1        6           0.009546811   -0.000000118   -0.001368937
      2        1          -0.001436140    0.000000018    0.000608226
      3        8          -0.017433672    0.000000215   -0.008261465
      4        8           0.010021628   -0.000000124    0.008575929
      5        1          -0.000698627    0.000000009    0.000446247
 -------------------------------------------------------------------
 Cartesian Forces:  Max     0.017433672 RMS     0.006543697

 GradGradGradGradGradGradGradGradGradGradGradGradGradGradGradGradGradGrad
 Berny optimization.
 Using GEDIIS/GDIIS optimizer.
 Internal  Forces:  Max     0.016356244 RMS     0.008383723
 Search for a local minimum.
 Step number   4 out of a maximum of   20
 All quantities printed in internal units (Hartrees-Bohrs-Radians)
 Mixed Optimization -- RFO/linear search
 Update second derivatives using D2CorX and points    2    3    4
 DE= -4.65D-03 DEPred=-7.04D-03 R= 6.60D-01
 SS=  1.41D+00  RLast= 1.50D-01 DXNew= 8.4853D-01 4.4978D-01
 Trust test= 6.60D-01 RLast= 1.50D-01 DXMaxT set to 5.05D-01
 The second derivative matrix:
                          R1        R2        R3        R4        A1
           R1           0.37104
           R2           0.02097   0.98951
           R3           0.00771   0.12813   0.44889
           R4          -0.00168  -0.01348  -0.00208   0.55444
           A1           0.00368   0.00330  -0.02126   0.00310   0.16891
           A2          -0.00830  -0.05281   0.00439  -0.00139   0.01665
           A3          -0.00748   0.04454   0.04574  -0.00729  -0.00206
           A4          -0.00524  -0.00539   0.01675  -0.00240   0.00606
           D1           0.00000   0.00000   0.00000   0.00000   0.00000
           D2           0.00000   0.00000   0.00000   0.00000   0.00000
                          A2        A3        A4        D1        D2
           A2           0.16583
           A3          -0.02482   0.24067
           A4           0.00313  -0.00842   0.16520
           D1           0.00000   0.00000   0.00000   0.01295
           D2           0.00000   0.00000   0.00000   0.00000   0.01295
 Use linear search instead of GDIIS.
     Eigenvalues ---    0.01295   0.01295   0.14287   0.16363   0.23350
     Eigenvalues ---    0.37090   0.42811   0.55417   1.026331000.00000
 RFO step:  Lambda=-1.16882501D-03 EMin= 1.29493782D-02
 Quartic linear search produced a step of -0.21490.
 Iteration  1 RMS(Cart)=  0.03538601 RMS(Int)=  0.00082817
 Iteration  2 RMS(Cart)=  0.00072629 RMS(Int)=  0.00000008
 Iteration  3 RMS(Cart)=  0.00000010 RMS(Int)=  0.00000000
 ClnCor:  largest displacement from symmetrization is 9.17D-09 for atom     4.
 Variable       Old X    -DE/DX   Delta X   Delta X   Delta X     New X
                                 (Linear)    (Quad)   (Total)
    R1        2.07330  -0.00113  -0.00387  -0.00060  -0.00447   2.06883
    R2        2.30753  -0.01636  -0.02642   0.01199  -0.01443   2.29310
    R3        2.52979  -0.01018   0.00518  -0.01392  -0.00874   2.52105
    R4        1.84229   0.00083  -0.00041   0.00037  -0.00004   1.84225
    A1        2.13393   0.00865   0.01232   0.03790   0.05022   2.18416
    A2        1.92395   0.00610  -0.00072   0.01327   0.01255   1.93650
    A3        2.22530  -0.01475  -0.01160  -0.05117  -0.06277   2.16253
    A4        1.91637   0.00053   0.00336  -0.00327   0.00009   1.91646
    D1        3.14159   0.00000   0.00000   0.00000   0.00000   3.14159
    D2        0.00000   0.00000   0.00000   0.00000   0.00000   0.00000
         Item               Value     Threshold  Converged?
 Maximum Force            0.016356     0.000450     NO 
 RMS     Force            0.008384     0.000300     NO 
 Maximum Displacement     0.086002     0.001800     NO 
 RMS     Displacement     0.035496     0.001200     NO 
 Predicted change in Energy=-8.090401D-04
 GradGradGradGradGradGradGradGradGradGradGradGradGradGradGradGradGradGrad

                          Input orientation:                          
 ---------------------------------------------------------------------
 Center     Atomic      Atomic             Coordinates (Angstroms)
 Number     Number       Type             X           Y           Z
 ---------------------------------------------------------------------
      1          6           0       -0.129665    0.117522    0.097874
      2          1           0        0.337179    0.117516   -0.892377
      3          8           0        0.470007    0.117515    1.152802
      4          8           0       -1.460015    0.117539   -0.001869
      5          1           0       -1.857976    0.117544    0.888079
 ---------------------------------------------------------------------
                    Distance matrix (angstroms):
                    1          2          3          4          5
     1  C    0.000000
     2  H    1.094779   0.000000
     3  O    1.213458   2.049488   0.000000
     4  O    1.334084   2.005720   2.249055   0.000000
     5  H    1.900390   2.826434   2.342986   0.974874   0.000000
 Stoichiometry    CH2O2
 Framework group  CS[SG(CH2O2)]
 Deg. of freedom     7
 Full point group                 CS      NOp   2
 Largest Abelian subgroup         CS      NOp   2
 Largest concise Abelian subgroup C1      NOp   1
                         Standard orientation:                         
 ---------------------------------------------------------------------
 Center     Atomic      Atomic             Coordinates (Angstroms)
 Number     Number       Type             X           Y           Z
 ---------------------------------------------------------------------
      1          6           0        0.000000    0.428748    0.000000
      2          1           0       -0.346320    1.467306    0.000000
      3          8           0        1.162269    0.080021    0.000000
      4          8           0       -1.030966   -0.417946    0.000000
      5          1           0       -0.704107   -1.336392    0.000000
 ---------------------------------------------------------------------
 Rotational constants (GHZ):     75.6493770     12.1497196     10.4684303
 Standard basis: 6-31+G(d,p) (6D, 7F)
 There are    50 symmetry adapted basis functions of A'  symmetry.
 There are    17 symmetry adapted basis functions of A"  symmetry.
 Integral buffers will be    262144 words long.
 Raffenetti 2 integral format.
 Two-electron integral symmetry is turned on.
    67 basis functions,   110 primitive gaussians,    67 cartesian basis functions
    12 alpha electrons       12 beta electrons
       nuclear repulsion energy        70.1142811210 Hartrees.
 NAtoms=    5 NActive=    5 NUniq=    5 SFac= 7.50D-01 NAtFMM=   80 NAOKFM=F Big=F
 ------------------------------------------------------------------------------
 Polarizable Continuum Model (PCM)
 =================================
 Model                : PCM.
 Atomic radii         : SMD-Coulomb.
 Polarization charges : Total charges.
 Charge compensation  : None.
 Solution method      : Matrix inversion.
 Cavity type          : VdW (van der Waals Surface) (Alpha=1.000).
 Cavity algorithm     : GePol (No added spheres)
                        Default sphere list used, NSphG=    5.
                        Lebedev-Laikov grids with approx.  5.0 points / Ang**2.
                        Smoothing algorithm: Karplus/York (Gamma=1.0000).
                        Polarization charges: spherical gaussians, with
                                              point-specific exponents (IZeta= 3).
                        Self-potential: point-specific (ISelfS= 7).
                        Self-field    : sphere-specific E.n sum rule (ISelfD= 2).
 1st derivatives      : Analytical E(r).r(x)/FMM algorithm (CHGder, D1EAlg=3).
                        Cavity 1st derivative terms included.
 Solvent              : Water, Eps=  78.355300 Eps(inf)=   1.777849
 ------------------------------------------------------------------------------
 Spheres list:
 ISph  on   Nord    Re0     Alpha      Xe            Ye            Ze
    1   C      1    1.850   1.000      0.000000      0.428748      0.000000
    2   H      2    1.200   1.000     -0.346320      1.467306      0.000000
    3   O      3    1.520   1.000      1.162269      0.080021      0.000000
    4   O      4    1.520   1.000     -1.030966     -0.417946      0.000000
    5   H      5    1.200   1.000     -0.704107     -1.336392      0.000000
 ------------------------------------------------------------------------------
 ------------------------------------------------------------------------------
 Atomic radii for non-electrostatic terms: SMD-CDS.
 ------------------------------------------------------------------------------
 Nuclear repulsion after PCM non-electrostatic terms =       70.1211242808 Hartrees.
 One-electron integrals computed using PRISM.
 NBasis=    67 RedAO= T  NBF=    50    17
 NBsUse=    67 1.00D-06 NBFU=    50    17
 Initial guess read from the read-write file.
 B after Tr=     0.000000    0.000000    0.000000
         Rot=    1.000000    0.000000    0.000000    0.000000 Ang=   0.00 deg.
 Initial guess orbital symmetries:
       Occupied  (A') (A') (A') (A') (A') (A') (A') (A') (A") (A')
                 (A") (A')
       Virtual   (A") (A') (A') (A') (A") (A') (A') (A") (A') (A')
                 (A") (A') (A') (A') (A') (A') (A') (A") (A') (A')
                 (A') (A') (A') (A') (A") (A") (A') (A') (A') (A")
                 (A") (A') (A') (A") (A') (A') (A") (A') (A') (A')
                 (A") (A') (A") (A') (A") (A") (A') (A') (A') (A')
                 (A') (A') (A') (A') (A')
 Harris functional with IExCor= 1009 diagonalized for initial guess.
 ExpMin= 4.38D-02 ExpMax= 5.48D+03 ExpMxC= 8.25D+02 IAcc=2 IRadAn=         0 AccDes= 0.00D+00
 HarFok:  IExCor= 1009 AccDes= 0.00D+00 IRadAn=         0 IDoV= 1
 ScaDFX=  1.000000  1.000000  1.000000  1.000000
 FoFCou: FMM=F IPFlag=           0 FMFlag=      100000 FMFlg1=           0
         NFxFlg=           0 DoJE=T BraDBF=F KetDBF=T FulRan=T
         Omega=  0.000000  0.000000  1.000000  0.000000  0.000000 ICntrl=     500 IOpCl=  0
         NMat0=    1 NMatS0=    1 NMatT0=    0 NMatD0=    1 NMtDS0=    0 NMtDT0=    0
         I1Cent=           4 NGrid=           0.
 Petite list used in FoFCou.
 Requested convergence on RMS density matrix=1.00D-08 within 128 cycles.
 Requested convergence on MAX density matrix=1.00D-06.
 Requested convergence on             energy=1.00D-06.
 No special actions if energy rises.
 Keep R1 ints in memory in canonical form, NReq=5794102.
 Error on total polarization charges =  0.03104
 SCF Done:  E(RM062X) =  -189.703999042     A.U. after   10 cycles
             Convg  =    0.5231D-08             -V/T =  2.0086
 SMD-CDS (non-electrostatic) energy             (kcal/mol) =       4.29
 (included in total energy above)
 D1PCM: PCM CHGder 1st derivatives, ID1Alg=3 FixD1E=F DoIter=F DoCFld=F I1PDM=0.
 Calling FoFJK, ICntrl=      2127 FMM=F ISym2X=1 I1Cent= 0 IOpClX= 0 NMat=1 NMatS=1 NMatT=0.
 ***** Axes restored to original set *****
 -------------------------------------------------------------------
 Center     Atomic                   Forces (Hartrees/Bohr)
 Number     Number              X              Y              Z
 -------------------------------------------------------------------
      1        6          -0.003618396    0.000000045    0.003235263
      2        1           0.001109801   -0.000000014    0.000698565
      3        8           0.000469894   -0.000000006   -0.002489666
      4        8           0.001563481   -0.000000019   -0.001464415
      5        1           0.000475220   -0.000000006    0.000020253
 -------------------------------------------------------------------
 Cartesian Forces:  Max     0.003618396 RMS     0.001560210

 GradGradGradGradGradGradGradGradGradGradGradGradGradGradGradGradGradGrad
 Berny optimization.
 Using GEDIIS/GDIIS optimizer.
 Internal  Forces:  Max     0.002152165 RMS     0.001352199
 Search for a local minimum.
 Step number   5 out of a maximum of   20
 All quantities printed in internal units (Hartrees-Bohrs-Radians)
 Mixed Optimization -- RFO/linear search
 Update second derivatives using D2CorX and points    1    2    3    4    5
 DE= -8.03D-04 DEPred=-8.09D-04 R= 9.93D-01
 SS=  1.41D+00  RLast= 8.32D-02 DXNew= 8.4853D-01 2.4965D-01
 Trust test= 9.93D-01 RLast= 8.32D-02 DXMaxT set to 5.05D-01
 The second derivative matrix:
                          R1        R2        R3        R4        A1
           R1           0.37099
           R2           0.01680   0.96766
           R3           0.00546   0.11143   0.42454
           R4          -0.00139  -0.01260  -0.00133   0.55452
           A1           0.00621   0.02715  -0.02270   0.00433   0.18865
           A2          -0.00844  -0.03658   0.01279  -0.00191   0.02763
           A3          -0.01162   0.00399   0.02940  -0.00774  -0.01906
           A4          -0.00590   0.00009   0.01609  -0.00260   0.01224
           D1           0.00000   0.00000   0.00000   0.00000   0.00000
           D2           0.00000   0.00000   0.00000   0.00000   0.00000
                          A2        A3        A4        D1        D2
           A2           0.16927
           A3          -0.03269   0.24191
           A4           0.00646  -0.01716   0.16645
           D1           0.00000   0.00000   0.00000   0.01295
           D2           0.00000   0.00000   0.00000   0.00000   0.01295
 Use linear search instead of GDIIS.
     Eigenvalues ---    0.01295   0.01295   0.14166   0.16276   0.26517
     Eigenvalues ---    0.37163   0.41192   0.55441   0.992571000.00000
 RFO step:  Lambda=-4.22042965D-05 EMin= 1.29493782D-02
 Quartic linear search produced a step of -0.09330.
 Iteration  1 RMS(Cart)=  0.00425785 RMS(Int)=  0.00001712
 Iteration  2 RMS(Cart)=  0.00001677 RMS(Int)=  0.00000000
 Iteration  3 RMS(Cart)=  0.00000000 RMS(Int)=  0.00000000
 ClnCor:  largest displacement from symmetrization is 6.27D-10 for atom     1.
 Variable       Old X    -DE/DX   Delta X   Delta X   Delta X     New X
                                 (Linear)    (Quad)   (Total)
    R1        2.06883  -0.00011   0.00042  -0.00015   0.00026   2.06910
    R2        2.29310  -0.00200   0.00135  -0.00235  -0.00100   2.29210
    R3        2.52105  -0.00201   0.00082  -0.00642  -0.00560   2.51545
    R4        1.84225  -0.00002   0.00000   0.00011   0.00011   1.84236
    A1        2.18416  -0.00215  -0.00469  -0.00695  -0.01164   2.17252
    A2        1.93650   0.00008  -0.00117   0.00497   0.00380   1.94030
    A3        2.16253   0.00207   0.00586   0.00198   0.00783   2.17036
    A4        1.91646  -0.00114  -0.00001  -0.00478  -0.00479   1.91167
    D1        3.14159   0.00000   0.00000   0.00000   0.00000   3.14159
    D2        0.00000   0.00000   0.00000   0.00000   0.00000   0.00000
         Item               Value     Threshold  Converged?
 Maximum Force            0.002152     0.000450     NO 
 RMS     Force            0.001352     0.000300     NO 
 Maximum Displacement     0.007760     0.001800     NO 
 RMS     Displacement     0.004264     0.001200     NO 
 Predicted change in Energy=-3.067122D-05
 GradGradGradGradGradGradGradGradGradGradGradGradGradGradGradGradGradGrad

                          Input orientation:                          
 ---------------------------------------------------------------------
 Center     Atomic      Atomic             Coordinates (Angstroms)
 Number     Number       Type             X           Y           Z
 ---------------------------------------------------------------------
      1          6           0       -0.133771    0.117522    0.098849
      2          1           0        0.338768    0.117516   -0.888852
      3          8           0        0.471889    0.117515    1.149738
      4          8           0       -1.460975    0.117539   -0.003188
      5          1           0       -1.856381    0.117544    0.887961
 ---------------------------------------------------------------------
                    Distance matrix (angstroms):
                    1          2          3          4          5
     1  C    0.000000
     2  H    1.094919   0.000000
     3  O    1.212928   2.042932   0.000000
     4  O    1.331120   2.005860   2.250600   0.000000
     5  H    1.894751   2.824136   2.342940   0.974933   0.000000
 Stoichiometry    CH2O2
 Framework group  CS[SG(CH2O2)]
 Deg. of freedom     7
 Full point group                 CS      NOp   2
 Largest Abelian subgroup         CS      NOp   2
 Largest concise Abelian subgroup C1      NOp   1
                         Standard orientation:                         
 ---------------------------------------------------------------------
 Center     Atomic      Atomic             Coordinates (Angstroms)
 Number     Number       Type             X           Y           Z
 ---------------------------------------------------------------------
      1          6           0        0.000000    0.424835    0.000000
      2          1           0       -0.337672    1.466384    0.000000
      3          8           0        1.162898    0.080072    0.000000
      4          8           0       -1.032512   -0.415283    0.000000
      5          1           0       -0.705417   -1.333707    0.000000
 ---------------------------------------------------------------------
 Rotational constants (GHZ):     76.3954494     12.1349804     10.4716229
 Standard basis: 6-31+G(d,p) (6D, 7F)
 There are    50 symmetry adapted basis functions of A'  symmetry.
 There are    17 symmetry adapted basis functions of A"  symmetry.
 Integral buffers will be    262144 words long.
 Raffenetti 2 integral format.
 Two-electron integral symmetry is turned on.
    67 basis functions,   110 primitive gaussians,    67 cartesian basis functions
    12 alpha electrons       12 beta electrons
       nuclear repulsion energy        70.1664899675 Hartrees.
 NAtoms=    5 NActive=    5 NUniq=    5 SFac= 7.50D-01 NAtFMM=   80 NAOKFM=F Big=F
 ------------------------------------------------------------------------------
 Polarizable Continuum Model (PCM)
 =================================
 Model                : PCM.
 Atomic radii         : SMD-Coulomb.
 Polarization charges : Total charges.
 Charge compensation  : None.
 Solution method      : Matrix inversion.
 Cavity type          : VdW (van der Waals Surface) (Alpha=1.000).
 Cavity algorithm     : GePol (No added spheres)
                        Default sphere list used, NSphG=    5.
                        Lebedev-Laikov grids with approx.  5.0 points / Ang**2.
                        Smoothing algorithm: Karplus/York (Gamma=1.0000).
                        Polarization charges: spherical gaussians, with
                                              point-specific exponents (IZeta= 3).
                        Self-potential: point-specific (ISelfS= 7).
                        Self-field    : sphere-specific E.n sum rule (ISelfD= 2).
 1st derivatives      : Analytical E(r).r(x)/FMM algorithm (CHGder, D1EAlg=3).
                        Cavity 1st derivative terms included.
 Solvent              : Water, Eps=  78.355300 Eps(inf)=   1.777849
 ------------------------------------------------------------------------------
 Spheres list:
 ISph  on   Nord    Re0     Alpha      Xe            Ye            Ze
    1   C      1    1.850   1.000      0.000000      0.424835      0.000000
    2   H      2    1.200   1.000     -0.337672      1.466384      0.000000
    3   O      3    1.520   1.000      1.162898      0.080072      0.000000
    4   O      4    1.520   1.000     -1.032512     -0.415283      0.000000
    5   H      5    1.200   1.000     -0.705417     -1.333707      0.000000
 ------------------------------------------------------------------------------
 ------------------------------------------------------------------------------
 Atomic radii for non-electrostatic terms: SMD-CDS.
 ------------------------------------------------------------------------------
 Nuclear repulsion after PCM non-electrostatic terms =       70.1733397902 Hartrees.
 One-electron integrals computed using PRISM.
 NBasis=    67 RedAO= T  NBF=    50    17
 NBsUse=    67 1.00D-06 NBFU=    50    17
 Initial guess read from the read-write file.
 B after Tr=     0.000000    0.000000    0.000000
         Rot=    1.000000    0.000000    0.000000    0.000000 Ang=   0.00 deg.
 Initial guess orbital symmetries:
       Occupied  (A') (A') (A') (A') (A') (A') (A') (A') (A") (A')
                 (A") (A')
       Virtual   (A') (A") (A') (A') (A") (A') (A') (A') (A") (A')
                 (A") (A') (A') (A') (A') (A') (A') (A") (A') (A')
                 (A') (A') (A') (A') (A") (A") (A') (A') (A') (A")
                 (A") (A') (A') (A") (A') (A") (A') (A') (A') (A')
                 (A") (A') (A") (A') (A") (A") (A') (A') (A') (A')
                 (A') (A') (A') (A') (A')
 Requested convergence on RMS density matrix=1.00D-08 within 128 cycles.
 Requested convergence on MAX density matrix=1.00D-06.
 Requested convergence on             energy=1.00D-06.
 No special actions if energy rises.
 Keep R1 ints in memory in canonical form, NReq=5794102.
 Error on total polarization charges =  0.03106
 SCF Done:  E(RM062X) =  -189.704037131     A.U. after    9 cycles
             Convg  =    0.6462D-08             -V/T =  2.0085
 SMD-CDS (non-electrostatic) energy             (kcal/mol) =       4.30
 (included in total energy above)
 D1PCM: PCM CHGder 1st derivatives, ID1Alg=3 FixD1E=F DoIter=F DoCFld=F I1PDM=0.
 Calling FoFJK, ICntrl=      2127 FMM=F ISym2X=1 I1Cent= 0 IOpClX= 0 NMat=1 NMatS=1 NMatT=0.
 ***** Axes restored to original set *****
 -------------------------------------------------------------------
 Center     Atomic                   Forces (Hartrees/Bohr)
 Number     Number              X              Y              Z
 -------------------------------------------------------------------
      1        6          -0.000039320    0.000000000    0.000367772
      2        1           0.000315276   -0.000000004    0.000275080
      3        8          -0.000309537    0.000000004   -0.000344442
      4        8           0.000229061   -0.000000003   -0.000235134
      5        1          -0.000195480    0.000000002   -0.000063277
 -------------------------------------------------------------------
 Cartesian Forces:  Max     0.000367772 RMS     0.000212336

 GradGradGradGradGradGradGradGradGradGradGradGradGradGradGradGradGradGrad
 Berny optimization.
 Using GEDIIS/GDIIS optimizer.
 Internal  Forces:  Max     0.000520461 RMS     0.000196996
 Search for a local minimum.
 Step number   6 out of a maximum of   20
 All quantities printed in internal units (Hartrees-Bohrs-Radians)
 Mixed Optimization -- En-DIIS/RFO-DIIS
 Update second derivatives using D2CorX and points    1    2    3    4    5
                                                      6
 DE= -3.81D-05 DEPred=-3.07D-05 R= 1.24D+00
 SS=  1.41D+00  RLast= 1.63D-02 DXNew= 8.4853D-01 4.8987D-02
 Trust test= 1.24D+00 RLast= 1.63D-02 DXMaxT set to 5.05D-01
 The second derivative matrix:
                          R1        R2        R3        R4        A1
           R1           0.37240
           R2           0.01585   0.92454
           R3           0.00063   0.08921   0.41896
           R4          -0.00054  -0.00549   0.00601   0.55526
           A1           0.00491   0.00766  -0.03496   0.01050   0.17649
           A2          -0.00799  -0.02868   0.01595  -0.00251   0.03060
           A3          -0.00933   0.01538   0.01862  -0.01232  -0.01915
           A4          -0.00727  -0.00448   0.01878   0.00120   0.01022
           D1           0.00000   0.00000   0.00000   0.00000   0.00000
           D2           0.00000   0.00000   0.00000   0.00000   0.00000
                          A2        A3        A4        D1        D2
           A2           0.16917
           A3          -0.03382   0.24772
           A4           0.00723  -0.02291   0.16911
           D1           0.00000   0.00000   0.00000   0.01295
           D2           0.00000   0.00000   0.00000   0.00000   0.01295
 Use linear search instead of GDIIS.
     Eigenvalues ---    0.01295   0.01295   0.13299   0.16230   0.27210
     Eigenvalues ---    0.37226   0.41324   0.55620   0.941701000.00000
 RFO step:  Lambda=-4.95151434D-07 EMin= 1.29493782D-02
 Quartic linear search produced a step of  0.04421.
 Iteration  1 RMS(Cart)=  0.00054048 RMS(Int)=  0.00000016
 Iteration  2 RMS(Cart)=  0.00000014 RMS(Int)=  0.00000000
 ClnCor:  largest displacement from symmetrization is 2.28D-11 for atom     5.
 Variable       Old X    -DE/DX   Delta X   Delta X   Delta X     New X
                                 (Linear)    (Quad)   (Total)
    R1        2.06910  -0.00006   0.00001  -0.00013  -0.00011   2.06898
    R2        2.29210  -0.00052  -0.00004  -0.00045  -0.00050   2.29160
    R3        2.51545  -0.00010  -0.00025   0.00006  -0.00019   2.51526
    R4        1.84236   0.00018   0.00000   0.00033   0.00034   1.84269
    A1        2.17252  -0.00021  -0.00051  -0.00044  -0.00096   2.17156
    A2        1.94030   0.00016   0.00017   0.00069   0.00085   1.94116
    A3        2.17036   0.00005   0.00035  -0.00025   0.00010   2.17046
    A4        1.91167   0.00004  -0.00021   0.00068   0.00047   1.91214
    D1        3.14159   0.00000   0.00000   0.00000   0.00000   3.14159
    D2        0.00000   0.00000   0.00000   0.00000   0.00000   0.00000
         Item               Value     Threshold  Converged?
 Maximum Force            0.000520     0.000450     NO 
 RMS     Force            0.000197     0.000300     YES
 Maximum Displacement     0.000966     0.001800     YES
 RMS     Displacement     0.000540     0.001200     YES
 Predicted change in Energy=-3.998430D-07
 GradGradGradGradGradGradGradGradGradGradGradGradGradGradGradGradGradGrad

                          Input orientation:                          
 ---------------------------------------------------------------------
 Center     Atomic      Atomic             Coordinates (Angstroms)
 Number     Number       Type             X           Y           Z
 ---------------------------------------------------------------------
      1          6           0       -0.133900    0.117522    0.098742
      2          1           0        0.339271    0.117516   -0.888589
      3          8           0        0.471934    0.117515    1.149227
      4          8           0       -1.461023    0.117539   -0.003036
      5          1           0       -1.856753    0.117544    0.888164
 ---------------------------------------------------------------------
                    Distance matrix (angstroms):
                    1          2          3          4          5
     1  C    0.000000
     2  H    1.094858   0.000000
     3  O    1.212664   2.042130   0.000000
     4  O    1.331020   2.006306   2.250341   0.000000
     5  H    1.895102   2.824779   2.343275   0.975110   0.000000
 Stoichiometry    CH2O2
 Framework group  CS[SG(CH2O2)]
 Deg. of freedom     7
 Full point group                 CS      NOp   2
 Largest Abelian subgroup         CS      NOp   2
 Largest concise Abelian subgroup C1      NOp   1
                         Standard orientation:                         
 ---------------------------------------------------------------------
 Center     Atomic      Atomic             Coordinates (Angstroms)
 Number     Number       Type             X           Y           Z
 ---------------------------------------------------------------------
      1          6           0        0.000000    0.424751    0.000000
      2          1           0       -0.336815    1.466514    0.000000
      3          8           0        1.162697    0.080239    0.000000
      4          8           0       -1.032392   -0.415356    0.000000
      5          1           0       -0.705624   -1.334085    0.000000
 ---------------------------------------------------------------------
 Rotational constants (GHZ):     76.4128122     12.1373750     10.4737323
 Standard basis: 6-31+G(d,p) (6D, 7F)
 There are    50 symmetry adapted basis functions of A'  symmetry.
 There are    17 symmetry adapted basis functions of A"  symmetry.
 Integral buffers will be    262144 words long.
 Raffenetti 2 integral format.
 Two-electron integral symmetry is turned on.
[...]
     15 vectors produced by pass  3 Test12= 3.67D-15 5.56D-09 XBig12= 3.14D-04 3.81D-03.
     15 vectors produced by pass  4 Test12= 3.67D-15 5.56D-09 XBig12= 1.97D-06 2.51D-04.
     15 vectors produced by pass  5 Test12= 3.67D-15 5.56D-09 XBig12= 8.36D-09 2.43D-05.
      9 vectors produced by pass  6 Test12= 3.67D-15 5.56D-09 XBig12= 2.96D-11 1.22D-06.
      3 vectors produced by pass  7 Test12= 3.67D-15 5.56D-09 XBig12= 8.93D-14 7.10D-08.
 Inverted reduced A of dimension   102 with in-core refinement.
 Isotropic polarizability for W=    0.000000       24.69 Bohr**3.
 End of Minotr Frequency-dependent properties file   721 does not exist.
 End of Minotr Frequency-dependent properties file   722 does not exist.

 **********************************************************************

            Population analysis using the SCF density.

 **********************************************************************

 Orbital symmetries:
       Occupied  (A') (A') (A') (A') (A') (A') (A') (A') (A") (A')
                 (A") (A')
       Virtual   (A') (A") (A') (A') (A") (A') (A') (A") (A') (A')
                 (A") (A') (A') (A') (A') (A') (A') (A") (A') (A')
                 (A') (A') (A') (A') (A") (A") (A') (A') (A') (A")
                 (A") (A') (A') (A") (A') (A") (A') (A') (A') (A')
                 (A") (A') (A") (A') (A") (A") (A') (A') (A') (A')
                 (A') (A') (A') (A') (A')
 The electronic state is 1-A'.
 Alpha  occ. eigenvalues --  -19.70449 -19.66009 -10.69933  -1.24747  -1.15479
 Alpha  occ. eigenvalues --   -0.75574  -0.60559  -0.59197  -0.53772  -0.48634
 Alpha  occ. eigenvalues --   -0.41018  -0.37896
 Alpha virt. eigenvalues --    0.03004   0.03100   0.04953   0.05439   0.07135
 Alpha virt. eigenvalues --    0.17260   0.18969   0.21409   0.21443   0.24321
 Alpha virt. eigenvalues --    0.25616   0.26968   0.27131   0.30296   0.33447
 Alpha virt. eigenvalues --    0.39474   0.50487   0.68925   0.78755   0.81679
 Alpha virt. eigenvalues --    0.95398   0.99578   1.10348   1.17988   1.19827
 Alpha virt. eigenvalues --    1.27115   1.27672   1.28657   1.36346   1.42011
 Alpha virt. eigenvalues --    1.45668   1.54785   1.58367   1.64728   1.73681
 Alpha virt. eigenvalues --    1.84794   1.85722   1.91390   2.14554   2.14943
 Alpha virt. eigenvalues --    2.24727   2.43308   2.53444   2.55477   2.57967
 Alpha virt. eigenvalues --    2.77840   2.79159   2.91993   3.07486   3.11437
 Alpha virt. eigenvalues --    3.44555   3.57261   4.12438   4.17722   4.48407
          Condensed to atoms (all electrons):
              1          2          3          4          5
     1  C    4.516809   0.437799   0.444196   0.202628  -0.000663
     2  H    0.437799   0.495622  -0.051007  -0.093985   0.005403
     3  O    0.444196  -0.051007   8.282254  -0.123234   0.006986
     4  O    0.202628  -0.093985  -0.123234   8.240310   0.255940
     5  H   -0.000663   0.005403   0.006986   0.255940   0.296876
 Mulliken atomic charges:
              1
     1  C    0.399231
     2  H    0.206168
     3  O   -0.559196
     4  O   -0.481660
     5  H    0.435457
 Sum of Mulliken atomic charges =   0.00000
 Mulliken charges with hydrogens summed into heavy atoms:
              1
     1  C    0.605398
     3  O   -0.559196
     4  O   -0.046202
 Sum of Mulliken charges with hydrogens summed into heavy atoms =   0.00000
 APT atomic charges:
              1
     1  C    1.562688
     2  H    0.062327
     3  O   -1.060404
     4  O   -0.995527
     5  H    0.430917
 Sum of APT charges=   0.00000
 APT Atomic charges with hydrogens summed into heavy atoms:
              1
     1  C    1.625014
     2  H    0.000000
     3  O   -1.060404
     4  O   -0.564610
     5  H    0.000000
 Sum of APT charges=   0.00000
 Electronic spatial extent (au):  <R**2>=            133.4464
 Charge=              0.0000 electrons
 Dipole moment (field-independent basis, Debye):
    X=             -2.2702    Y=             -0.2823    Z=              0.0000  Tot=              2.2877
 Quadrupole moment (field-independent basis, Debye-Ang):
   XX=            -23.7163   YY=            -11.7771   ZZ=            -17.2038
   XY=              0.2404   XZ=              0.0000   YZ=              0.0000
 Traceless Quadrupole moment (field-independent basis, Debye-Ang):
   XX=             -6.1506   YY=              5.7886   ZZ=              0.3620
   XY=              0.2404   XZ=              0.0000   YZ=              0.0000
 Octapole moment (field-independent basis, Debye-Ang**2):
  XXX=             -3.3445  YYY=             -4.5698  ZZZ=              0.0000  XYY=             -4.2800
  XXY=             -1.1429  XXZ=              0.0000  XZZ=             -0.2076  YZZ=             -0.3829
  YYZ=              0.0000  XYZ=              0.0000
 Hexadecapole moment (field-independent basis, Debye-Ang**3):
 XXXX=           -114.0435 YYYY=            -25.0858 ZZZZ=            -14.8306 XXXY=            -10.3903
 XXXZ=              0.0000 YYYX=             -5.8218 YYYZ=              0.0000 ZZZX=              0.0000
 ZZZY=              0.0000 XXYY=            -22.1897 XXZZ=            -20.3396 YYZZ=             -8.9624
 XXYZ=              0.0000 YYXZ=              0.0000 ZZXY=             -3.1553
 N-N= 7.018015881864D+01 E-N=-5.860369690306D+02  KE= 1.880991263670D+02
 Symmetry A'   KE= 1.799381772059D+02
 Symmetry A"   KE= 8.160949161104D+00
  Exact polarizability:  33.940   0.132  24.922   0.000   0.000  15.211
 Approx polarizability:  30.082  -0.200  20.657   0.000   0.000  13.865
 D2PCM: PCM CHGder 2nd derivatives, FixD1E=F FixD2E=F DoIter=F DoCFld=F I1PDM=0
 Calling FoFJK, ICntrl=    100127 FMM=F ISym2X=1 I1Cent= 0 IOpClX= 0 NMat=1 NMatS=1 NMatT=0.
 Full mass-weighted force constant matrix:
 Low frequencies ---   -6.1791   -0.0017   -0.0016   -0.0015   82.6876  122.5709
 Low frequencies ---  652.3895  680.6353 1092.7022
 Diagonal vibrational polarizability:
       15.6806673       9.3332565      16.1069616
 Harmonic frequencies (cm**-1), IR intensities (KM/Mole), Raman scattering
 activities (A**4/AMU), depolarization ratios for plane and unpolarized
 incident light, reduced masses (AMU), force constants (mDyne/A),
 and normal coordinates:
                     1                      2                      3
                    A'                     A"                     A"
 Frequencies --   652.3462               679.7983              1092.6988
 Red. masses --     3.7093                 1.2670                 1.5521
 Frc consts  --     0.9300                 0.3450                 1.0919
 IR Inten    --    92.2402               275.1601                 3.7013
  Atom  AN      X      Y      Z        X      Y      Z        X      Y      Z
     1   6     0.08  -0.24   0.00     0.00   0.00   0.09     0.00   0.00   0.21
     2   1     0.00  -0.26   0.00     0.00   0.00   0.18     0.00   0.00  -0.96
     3   8     0.22   0.18   0.00     0.00   0.00  -0.04     0.00   0.00  -0.05
     4   8    -0.23   0.02   0.00     0.00   0.00  -0.10     0.00   0.00  -0.03
     5   1    -0.84  -0.19   0.00     0.00   0.00   0.97     0.00   0.00  -0.15
                     4                      5                      6
                    A'                     A'                     A'
 Frequencies --  1139.7340              1319.5320              1417.6046
 Red. masses --     3.3566                 1.6802                 1.1414
 Frc consts  --     2.5690                 1.7236                 1.3515
 IR Inten    --   546.9473                25.0755                 7.8398
  Atom  AN      X      Y      Z        X      Y      Z        X      Y      Z
     1   6     0.14   0.21   0.00     0.09   0.19   0.00    -0.01  -0.04   0.00
     2   1     0.39   0.29   0.00    -0.20   0.12   0.00     0.94   0.25   0.00
     3   8     0.10  -0.02   0.00    -0.02  -0.03   0.00    -0.06   0.05   0.00
     4   8    -0.27  -0.17   0.00     0.02  -0.09   0.00     0.03  -0.03   0.00
     5   1     0.75   0.18   0.00    -0.86  -0.38   0.00    -0.19  -0.10   0.00
                     7                      8                      9
                    A'                     A'                     A'
 Frequencies --  1767.5650              3192.1097              3742.8381
 Red. masses --     8.0689                 1.0941                 1.0650
 Frc consts  --    14.8530                 6.5684                 8.7901
 IR Inten    --   798.9410                26.4291               211.1904
  Atom  AN      X      Y      Z        X      Y      Z        X      Y      Z
     1   6     0.60  -0.17   0.00     0.03  -0.08   0.00     0.00   0.00   0.00
     2   1    -0.27  -0.50   0.00    -0.29   0.95   0.00     0.00  -0.02   0.00
     3   8    -0.41   0.13   0.00     0.00   0.00   0.00     0.00   0.00   0.00
     4   8    -0.04   0.02   0.00     0.00   0.00   0.00    -0.02   0.06   0.00
     5   1     0.28   0.14   0.00     0.02  -0.02   0.00     0.32  -0.95   0.00

 -------------------
 - Thermochemistry -
 -------------------
 Temperature   298.150 Kelvin.  Pressure   1.00000 Atm.
 Atom     1 has atomic number  6 and mass  12.00000
 Atom     2 has atomic number  1 and mass   1.00783
 Atom     3 has atomic number  8 and mass  15.99491
 Atom     4 has atomic number  8 and mass  15.99491
 Atom     5 has atomic number  1 and mass   1.00783
 Molecular mass:    46.00548 amu.
 Principal axes and moments of inertia in atomic units:
                           1         2         3
     Eigenvalues --    23.61831 148.69288 172.31118
           X            0.96551  -0.26037   0.00000
           Y            0.26037   0.96551   0.00000
           Z            0.00000   0.00000   1.00000
 This molecule is an asymmetric top.
 Rotational symmetry number  1.
 Rotational temperatures (Kelvin)      3.66723     0.58250     0.50266
 Rotational constants (GHZ):          76.41281    12.13738    10.47373
 Zero-point vibrational energy      89745.2 (Joules/Mol)
                                   21.44962 (Kcal/Mol)
 Vibrational temperatures:    938.58   978.08  1572.15  1639.82  1898.51
          (Kelvin)           2039.61  2543.13  4592.73  5385.10
 
 Zero-point correction=                           0.034182 (Hartree/Particle)
 Thermal correction to Energy=                    0.037335
 Thermal correction to Enthalpy=                  0.038279
 Thermal correction to Gibbs Free Energy=         0.010106
 Sum of electronic and zero-point Energies=           -189.669856
 Sum of electronic and thermal Energies=              -189.666703
 Sum of electronic and thermal Enthalpies=            -189.665759
 Sum of electronic and thermal Free Energies=         -189.693932
 
                     E (Thermal)             CV                S
                      KCal/Mol        Cal/Mol-Kelvin    Cal/Mol-Kelvin
 Total                   23.428              8.554             59.296
 Electronic               0.000              0.000              0.000
 Translational            0.889              2.981             37.404
 Rotational               0.889              2.981             21.031
 Vibrational             21.651              2.593              0.862
                       Q            Log10(Q)             Ln(Q)
 Total Bot       0.224801D-04         -4.648202        -10.702881
 Total V=0       0.118702D+12         11.074459         25.499883
 Vib (Bot)       0.208140D-15        -15.681644        -36.108321
 Vib (V=0)       0.109905D+01          0.041016          0.094444
 Electronic      0.100000D+01          0.000000          0.000000
 Translational   0.122651D+08          7.088670         16.322265
 Rotational      0.880588D+04          3.944773          9.083175
 ***** Axes restored to original set *****
 -------------------------------------------------------------------
 Center     Atomic                   Forces (Hartrees/Bohr)
 Number     Number              X              Y              Z
 -------------------------------------------------------------------
      1        6          -0.000078202    0.000000001    0.000122763
      2        1           0.000205784   -0.000000003    0.000172918
      3        8          -0.000112607    0.000000001    0.000112077
      4        8           0.000059515   -0.000000001   -0.000198193
      5        1          -0.000074490    0.000000001   -0.000209564
 -------------------------------------------------------------------
 Cartesian Forces:  Max     0.000209564 RMS     0.000118593

 GradGradGradGradGradGradGradGradGradGradGradGradGradGradGradGradGradGrad
 Berny optimization.
 Internal  Forces:  Max     0.000064094 RMS     0.000037192
 Search for a local minimum.
 Step number   1 out of a maximum of    2
 All quantities printed in internal units (Hartrees-Bohrs-Radians)
 Second derivative matrix not updated -- analytic derivatives used.
 The second derivative matrix:
                          R1        R2        R3        R4        A1
           R1           0.35967
           R2           0.02070   0.84773
           R3           0.01077   0.11227   0.42704
           R4          -0.00162  -0.00718   0.01152   0.50354
           A1           0.00132   0.01129  -0.04187   0.00334   0.11885
           A2           0.01121  -0.04325   0.01546   0.00675  -0.03004
           A3          -0.01253   0.03196   0.02641  -0.01009  -0.08881
           A4           0.00223  -0.00337   0.04409   0.02190   0.00281
           D1           0.00000   0.00000   0.00000   0.00000   0.00000
           D2           0.00000   0.00000   0.00000   0.00000   0.00000
                          A2        A3        A4        D1        D2
           A2           0.12540
           A3          -0.09536   0.18417
           A4           0.02026  -0.02307   0.17387
           D1           0.00000   0.00000   0.00000   0.10426
           D2           0.00000   0.00000   0.00000  -0.08169   0.09967
     Eigenvalues ---    0.02024   0.14091   0.15610   0.18369   0.27529
     Eigenvalues ---    0.36233   0.41611   0.50819   0.881341000.00000
 Angle between quadratic step and forces=  24.55 degrees.
 Linear search not attempted -- first point.
 Iteration  1 RMS(Cart)=  0.00016136 RMS(Int)=  0.00000002
 Iteration  2 RMS(Cart)=  0.00000002 RMS(Int)=  0.00000000
 ClnCor:  largest displacement from symmetrization is 1.88D-11 for atom     4.
 Variable       Old X    -DE/DX   Delta X   Delta X   Delta X     New X
                                 (Linear)    (Quad)   (Total)
    R1        2.06898  -0.00002   0.00000  -0.00005  -0.00005   2.06894
    R2        2.29160  -0.00003   0.00000  -0.00001  -0.00001   2.29159
    R3        2.51526  -0.00004   0.00000  -0.00013  -0.00013   2.51513
    R4        1.84269  -0.00001   0.00000   0.00001   0.00001   1.84270
    A1        2.17156  -0.00006   0.00000  -0.00038  -0.00038   2.17119
    A2        1.94116   0.00000   0.00000   0.00016   0.00016   1.94132
    A3        2.17046   0.00006   0.00000   0.00021   0.00021   2.17068
    A4        1.91214  -0.00005   0.00000  -0.00026  -0.00026   1.91188
    D1        3.14159   0.00000   0.00000   0.00000   0.00000   3.14159
    D2        0.00000   0.00000   0.00000   0.00000   0.00000   0.00000
         Item               Value     Threshold  Converged?
 Maximum Force            0.000064     0.000450     YES
 RMS     Force            0.000037     0.000300     YES
 Maximum Displacement     0.000265     0.001800     YES
 RMS     Displacement     0.000161     0.001200     YES
 Predicted change in Energy=-2.940551D-08
 Optimization completed.
    -- Stationary point found.
                           ----------------------------
                           !   Optimized Parameters   !
                           ! (Angstroms and Degrees)  !
 --------------------------                            --------------------------
 ! Name  Definition              Value          Derivative Info.                !
 --------------------------------------------------------------------------------
 ! R1    R(1,2)                  1.0949         -DE/DX =    0.0                 !
 ! R2    R(1,3)                  1.2127         -DE/DX =    0.0                 !
 ! R3    R(1,4)                  1.331          -DE/DX =    0.0                 !
 ! R4    R(4,5)                  0.9751         -DE/DX =    0.0                 !
 ! A1    A(2,1,3)              124.4215         -DE/DX =   -0.0001              !
 ! A2    A(2,1,4)              111.2202         -DE/DX =    0.0                 !
 ! A3    A(3,1,4)              124.3583         -DE/DX =    0.0001              !
 ! A4    A(1,4,5)              109.5577         -DE/DX =   -0.0001              !
 ! D1    D(2,1,4,5)            180.0            -DE/DX =    0.0                 !
 ! D2    D(3,1,4,5)              0.0            -DE/DX =    0.0                 !
 --------------------------------------------------------------------------------
 GradGradGradGradGradGradGradGradGradGradGradGradGradGradGradGradGradGrad

 1|1|UNPC-DESKTOP-319GPER|Freq|RM062X|6-31+G(d,p)|C1H2O2|SAGAD|19-Jan-2
 021|0||#N Geom=AllCheck Guess=TCheck SCRF=Check GenChk RM062X/6-31+G(d
 ,p) Freq||formic acid m062x||0,1|C,-0.1338996478,0.1175222938,0.098742
 0186|H,0.3392712951,0.1175164655,-0.8885893728|O,0.4719343305,0.117514
 8252,1.1492271034|O,-1.4610229645,0.1175386483,-0.0030361455|H,-1.8567
 528734,0.1175435226,0.8881642263||Version=IA32W-G09RevA.02|State=1-A'|
 HF=-189.7040378|RMSD=4.949e-010|RMSF=1.186e-004|ZeroPoint=0.0341821|Th
 ermal=0.0373349|Dipole=-0.7241185,0.0000089,-0.5345347|DipoleDeriv=2.5
 684501,-0.0000264,0.7349329,-0.0000264,0.4269632,-0.0000091,0.6998046,
 -0.0000086,1.6926504,0.0751419,0.0000009,0.0292719,0.0000009,0.1478808
 ,-0.0000004,0.0286603,-0.0000004,-0.0360431,-1.2102103,0.0000084,-0.30
 76796,0.0000084,-0.5325703,0.0000038,-0.7768483,0.0000096,-1.4384323,-
 1.9071649,0.0000172,-0.3956203,0.0000172,-0.514056,0.0000049,0.1243355
 ,-0.0000015,-0.5653595,0.4737833,0.,-0.0609048,0.,0.4717823,0.0000008,
 -0.0759521,0.0000009,0.3471845|Polar=29.7953987,-0.0001797,15.2114187,
 4.4961321,-0.0000554,29.0659782|PG=CS [SG(C1H2O2)]|NImag=0||0.65474655
 ,-0.00000560,0.19993024,0.07450508,-0.00000092,1.01013855,-0.10954026,
 0.00000050,0.10756720,0.12847635,0.00000050,-0.06859916,-0.00000133,-0
 .00000124,0.02804005,0.11768578,-0.00000145,-0.27216376,-0.11607401,0.
 00000143,0.30125896,-0.22620714,0.00000190,-0.25661900,0.01367701,0.00
 000011,0.00118621,0.28843482,0.00000190,-0.07185521,0.00000316,0.00000
 011,0.02227219,-0.00000001,-0.00000322,0.02727071,-0.22354114,0.000002
 76,-0.61367904,-0.02460798,0.00000030,-0.03525515,0.33115780,-0.000004
 08,0.65217037,-0.28370381,0.00000274,0.02618395,-0.02783942,0.00000049
 ,-0.00118106,-0.08544662,0.00000139,-0.08242977,0.50128654,0.00000274,
 -0.06172108,-0.00000032,0.00000049,0.01215950,0.00000001,0.00000139,0.
 02767226,0.00000102,-0.00000569,0.03963406,0.02525330,-0.00000031,-0.1
 3081294,0.03457684,-0.00000043,0.00428071,-0.07092772,0.00000087,0.001
 43508,-0.11789134,0.00000145,0.55009606,-0.03529534,0.00000046,0.04836
 277,-0.00477368,0.00000013,-0.00161693,0.00954193,-0.00000018,-0.00057
 891,-0.10429670,0.00000107,0.12898891,0.13482378,0.00000046,0.00224521
 ,-0.00000060,0.00000013,0.00612742,0.00000002,-0.00000018,-0.00535994,
 0.,0.00000107,-0.01774474,-0.00000159,-0.00000148,0.01473206,0.0060969
 8,-0.00000008,0.00651718,-0.00146205,0.00000002,0.00187923,-0.00479730
 ,0.00000006,-0.00467126,0.17531822,-0.00000216,-0.42499892,-0.17515585
 ,0.00000216,0.42127377||0.00007820,0.,-0.00012276,-0.00020578,0.,-0.00
 017292,0.00011261,0.,-0.00011208,-0.00005951,0.,0.00019819,0.00007449,
 0.,0.00020956|||@


 TOWERING GENIUS DISDAINS A BEATEN PATH.  IT SEEKS 
 REGIONS HITHERTO UNEXPLORED.

                                -- ABRAHAM LINCOLN
 Job cpu time:  0 days  0 hours  0 minutes 15.0 seconds.
 File lengths (MBytes):  RWF=     10 Int=      0 D2E=      0 Chk=      3 Scr=      1
 Normal termination of Gaussian 09 at Tue Jan 19 22:00:23 2021.
