 Entering Link 1 = C:\G09W\l1.exe PID=      6268.
  
 Copyright (c) 1988,1990,1992,1993,1995,1998,2003,2009, Gaussian, Inc.
                  All Rights Reserved.
  
 This is part of the Gaussian(R) 09 program.  It is based on
 the Gaussian(R) 03 system (copyright 2003, Gaussian, Inc.),
 the Gaussian(R) 98 system (copyright 1998, Gaussian, Inc.),
 the Gaussian(R) 94 system (copyright 1995, Gaussian, Inc.),
 the Gaussian 92(TM) system (copyright 1992, Gaussian, Inc.),
 the Gaussian 90(TM) system (copyright 1990, Gaussian, Inc.),
 the Gaussian 88(TM) system (copyright 1988, Gaussian, Inc.),
 the Gaussian 86(TM) system (copyright 1986, Carnegie Mellon
 University), and the Gaussian 82(TM) system (copyright 1983,
 Carnegie Mellon University). Gaussian is a federally registered
 trademark of Gaussian, Inc.
  
 This software contains proprietary and confidential information,
 including trade secrets, belonging to Gaussian, Inc.
  
 This software is provided under written license and may be
 used, copied, transmitted, or stored only in accord with that
 written license.
  
 The following legend is applicable only to US Government
 contracts under FAR:
  
                    RESTRICTED RIGHTS LEGEND
  
 Use, reproduction and disclosure by the US Government is
 subject to restrictions as set forth in subparagraphs (a)
 and (c) of the Commercial Computer Software - Restricted
 Rights clause in FAR 52.227-19.
  
 Gaussian, Inc.
 340 Quinnipiac St., Bldg. 40, Wallingford CT 06492
  
  
 ---------------------------------------------------------------
 Warning -- This program may not be used in any manner that
 competes with the business of Gaussian, Inc. or will provide
 assistance to any competitor of Gaussian, Inc.  The licensee
 of this program is prohibited from giving any competitor of
 Gaussian, Inc. access to this program.  By using this program,
 the user acknowledges that Gaussian, Inc. is engaged in the
 business of creating and licensing software in the field of
 computational chemistry and represents and warrants to the
 licensee that it is not a competitor of Gaussian, Inc. and that
 it will not use this program in any manner prohibited above.
 ---------------------------------------------------------------
  

 Cite this work as:
 Gaussian 09, Revision A.02,
 M. J. Frisch, G. W. Trucks, H. B. Schlegel, G. E. Scuseria, 
 M. A. Robb, J. R. Cheeseman, G. Scalmani, V. Barone, B. Mennucci, 
 G. A. Petersson, H. Nakatsuji, M. Caricato, X. Li, H. P. Hratchian, 
 A. F. Izmaylov, J. Bloino, G. Zheng, J. L. Sonnenberg, M. Hada, 
 M. Ehara, K. Toyota, R. Fukuda, J. Hasegawa, M. Ishida, T. Nakajima, 
 Y. Honda, O. Kitao, H. Nakai, T. Vreven, J. A. Montgomery, Jr., 
 J. E. Peralta, F. Ogliaro, M. Bearpark, J. J. Heyd, E. Brothers, 
 K. N. Kudin, V. N. Staroverov, R. Kobayashi, J. Normand, 
 K. Raghavachari, A. Rendell, J. C. Burant, S. S. Iyengar, J. Tomasi, 
 M. Cossi, N. Rega, J. M. Millam, M. Klene, J. E. Knox, J. B. Cross, 
 V. Bakken, C. Adamo, J. Jaramillo, R. Gomperts, R. E. Stratmann, 
 O. Yazyev, A. J. Austin, R. Cammi, C. Pomelli, J. W. Ochterski, 
 R. L. Martin, K. Morokuma, V. G. Zakrzewski, G. A. Voth, 
 P. Salvador, J. J. Dannenberg, S. Dapprich, A. D. Daniels, 
 O. Farkas, J. B. Foresman, J. V. Ortiz, J. Cioslowski, 
 and D. J. Fox, Gaussian, Inc., Wallingford CT, 2009.
 
 ******************************************
 Gaussian 09:  IA32W-G09RevA.02 11-Jun-2009
                19-Jan-2021 
 ******************************************
 %chk=D:\Documents\rayGit\FQ\quimicaComputacional\p4Pka\reactivos\hidronio3Waters
 M062x.chk
 %mem=1500MB
 %nprocshared=4
 Will use up to    4 processors via shared memory.
 ------------------------------------------------------------
 # opt freq geom=check guess=check 6-31+g(d,p) scrf=smd m062x
 ------------------------------------------------------------
 1/14=-1,18=20,19=15,26=3,29=2,38=1/1,3;
 2/9=110,12=2,40=1/2;
 3/5=1,6=6,7=111,11=2,14=-4,16=1,25=1,30=1,70=32201,71=1,72=1,74=-55,116=-2/1,2,3;
 4/5=1/1;
 5/5=2,38=6/2;
 6/7=2,8=2,9=2,10=2,28=1/1;
 7//1,2,3,16;
 1/14=-1,18=20,19=15/3(2);
 2/9=110/2;
 99//99;
 2/9=110/2;
 3/5=1,6=6,7=111,11=2,14=-2,16=1,25=1,30=1,70=32205,71=1,74=-55/1,2,3;
 4/5=5,16=3/1;
 5/5=2,38=5/2;
 7//1,2,3,16;
 1/14=-1,18=20,19=15/3(-5);
 2/9=110/2;
 6/7=2,8=2,9=2,10=2,19=2,28=1/1;
 99/9=1/99;
 ---------------------------------
 Hidronio m062x con tres aguas two
 ---------------------------------
 Redundant internal coordinates taken from checkpoint file:
 D:\Documents\rayGit\FQ\quimicaComputacional\p4Pka\reactivos\hidronio3WatersM062x.chk
 Charge =  1 Multiplicity = 1
 O,0,0.0075816055,0.4076837521,-0.0543099505
 H,0,-0.4587493711,0.0750232076,0.7961276063
 H,0,-0.4991491565,0.0844705317,-0.8844726491
 H,0,0.9776493173,0.0698697481,-0.0805480139
 O,0,2.4084365153,-0.3826279743,-0.1763343339
 O,0,-1.2629336455,-0.3968733312,-2.1023690048
 O,0,-1.1599146276,-0.4120064586,2.0481621705
 H,0,3.0157105001,0.2445597382,0.2418165412
 H,0,2.5539356165,-1.2290019626,0.2704550812
 H,0,-0.7590733202,-0.2759861706,-2.9200576569
 H,0,-2.0838662565,0.0999209686,-2.2284986791
 H,0,-0.5800543833,-0.3716324446,2.8223999993
 H,0,-1.9248391844,0.1392166841,2.2676288898
 Recover connectivity data from disk.

 GradGradGradGradGradGradGradGradGradGradGradGradGradGradGradGradGradGrad
 Berny optimization.
 Initialization pass.
                           ----------------------------
                           !    Initial Parameters    !
                           ! (Angstroms and Degrees)  !
 --------------------------                            --------------------------
 ! Name  Definition              Value          Derivative Info.                !
 --------------------------------------------------------------------------------
 ! R1    R(1,2)                  1.0254         estimate D2E/DX2                !
 ! R2    R(1,3)                  1.0249         estimate D2E/DX2                !
 ! R3    R(1,4)                  1.0275         estimate D2E/DX2                !
 ! R4    R(2,7)                  1.5154         estimate D2E/DX2                !
 ! R5    R(3,6)                  1.516          estimate D2E/DX2                !
 ! R6    R(4,5)                  1.5037         estimate D2E/DX2                !
 ! R7    R(5,8)                  0.968          estimate D2E/DX2                !
 ! R8    R(5,9)                  0.9681         estimate D2E/DX2                !
 ! R9    R(6,10)                 0.968          estimate D2E/DX2                !
 ! R10   R(6,11)                 0.9678         estimate D2E/DX2                !
 ! R11   R(7,12)                 0.9681         estimate D2E/DX2                !
 ! R12   R(7,13)                 0.9681         estimate D2E/DX2                !
 ! A1    A(2,1,3)              110.1597         estimate D2E/DX2                !
 ! A2    A(2,1,4)              110.1132         estimate D2E/DX2                !
 ! A3    A(3,1,4)              110.0235         estimate D2E/DX2                !
 ! A4    A(4,5,8)              111.9901         estimate D2E/DX2                !
 ! A5    A(4,5,9)              112.1301         estimate D2E/DX2                !
 ! A6    A(8,5,9)              105.8322         estimate D2E/DX2                !
 ! A7    A(3,6,10)             112.1292         estimate D2E/DX2                !
 ! A8    A(3,6,11)             111.6581         estimate D2E/DX2                !
 ! A9    A(10,6,11)            105.5048         estimate D2E/DX2                !
 ! A10   A(2,7,12)             111.728          estimate D2E/DX2                !
 ! A11   A(2,7,13)             111.7103         estimate D2E/DX2                !
 ! A12   A(12,7,13)            105.558          estimate D2E/DX2                !
 ! A13   L(1,2,7,3,-1)         179.6614         estimate D2E/DX2                !
 ! A14   L(1,3,6,2,-1)         179.3614         estimate D2E/DX2                !
 ! A15   L(1,4,5,2,-1)         182.7123         estimate D2E/DX2                !
 ! A16   L(1,2,7,3,-2)         180.6829         estimate D2E/DX2                !
 ! A17   L(1,3,6,2,-2)         179.6467         estimate D2E/DX2                !
 ! A18   L(1,4,5,2,-2)         180.7066         estimate D2E/DX2                !
 ! D1    D(2,1,5,8)            -89.9692         estimate D2E/DX2                !
 ! D2    D(2,1,5,9)             29.4498         estimate D2E/DX2                !
 ! D3    D(3,1,5,8)            147.8052         estimate D2E/DX2                !
 ! D4    D(3,1,5,9)            -92.7758         estimate D2E/DX2                !
 ! D5    D(2,1,6,10)          -167.3434         estimate D2E/DX2                !
 ! D6    D(2,1,6,11)            74.4144         estimate D2E/DX2                !
 ! D7    D(4,1,6,10)           -45.815          estimate D2E/DX2                !
 ! D8    D(4,1,6,11)          -164.0573         estimate D2E/DX2                !
 ! D9    D(3,1,7,12)           162.064          estimate D2E/DX2                !
 ! D10   D(3,1,7,13)           -79.9394         estimate D2E/DX2                !
 ! D11   D(4,1,7,12)            40.4699         estimate D2E/DX2                !
 ! D12   D(4,1,7,13)           158.4665         estimate D2E/DX2                !
 --------------------------------------------------------------------------------
 Trust Radius=3.00D-01 FncErr=1.00D-07 GrdErr=1.00D-06
 Number of steps in this run=  52 maximum allowed number of steps= 100.
 GradGradGradGradGradGradGradGradGradGradGradGradGradGradGradGradGradGrad

                          Input orientation:                          
 ---------------------------------------------------------------------
 Center     Atomic      Atomic             Coordinates (Angstroms)
 Number     Number       Type             X           Y           Z
 ---------------------------------------------------------------------
      1          8           0        0.007582    0.407684   -0.054310
      2          1           0       -0.458749    0.075023    0.796128
      3          1           0       -0.499149    0.084471   -0.884473
      4          1           0        0.977649    0.069870   -0.080548
      5          8           0        2.408437   -0.382628   -0.176334
      6          8           0       -1.262934   -0.396873   -2.102369
      7          8           0       -1.159915   -0.412006    2.048162
      8          1           0        3.015711    0.244560    0.241817
      9          1           0        2.553936   -1.229002    0.270455
     10          1           0       -0.759073   -0.275986   -2.920058
     11          1           0       -2.083866    0.099921   -2.228499
     12          1           0       -0.580054   -0.371632    2.822400
     13          1           0       -1.924839    0.139217    2.267629
 ---------------------------------------------------------------------
                    Distance matrix (angstroms):
                    1          2          3          4          5
     1  O    0.000000
     2  H    1.025364   0.000000
     3  H    1.024897   1.681112   0.000000
     4  H    1.027540   1.682804   1.681500   0.000000
     5  O    2.530531   3.062006   3.028811   1.503689   0.000000
     6  O    2.540879   3.044779   1.516024   3.053821   4.145934
     7  O    2.540734   1.515395   3.046875   3.054962   4.205042
     8  H    3.027068   3.522481   3.694373   2.070780   0.967986
     9  H    3.044361   3.324618   3.518579   2.072426   0.968060
    10  H    3.044286   3.744788   2.083530   3.346436   4.191958
    11  H    3.032486   3.433655   2.077973   3.739983   4.962360
    12  H    3.037780   2.078460   3.735703   3.323924   4.233628
    13  H    3.032775   2.078186   3.459961   3.734057   5.002255
                    6          7          8          9         10
     6  O    0.000000
     7  O    4.151837   0.000000
     8  H    4.920715   4.596717   0.000000
     9  H    4.570692   4.197667   1.544487   0.000000
    10  H    0.968041   4.986219   4.951506   4.697195   0.000000
    11  H    0.967804   4.405177   5.668250   5.433232   1.540986
    12  H    4.971952   0.968149   4.468627   4.131513   5.746044
    13  H    4.452235   0.968051   5.340791   5.091183   5.333244
                   11         12         13
    11  H    0.000000
    12  H    5.291067   0.000000
    13  H    4.499111   1.541812   0.000000
 Stoichiometry    H9O4(1+)
 Framework group  C1[X(H9O4)]
 Deg. of freedom    33
 Full point group                 C1      NOp   1
 Largest Abelian subgroup         C1      NOp   1
 Largest concise Abelian subgroup C1      NOp   1
                         Standard orientation:                         
 ---------------------------------------------------------------------
 Center     Atomic      Atomic             Coordinates (Angstroms)
 Number     Number       Type             X           Y           Z
 ---------------------------------------------------------------------
      1          8           0       -0.012472   -0.003849    0.588895
      2          1           0        0.494046   -0.828823    0.250917
      3          1           0       -0.979733   -0.020048    0.250433
      4          1           0        0.456930    0.853442    0.271794
      5          8           0        1.099194    2.145830   -0.150473
      6          8           0       -2.408879   -0.061324   -0.253716
      7          8           0        1.232372   -2.056056   -0.244256
      8          1           0        1.755932    2.451037    0.491820
      9          1           0        1.571644    2.060679   -0.991116
     10          1           0       -2.864975    0.783005   -0.126480
     11          1           0       -2.937645   -0.715671    0.224698
     12          1           0        2.192334   -1.944071   -0.187300
     13          1           0        1.029744   -2.836365    0.291638
 ---------------------------------------------------------------------
 Rotational constants (GHZ):      2.8794667      2.8721244      1.5199810
 Standard basis: 6-31+G(d,p) (6D, 7F)
 There are   121 symmetry adapted basis functions of A   symmetry.
 Integral buffers will be    262144 words long.
 Raffenetti 2 integral format.
 Two-electron integral symmetry is turned on.
   121 basis functions,   191 primitive gaussians,   121 cartesian basis functions
    20 alpha electrons       20 beta electrons
       nuclear repulsion energy       145.7418811861 Hartrees.
 NAtoms=   13 NActive=   13 NUniq=   13 SFac= 7.50D-01 NAtFMM=   80 NAOKFM=F Big=F
 ------------------------------------------------------------------------------
 Polarizable Continuum Model (PCM)
 =================================
 Model                : PCM.
 Atomic radii         : SMD-Coulomb.
 Polarization charges : Total charges.
 Charge compensation  : None.
 Solution method      : Matrix inversion.
 Cavity type          : VdW (van der Waals Surface) (Alpha=1.000).
 Cavity algorithm     : GePol (No added spheres)
                        Default sphere list used, NSphG=   13.
                        Lebedev-Laikov grids with approx.  5.0 points / Ang**2.
                        Smoothing algorithm: Karplus/York (Gamma=1.0000).
                        Polarization charges: spherical gaussians, with
                                              point-specific exponents (IZeta= 3).
                        Self-potential: point-specific (ISelfS= 7).
                        Self-field    : sphere-specific E.n sum rule (ISelfD= 2).
 1st derivatives      : Analytical E(r).r(x)/FMM algorithm (CHGder, D1EAlg=3).
                        Cavity 1st derivative terms included.
 Solvent              : Water, Eps=  78.355300 Eps(inf)=   1.777849
 ------------------------------------------------------------------------------
 Spheres list:
 ISph  on   Nord    Re0     Alpha      Xe            Ye            Ze
    1   O      1    1.520   1.000     -0.012472     -0.003849      0.588895
    2   H      2    1.200   1.000      0.494046     -0.828823      0.250917
    3   H      3    1.200   1.000     -0.979733     -0.020048      0.250433
    4   H      4    1.200   1.000      0.456930      0.853442      0.271794
    5   O      5    1.520   1.000      1.099194      2.145830     -0.150473
    6   O      6    1.520   1.000     -2.408879     -0.061324     -0.253716
    7   O      7    1.520   1.000      1.232372     -2.056056     -0.244256
    8   H      8    1.200   1.000      1.755932      2.451037      0.491820
    9   H      9    1.200   1.000      1.571644      2.060679     -0.991116
   10   H     10    1.200   1.000     -2.864975      0.783005     -0.126480
   11   H     11    1.200   1.000     -2.937645     -0.715671      0.224698
   12   H     12    1.200   1.000      2.192334     -1.944071     -0.187300
   13   H     13    1.200   1.000      1.029744     -2.836365      0.291638
 ------------------------------------------------------------------------------
 ------------------------------------------------------------------------------
 Atomic radii for non-electrostatic terms: SMD-CDS.
 ------------------------------------------------------------------------------
 Nuclear repulsion after PCM non-electrostatic terms =      145.7495764235 Hartrees.
 One-electron integrals computed using PRISM.
 NBasis=   121 RedAO= T  NBF=   121
 NBsUse=   121 1.00D-06 NBFU=   121
 Initial guess read from the checkpoint file:  D:\Documents\rayGit\FQ\quimicaComp
 utacional\p4Pka\reactivos\hidronio3WatersM062x.chk
 B after Tr=     0.000000    0.000000    0.000000
         Rot=    1.000000    0.000000    0.000000    0.000000 Ang=   0.00 deg.
 Initial guess orbital symmetries:
       Occupied  (A) (A) (A) (A) (A) (A) (A) (A) (A) (A) (A) (A)
                 (A) (A) (A) (A) (A) (A) (A) (A)
       Virtual   (A) (A) (A) (A) (A) (A) (A) (A) (A) (A) (A) (A)
                 (A) (A) (A) (A) (A) (A) (A) (A) (A) (A) (A) (A)
                 (A) (A) (A) (A) (A) (A) (A) (A) (A) (A) (A) (A)
                 (A) (A) (A) (A) (A) (A) (A) (A) (A) (A) (A) (A)
                 (A) (A) (A) (A) (A) (A) (A) (A) (A) (A) (A) (A)
                 (A) (A) (A) (A) (A) (A) (A) (A) (A) (A) (A) (A)
                 (A) (A) (A) (A) (A) (A) (A) (A) (A) (A) (A) (A)
                 (A) (A) (A) (A) (A) (A) (A) (A) (A) (A) (A) (A)
                 (A) (A) (A) (A) (A)
 Requested convergence on RMS density matrix=1.00D-08 within 128 cycles.
 Requested convergence on MAX density matrix=1.00D-06.
 Requested convergence on             energy=1.00D-06.
 No special actions if energy rises.
 Keep R1 ints in memory in canonical form, NReq=31259015.
 Error on total polarization charges =  0.03701
 SCF Done:  E(RM062X) =  -306.098298221     A.U. after    1 cycles
             Convg  =    0.9954D-09             -V/T =  2.0089
 SMD-CDS (non-electrostatic) energy             (kcal/mol) =       4.83
 (included in total energy above)

 **********************************************************************

            Population analysis using the SCF density.

 **********************************************************************

 Orbital symmetries:
       Occupied  (A) (A) (A) (A) (A) (A) (A) (A) (A) (A) (A) (A)
                 (A) (A) (A) (A) (A) (A) (A) (A)
       Virtual   (A) (A) (A) (A) (A) (A) (A) (A) (A) (A) (A) (A)
                 (A) (A) (A) (A) (A) (A) (A) (A) (A) (A) (A) (A)
                 (A) (A) (A) (A) (A) (A) (A) (A) (A) (A) (A) (A)
                 (A) (A) (A) (A) (A) (A) (A) (A) (A) (A) (A) (A)
                 (A) (A) (A) (A) (A) (A) (A) (A) (A) (A) (A) (A)
                 (A) (A) (A) (A) (A) (A) (A) (A) (A) (A) (A) (A)
                 (A) (A) (A) (A) (A) (A) (A) (A) (A) (A) (A) (A)
                 (A) (A) (A) (A) (A) (A) (A) (A) (A) (A) (A) (A)
                 (A) (A) (A) (A) (A)
 The electronic state is 1-A.
 Alpha  occ. eigenvalues --  -19.69049 -19.67712 -19.67634 -19.67613  -1.19926
 Alpha  occ. eigenvalues --   -1.16055  -1.15992  -1.14964  -0.66057  -0.65900
 Alpha  occ. eigenvalues --   -0.62798  -0.62613  -0.62582  -0.53372  -0.49609
 Alpha  occ. eigenvalues --   -0.49263  -0.46451  -0.43689  -0.42503  -0.42208
 Alpha virt. eigenvalues --    0.05009   0.08073   0.08498   0.12482   0.13116
 Alpha virt. eigenvalues --    0.14095   0.15219   0.16865   0.17754   0.20706
 Alpha virt. eigenvalues --    0.21517   0.22418   0.23740   0.24311   0.25596
 Alpha virt. eigenvalues --    0.26429   0.28912   0.29131   0.30768   0.33465
 Alpha virt. eigenvalues --    0.34358   0.36385   0.37423   0.38872   0.39020
 Alpha virt. eigenvalues --    0.96945   0.98485   1.00982   1.04287   1.05557
 Alpha virt. eigenvalues --    1.07284   1.07699   1.09393   1.09756   1.11639
 Alpha virt. eigenvalues --    1.13631   1.13966   1.16245   1.18673   1.19534
 Alpha virt. eigenvalues --    1.20485   1.21383   1.21614   1.25350   1.28908
 Alpha virt. eigenvalues --    1.29238   1.40206   1.45213   1.46376   1.51748
 Alpha virt. eigenvalues --    1.52593   1.53649   1.55534   1.56242   1.56710
 Alpha virt. eigenvalues --    1.57804   1.60409   1.63074   1.73069   1.77462
 Alpha virt. eigenvalues --    1.77594   2.10861   2.23847   2.24027   2.24176
 Alpha virt. eigenvalues --    2.24531   2.27958   2.31573   2.41449   2.42190
 Alpha virt. eigenvalues --    2.54922   2.55257   2.56654   2.57626   2.61124
 Alpha virt. eigenvalues --    2.63755   2.64062   2.69170   2.70365   2.72069
 Alpha virt. eigenvalues --    2.83212   2.83690   2.85336   3.02379   3.04373
 Alpha virt. eigenvalues --    3.05195   3.09294   3.09795   3.29586   3.33631
 Alpha virt. eigenvalues --    3.34789   3.53393   3.53592   3.54057   3.61127
 Alpha virt. eigenvalues --    3.74414   3.75713   4.14694   4.21400   4.22230
 Alpha virt. eigenvalues --    4.56517
          Condensed to atoms (all electrons):
              1          2          3          4          5          6
     1  O    8.388958   0.219959   0.217972   0.218778  -0.071551  -0.079875
     2  H    0.219959   0.199353  -0.006735  -0.006450   0.002982   0.004635
     3  H    0.217972  -0.006735   0.200668  -0.006309   0.003560   0.038474
     4  H    0.218778  -0.006450  -0.006309   0.198777   0.034606   0.004495
     5  O   -0.071551   0.002982   0.003560   0.034606   8.306709   0.000468
     6  O   -0.079875   0.004635   0.038474   0.004495   0.000468   8.308369
     7  O   -0.079052   0.037511   0.004293   0.004250  -0.001450   0.000530
     8  H    0.002526  -0.000048  -0.000008  -0.002782   0.287479  -0.000015
     9  H    0.002164  -0.000107  -0.000064  -0.002925   0.289890  -0.000050
    10  H    0.002901  -0.000021  -0.003046  -0.000175  -0.000039   0.288125
    11  H    0.003070  -0.000143  -0.003135  -0.000021  -0.000037   0.287801
    12  H    0.002907  -0.003006  -0.000016  -0.000177   0.000095  -0.000026
    13  H    0.003060  -0.003027  -0.000115  -0.000014  -0.000001  -0.000032
              7          8          9         10         11         12
     1  O   -0.079052   0.002526   0.002164   0.002901   0.003070   0.002907
     2  H    0.037511  -0.000048  -0.000107  -0.000021  -0.000143  -0.003006
     3  H    0.004293  -0.000008  -0.000064  -0.003046  -0.003135  -0.000016
     4  H    0.004250  -0.002782  -0.002925  -0.000175  -0.000021  -0.000177
     5  O   -0.001450   0.287479   0.289890  -0.000039  -0.000037   0.000095
     6  O    0.000530  -0.000015  -0.000050   0.288125   0.287801  -0.000026
     7  O    8.310245   0.000029   0.000143  -0.000027  -0.000033   0.287749
     8  H    0.000029   0.273766  -0.015829   0.000000   0.000000  -0.000001
     9  H    0.000143  -0.015829   0.272754   0.000001   0.000000  -0.000010
    10  H   -0.000027   0.000000   0.000001   0.274622  -0.015736   0.000000
    11  H   -0.000033   0.000000   0.000000  -0.015736   0.275409   0.000000
    12  H    0.287749  -0.000001  -0.000010   0.000000   0.000000   0.274981
    13  H    0.287510   0.000000   0.000000   0.000000   0.000001  -0.015688
             13
     1  O    0.003060
     2  H   -0.003027
     3  H   -0.000115
     4  H   -0.000014
     5  O   -0.000001
     6  O   -0.000032
     7  O    0.287510
     8  H    0.000000
     9  H    0.000000
    10  H    0.000000
    11  H    0.000001
    12  H   -0.015688
    13  H    0.275006
 Mulliken atomic charges:
              1
     1  O   -0.831816
     2  H    0.555096
     3  H    0.554461
     4  H    0.557947
     5  O   -0.852713
     6  O   -0.852899
     7  O   -0.851698
     8  H    0.454883
     9  H    0.454031
    10  H    0.453394
    11  H    0.452823
    12  H    0.453191
    13  H    0.453300
 Sum of Mulliken atomic charges =   1.00000
 Mulliken charges with hydrogens summed into heavy atoms:
              1
     1  O    0.835688
     5  O    0.056201
     6  O    0.053318
     7  O    0.054792
 Sum of Mulliken charges with hydrogens summed into heavy atoms =   1.00000
 Electronic spatial extent (au):  <R**2>=            731.3380
 Charge=              1.0000 electrons
 Dipole moment (field-independent basis, Debye):
    X=              2.0374    Y=             -0.5215    Z=              1.6611  Tot=              2.6800
 Quadrupole moment (field-independent basis, Debye-Ang):
   XX=              5.3323   YY=             -7.5353   ZZ=            -26.7264
   XY=              1.0485   XZ=             -3.3844   YZ=             -4.6402
 Traceless Quadrupole moment (field-independent basis, Debye-Ang):
   XX=             14.9754   YY=              2.1078   ZZ=            -17.0832
   XY=              1.0485   XZ=             -3.3844   YZ=             -4.6402
 Octapole moment (field-independent basis, Debye-Ang**2):
  XXX=            -18.3581  YYY=            -22.9559  ZZZ=             -1.5268  XYY=             27.9178
  XXY=              5.2184  XXZ=              9.0917  XZZ=              6.3132  YZZ=              7.3563
  YYZ=             11.8009  XYZ=             -1.2590
 Hexadecapole moment (field-independent basis, Debye-Ang**3):
 XXXX=           -135.7656 YYYY=           -265.2828 ZZZZ=            -44.4119 XXXY=             -5.7082
 XXXZ=            -31.4584 YYYX=              2.0567 YYYZ=            -22.0733 ZZZX=             -5.8891
 ZZZY=             -7.9332 XXYY=            -30.1159 XXZZ=            -69.3653 YYZZ=            -61.3826
 XXYZ=             -9.8028 YYXZ=              9.0632 ZZXY=             11.5938
 N-N= 1.457495764235D+02 E-N=-1.005134199601D+03  KE= 3.033917047362D+02
 D1PCM: PCM CHGder 1st derivatives, ID1Alg=3 FixD1E=F DoIter=F DoCFld=F I1PDM=0.
 Calling FoFJK, ICntrl=      2127 FMM=F ISym2X=0 I1Cent= 0 IOpClX= 0 NMat=1 NMatS=1 NMatT=0.
 ***** Axes restored to original set *****
 -------------------------------------------------------------------
 Center     Atomic                   Forces (Hartrees/Bohr)
 Number     Number              X              Y              Z
 -------------------------------------------------------------------
      1        8          -0.000118564   -0.000245417   -0.000091931
      2        1           0.000130367    0.000169041   -0.000117551
      3        1           0.000034136   -0.000078548    0.000073417
      4        1          -0.000127114    0.000215679   -0.000006521
      5        8          -0.000149185   -0.000025668   -0.000115728
      6        8          -0.000048666    0.000041328    0.000188706
      7        8           0.000078267    0.000025410    0.000014309
      8        1           0.000032323   -0.000170567    0.000179161
      9        1           0.000203242    0.000118929   -0.000017129
     10        1           0.000142015   -0.000086681    0.000042733
     11        1          -0.000146412    0.000098226   -0.000099488
     12        1          -0.000039127   -0.000055922   -0.000094540
     13        1           0.000008718   -0.000005810    0.000044562
 -------------------------------------------------------------------
 Cartesian Forces:  Max     0.000245417 RMS     0.000113759

 GradGradGradGradGradGradGradGradGradGradGradGradGradGradGradGradGradGrad
 Berny optimization.
 Internal  Forces:  Max     0.000250503 RMS     0.000103652
 Search for a local minimum.
 Step number   1 out of a maximum of   52
 All quantities printed in internal units (Hartrees-Bohrs-Radians)
 Mixed Optimization -- En-DIIS/RFO-DIIS
 Second derivative matrix not updated -- first step.
     Eigenvalues ---    0.00230   0.00230   0.00230   0.00230   0.00230
     Eigenvalues ---    0.00230   0.00230   0.00230   0.00230   0.02424
     Eigenvalues ---    0.04783   0.04862   0.04931   0.10928   0.10943
     Eigenvalues ---    0.11238   0.12009   0.12242   0.16000   0.16000
     Eigenvalues ---    0.16000   0.16000   0.16000   0.16000   0.43156
     Eigenvalues ---    0.43493   0.43566   0.53757   0.53775   0.53777
     Eigenvalues ---    0.53779   0.53791   0.538281000.000001000.00000
     Eigenvalues --- 1000.000001000.000001000.000001000.000001000.00000
     Eigenvalues --- 1000.000001000.00000
 RFO step:  Lambda=-3.47557423D-05 EMin= 2.30000000D-03
 Linear search not attempted -- first point.
 Iteration  1 RMS(Cart)=  0.03525302 RMS(Int)=  0.00065106
 Iteration  2 RMS(Cart)=  0.00115819 RMS(Int)=  0.00002148
 Iteration  3 RMS(Cart)=  0.00000082 RMS(Int)=  0.00002147
 Variable       Old X    -DE/DX   Delta X   Delta X   Delta X     New X
                                 (Linear)    (Quad)   (Total)
    R1        1.93766  -0.00025   0.00000  -0.00057  -0.00057   1.93708
    R2        1.93677  -0.00015   0.00000  -0.00035  -0.00035   1.93643
    R3        1.94177  -0.00009   0.00000  -0.00020  -0.00020   1.94157
    R4        2.86368  -0.00004   0.00000  -0.00035  -0.00035   2.86333
    R5        2.86487  -0.00010   0.00000  -0.00090  -0.00090   2.86398
    R6        2.84156   0.00010   0.00000   0.00090   0.00090   2.84246
    R7        1.82923  -0.00001   0.00000  -0.00002  -0.00002   1.82921
    R8        1.82937  -0.00008   0.00000  -0.00015  -0.00015   1.82922
    R9        1.82933   0.00003   0.00000   0.00006   0.00006   1.82939
   R10        1.82888   0.00018   0.00000   0.00034   0.00034   1.82923
   R11        1.82954  -0.00011   0.00000  -0.00020  -0.00020   1.82934
   R12        1.82935   0.00000   0.00000   0.00000   0.00000   1.82935
    A1        1.92265  -0.00006   0.00000  -0.00039  -0.00037   1.92228
    A2        1.92184  -0.00008   0.00000  -0.00062  -0.00061   1.92123
    A3        1.92027   0.00014   0.00000   0.00117   0.00112   1.92139
    A4        1.95460   0.00003   0.00000  -0.00017  -0.00017   1.95443
    A5        1.95704   0.00025   0.00000   0.00121   0.00122   1.95826
    A6        1.84712  -0.00022   0.00000  -0.00206  -0.00205   1.84507
    A7        1.95702  -0.00016   0.00000  -0.00087  -0.00089   1.95613
    A8        1.94880   0.00013   0.00000   0.00095   0.00093   1.94973
    A9        1.84141   0.00004   0.00000   0.00051   0.00047   1.84187
   A10        1.95002  -0.00001   0.00000   0.00002   0.00000   1.95002
   A11        1.94971   0.00006   0.00000   0.00044   0.00042   1.95013
   A12        1.84234  -0.00001   0.00000   0.00005   0.00001   1.84235
   A13        3.13568  -0.00006   0.00000  -0.02092  -0.02093   3.11476
   A14        3.13045  -0.00002   0.00000  -0.01498  -0.01497   3.11548
   A15        3.18893  -0.00004   0.00000  -0.02905  -0.02904   3.15989
   A16        3.15351  -0.00014   0.00000  -0.05447  -0.05448   3.09903
   A17        3.13543  -0.00002   0.00000  -0.00309  -0.00310   3.13233
   A18        3.15392   0.00003   0.00000   0.01374   0.01375   3.16767
    D1       -1.57026   0.00010   0.00000   0.03122   0.03120  -1.53906
    D2        0.51400   0.00000   0.00000   0.02117   0.02114   0.53514
    D3        2.57969   0.00013   0.00000   0.03380   0.03382   2.61351
    D4       -1.61924   0.00003   0.00000   0.02375   0.02377  -1.59548
    D5       -2.92069   0.00013   0.00000   0.03854   0.03857  -2.88212
    D6        1.29878   0.00009   0.00000   0.03526   0.03525   1.33403
    D7       -0.79962   0.00008   0.00000   0.03606   0.03606  -0.76356
    D8       -2.86334   0.00004   0.00000   0.03278   0.03275  -2.83059
    D9        2.82855  -0.00003   0.00000  -0.02626  -0.02624   2.80231
   D10       -1.39521   0.00001   0.00000  -0.01579  -0.01574  -1.41094
   D11        0.70633  -0.00008   0.00000  -0.01265  -0.01270   0.69363
   D12        2.76576  -0.00003   0.00000  -0.00217  -0.00220   2.76357
         Item               Value     Threshold  Converged?
 Maximum Force            0.000251     0.000450     YES
 RMS     Force            0.000104     0.000300     YES
 Maximum Displacement     0.092889     0.001800     NO 
 RMS     Displacement     0.035717     0.001200     NO 
 Predicted change in Energy=-1.764357D-05
 GradGradGradGradGradGradGradGradGradGradGradGradGradGradGradGradGradGrad

                          Input orientation:                          
 ---------------------------------------------------------------------
 Center     Atomic      Atomic             Coordinates (Angstroms)
 Number     Number       Type             X           Y           Z
 ---------------------------------------------------------------------
      1          8           0        0.013218    0.429465   -0.072053
      2          1           0       -0.450055    0.107098    0.783639
      3          1           0       -0.498967    0.099917   -0.896129
      4          1           0        0.981894    0.088035   -0.098778
      5          8           0        2.410080   -0.380976   -0.151901
      6          8           0       -1.287132   -0.398284   -2.090903
      7          8           0       -1.141030   -0.419262    2.025154
      8          1           0        3.011169    0.237709    0.287300
      9          1           0        2.533285   -1.229624    0.297105
     10          1           0       -0.784116   -0.325141   -2.914790
     11          1           0       -2.091499    0.121601   -2.231288
     12          1           0       -0.555958   -0.400386    2.796156
     13          1           0       -1.906156    0.122464    2.266487
 ---------------------------------------------------------------------
                    Distance matrix (angstroms):
                    1          2          3          4          5
     1  O    0.000000
     2  H    1.025061   0.000000
     3  H    1.024713   1.680495   0.000000
     4  H    1.027434   1.682112   1.681921   0.000000
     5  O    2.531430   3.048577   3.041000   1.504164   0.000000
     6  O    2.540046   3.036297   1.515551   3.058357   4.174854
     7  O    2.539862   1.515210   3.035734   3.045528   4.165503
     8  H    3.025494   3.499069   3.706824   2.071090   0.967975
     9  H    3.039670   3.305126   3.519380   2.073587   0.967982
    10  H    3.047348   3.738556   2.082541   3.349542   4.223690
    11  H    3.030993   3.432833   2.078289   3.740919   4.984040
    12  H    3.039611   2.078215   3.726462   3.314240   4.181961
    13  H    3.040890   2.078294   3.461622   3.733161   4.973122
                    6          7          8          9         10
     6  O    0.000000
     7  O    4.118702   0.000000
     8  H    4.953355   4.548901   0.000000
     9  H    4.581407   4.140463   1.543222   0.000000
    10  H    0.968072   4.953715   4.997436   4.705264   0.000000
    11  H    0.967985   4.394681   5.691572   5.441251   1.541429
    12  H    4.941454   0.968045   4.407484   4.059103   5.715997
    13  H    4.431841   0.968053   5.301938   5.041353   5.320240
                   11         12         13
    11  H    0.000000
    12  H    5.282571   0.000000
    13  H    4.501593   1.541738   0.000000
 Stoichiometry    H9O4(1+)
 Framework group  C1[X(H9O4)]
 Deg. of freedom    33
 Full point group                 C1      NOp   1
 Largest Abelian subgroup         C1      NOp   1
 Largest concise Abelian subgroup C1      NOp   1
                         Standard orientation:                         
 ---------------------------------------------------------------------
 Center     Atomic      Atomic             Coordinates (Angstroms)
 Number     Number       Type             X           Y           Z
 ---------------------------------------------------------------------
      1          8           0        0.021623   -0.017036    0.608118
      2          1           0       -0.257184    0.914454    0.283554
      3          1           0        0.958872   -0.245211    0.262376
      4          1           0       -0.654462   -0.720069    0.285201
      5          8           0       -1.640953   -1.766077   -0.156629
      6          8           0        2.349727   -0.544131   -0.260177
      7          8           0       -0.649454    2.278710   -0.246344
      8          1           0       -2.365145   -1.871689    0.476907
      9          1           0       -2.060555   -1.540372   -0.999232
     10          1           0        2.573151   -1.482964   -0.183771
     11          1           0        3.030007   -0.074016    0.243021
     12          1           0       -1.607117    2.415404   -0.210216
     13          1           0       -0.265117    2.992732    0.282413
 ---------------------------------------------------------------------
 Rotational constants (GHZ):      2.9385208      2.8342662      1.5302894
 Standard basis: 6-31+G(d,p) (6D, 7F)
 There are   121 symmetry adapted basis functions of A   symmetry.
 Integral buffers will be    262144 words long.
 Raffenetti 2 integral format.
 Two-electron integral symmetry is turned on.
   121 basis functions,   191 primitive gaussians,   121 cartesian basis functions
    20 alpha electrons       20 beta electrons
       nuclear repulsion energy       145.8901449417 Hartrees.
 NAtoms=   13 NActive=   13 NUniq=   13 SFac= 7.50D-01 NAtFMM=   80 NAOKFM=F Big=F
 ------------------------------------------------------------------------------
 Polarizable Continuum Model (PCM)
 =================================
 Model                : PCM.
 Atomic radii         : SMD-Coulomb.
 Polarization charges : Total charges.
 Charge compensation  : None.
 Solution method      : Matrix inversion.
 Cavity type          : VdW (van der Waals Surface) (Alpha=1.000).
 Cavity algorithm     : GePol (No added spheres)
                        Default sphere list used, NSphG=   13.
                        Lebedev-Laikov grids with approx.  5.0 points / Ang**2.
                        Smoothing algorithm: Karplus/York (Gamma=1.0000).
                        Polarization charges: spherical gaussians, with
                                              point-specific exponents (IZeta= 3).
                        Self-potential: point-specific (ISelfS= 7).
                        Self-field    : sphere-specific E.n sum rule (ISelfD= 2).
 1st derivatives      : Analytical E(r).r(x)/FMM algorithm (CHGder, D1EAlg=3).
                        Cavity 1st derivative terms included.
 Solvent              : Water, Eps=  78.355300 Eps(inf)=   1.777849
 ------------------------------------------------------------------------------
 Spheres list:
 ISph  on   Nord    Re0     Alpha      Xe            Ye            Ze
    1   O      1    1.520   1.000      0.021623     -0.017036      0.608118
    2   H      2    1.200   1.000     -0.257184      0.914454      0.283554
    3   H      3    1.200   1.000      0.958872     -0.245211      0.262376
    4   H      4    1.200   1.000     -0.654462     -0.720069      0.285201
    5   O      5    1.520   1.000     -1.640953     -1.766077     -0.156629
    6   O      6    1.520   1.000      2.349727     -0.544131     -0.260177
    7   O      7    1.520   1.000     -0.649454      2.278710     -0.246344
    8   H      8    1.200   1.000     -2.365145     -1.871689      0.476907
    9   H      9    1.200   1.000     -2.060555     -1.540372     -0.999232
   10   H     10    1.200   1.000      2.573151     -1.482964     -0.183771
   11   H     11    1.200   1.000      3.030007     -0.074016      0.243021
   12   H     12    1.200   1.000     -1.607117      2.415404     -0.210216
   13   H     13    1.200   1.000     -0.265117      2.992732      0.282413
 ------------------------------------------------------------------------------
 ------------------------------------------------------------------------------
 Atomic radii for non-electrostatic terms: SMD-CDS.
 ------------------------------------------------------------------------------
 Nuclear repulsion after PCM non-electrostatic terms =      145.8978420342 Hartrees.
 One-electron integrals computed using PRISM.
 NBasis=   121 RedAO= T  NBF=   121
 NBsUse=   121 1.00D-06 NBFU=   121
 Initial guess read from the read-write file.
 B after Tr=     0.000000    0.000000    0.000000
         Rot=    1.000000    0.000000    0.000000    0.000000 Ang=   0.00 deg.
 Initial guess orbital symmetries:
       Occupied  (A) (A) (A) (A) (A) (A) (A) (A) (A) (A) (A) (A)
                 (A) (A) (A) (A) (A) (A) (A) (A)
       Virtual   (A) (A) (A) (A) (A) (A) (A) (A) (A) (A) (A) (A)
                 (A) (A) (A) (A) (A) (A) (A) (A) (A) (A) (A) (A)
                 (A) (A) (A) (A) (A) (A) (A) (A) (A) (A) (A) (A)
                 (A) (A) (A) (A) (A) (A) (A) (A) (A) (A) (A) (A)
                 (A) (A) (A) (A) (A) (A) (A) (A) (A) (A) (A) (A)
                 (A) (A) (A) (A) (A) (A) (A) (A) (A) (A) (A) (A)
                 (A) (A) (A) (A) (A) (A) (A) (A) (A) (A) (A) (A)
                 (A) (A) (A) (A) (A) (A) (A) (A) (A) (A) (A) (A)
                 (A) (A) (A) (A) (A)
 Harris functional with IExCor= 1009 diagonalized for initial guess.
 ExpMin= 8.45D-02 ExpMax= 5.48D+03 ExpMxC= 8.25D+02 IAcc=2 IRadAn=         0 AccDes= 0.00D+00
 HarFok:  IExCor= 1009 AccDes= 0.00D+00 IRadAn=         0 IDoV= 1
 ScaDFX=  1.000000  1.000000  1.000000  1.000000
 FoFCou: FMM=F IPFlag=           0 FMFlag=      100000 FMFlg1=           0
         NFxFlg=           0 DoJE=T BraDBF=F KetDBF=T FulRan=T
         Omega=  0.000000  0.000000  1.000000  0.000000  0.000000 ICntrl=     500 IOpCl=  0
         NMat0=    1 NMatS0=    1 NMatT0=    0 NMatD0=    1 NMtDS0=    0 NMtDT0=    0
         I1Cent=           4 NGrid=           0.
 Petite list used in FoFCou.
 Requested convergence on RMS density matrix=1.00D-08 within 128 cycles.
 Requested convergence on MAX density matrix=1.00D-06.
 Requested convergence on             energy=1.00D-06.
 No special actions if energy rises.
 Keep R1 ints in memory in canonical form, NReq=31257258.
 Error on total polarization charges =  0.03698
 SCF Done:  E(RM062X) =  -306.098267365     A.U. after   11 cycles
             Convg  =    0.2383D-08             -V/T =  2.0089
 SMD-CDS (non-electrostatic) energy             (kcal/mol) =       4.83
 (included in total energy above)
 D1PCM: PCM CHGder 1st derivatives, ID1Alg=3 FixD1E=F DoIter=F DoCFld=F I1PDM=0.
 Calling FoFJK, ICntrl=      2127 FMM=F ISym2X=0 I1Cent= 0 IOpClX= 0 NMat=1 NMatS=1 NMatT=0.
 ***** Axes restored to original set *****
 -------------------------------------------------------------------
 Center     Atomic                   Forces (Hartrees/Bohr)
 Number     Number              X              Y              Z
 -------------------------------------------------------------------
      1        8           0.000544994    0.000785481   -0.000362246
      2        1           0.000036556   -0.001102879   -0.000559802
      3        1          -0.000639826   -0.000211935    0.000330762
      4        1           0.000138917    0.000003966    0.000796522
      5        8          -0.000281455   -0.000154886   -0.000354670
      6        8          -0.000019137    0.000048537   -0.000120287
      7        8           0.000000401    0.000546079   -0.000032141
      8        1           0.000059889    0.000095204    0.000081341
      9        1           0.000035603    0.000033004   -0.000012737
     10        1           0.000120474   -0.000018887    0.000100904
     11        1           0.000049248    0.000063553   -0.000013358
     12        1          -0.000046842   -0.000043995    0.000011483
     13        1           0.000001177   -0.000043243    0.000134230
 -------------------------------------------------------------------
 Cartesian Forces:  Max     0.001102879 RMS     0.000336528

 GradGradGradGradGradGradGradGradGradGradGradGradGradGradGradGradGradGrad
 Berny optimization.
 Using GEDIIS/GDIIS optimizer.
 Internal  Forces:  Max     0.000805542 RMS     0.000221640
 Search for a local minimum.
 Step number   2 out of a maximum of   52
 All quantities printed in internal units (Hartrees-Bohrs-Radians)
 Mixed Optimization -- En-DIIS/RFO-DIIS
 Swaping is turned off.
 Update second derivatives using D2CorX and points    1    2
 DE=  3.09D-05 DEPred=-1.76D-05 R=-1.75D+00
 Trust test=-1.75D+00 RLast= 1.18D-01 DXMaxT set to 1.50D-01
     Eigenvalues ---    0.00077   0.00230   0.00230   0.00230   0.00230
     Eigenvalues ---    0.00230   0.00230   0.00230   0.01822   0.02722
     Eigenvalues ---    0.04813   0.04847   0.04961   0.10889   0.10942
     Eigenvalues ---    0.11284   0.11810   0.12252   0.15601   0.16000
     Eigenvalues ---    0.16000   0.16000   0.16000   0.16112   0.43109
     Eigenvalues ---    0.43317   0.43576   0.53685   0.53767   0.53777
     Eigenvalues ---    0.53779   0.53795   0.538341000.000001000.00000
     Eigenvalues --- 1000.000001000.000001000.000001000.000001000.00000
     Eigenvalues --- 1000.000001000.00000
 En-DIIS/RFO-DIIS IScMMF=        0 using points:     2    1
 RFO step:  Lambda=-1.27157566D-05.
 DIIS coeffs:      0.34707      0.65293
 Maximum step size (   0.150) exceeded in Quadratic search.
    -- Step size scaled by   0.671
 Iteration  1 RMS(Cart)=  0.05039849 RMS(Int)=  0.00103706
 Iteration  2 RMS(Cart)=  0.00141787 RMS(Int)=  0.00006120
 Iteration  3 RMS(Cart)=  0.00000087 RMS(Int)=  0.00006120
 Variable       Old X    -DE/DX   Delta X   Delta X   Delta X     New X
                                  (DIIS)     (GDIIS)  (Total)
    R1        1.93708  -0.00015   0.00025  -0.00108  -0.00083   1.93625
    R2        1.93643   0.00006   0.00015  -0.00058  -0.00042   1.93600
    R3        1.94157  -0.00007   0.00009  -0.00039  -0.00030   1.94127
    R4        2.86333  -0.00004   0.00015  -0.00069  -0.00054   2.86279
    R5        2.86398  -0.00007   0.00039  -0.00171  -0.00132   2.86266
    R6        2.84246  -0.00017  -0.00039   0.00121   0.00081   2.84327
    R7        1.82921   0.00015   0.00001   0.00003   0.00004   1.82925
    R8        1.82922  -0.00005   0.00006  -0.00028  -0.00021   1.82901
    R9        1.82939  -0.00003  -0.00003   0.00009   0.00007   1.82946
   R10        1.82923  -0.00001  -0.00015   0.00059   0.00044   1.82967
   R11        1.82934  -0.00002   0.00009  -0.00035  -0.00027   1.82907
   R12        1.82935   0.00000   0.00000   0.00001   0.00001   1.82936
    A1        1.92228  -0.00030   0.00016  -0.00171  -0.00152   1.92076
    A2        1.92123   0.00000   0.00027  -0.00155  -0.00126   1.91997
    A3        1.92139   0.00011  -0.00049   0.00173   0.00126   1.92265
    A4        1.95443  -0.00013   0.00007  -0.00063  -0.00061   1.95382
    A5        1.95826   0.00004  -0.00053   0.00204   0.00146   1.95972
    A6        1.84507  -0.00008   0.00090  -0.00396  -0.00316   1.84192
    A7        1.95613  -0.00018   0.00039  -0.00179  -0.00129   1.95484
    A8        1.94973   0.00002  -0.00041   0.00168   0.00138   1.95111
    A9        1.84187   0.00012  -0.00020   0.00105   0.00105   1.84292
   A10        1.95002   0.00009   0.00000   0.00030   0.00038   1.95040
   A11        1.95013   0.00024  -0.00018   0.00126   0.00115   1.95128
   A12        1.84235  -0.00003  -0.00001   0.00032   0.00045   1.84280
   A13        3.11476   0.00062   0.00917   0.02178   0.03092   3.14568
   A14        3.11548   0.00060   0.00656   0.03159   0.03812   3.15360
   A15        3.15989   0.00081   0.01273   0.02237   0.03508   3.19497
   A16        3.09903   0.00048   0.02388  -0.04913  -0.02526   3.07378
   A17        3.13233   0.00010   0.00136   0.00719   0.00857   3.14089
   A18        3.16767  -0.00011  -0.00603   0.00886   0.00284   3.17051
    D1       -1.53906  -0.00012  -0.01368   0.04838   0.03466  -1.50440
    D2        0.53514  -0.00008  -0.00927   0.04950   0.04026   0.57540
    D3        2.61351   0.00006  -0.01483   0.04469   0.02984   2.64335
    D4       -1.59548   0.00010  -0.01042   0.04581   0.03544  -1.56003
    D5       -2.88212   0.00005  -0.01691   0.06545   0.04846  -2.83366
    D6        1.33403   0.00011  -0.01545   0.06908   0.05371   1.38774
    D7       -0.76356   0.00001  -0.01581   0.06810   0.05221  -0.71135
    D8       -2.83059   0.00008  -0.01436   0.07174   0.05746  -2.77313
    D9        2.80231   0.00005   0.01150  -0.03113  -0.01957   2.78274
   D10       -1.41094   0.00005   0.00690  -0.02943  -0.02259  -1.43353
   D11        0.69363  -0.00011   0.00557  -0.02630  -0.02068   0.67295
   D12        2.76357  -0.00010   0.00096  -0.02460  -0.02369   2.73988
         Item               Value     Threshold  Converged?
 Maximum Force            0.000806     0.000450     NO 
 RMS     Force            0.000222     0.000300     YES
 Maximum Displacement     0.131280     0.001800     NO 
 RMS     Displacement     0.050166     0.001200     NO 
 Predicted change in Energy=-4.918055D-05
 GradGradGradGradGradGradGradGradGradGradGradGradGradGradGradGradGradGrad

                          Input orientation:                          
 ---------------------------------------------------------------------
 Center     Atomic      Atomic             Coordinates (Angstroms)
 Number     Number       Type             X           Y           Z
 ---------------------------------------------------------------------
      1          8           0       -0.016734    0.420625   -0.060667
      2          1           0       -0.483243    0.102235    0.794230
      3          1           0       -0.527044    0.087518   -0.884197
      4          1           0        0.951356    0.077593   -0.081375
      5          8           0        2.385422   -0.368612   -0.171706
      6          8           0       -1.269770   -0.396323   -2.112627
      7          8           0       -1.134569   -0.413229    2.061143
      8          1           0        2.982923    0.238843    0.287650
      9          1           0        2.527507   -1.232873    0.240162
     10          1           0       -0.721381   -0.351411   -2.909172
     11          1           0       -2.047140    0.149342   -2.300759
     12          1           0       -0.523816   -0.394120    2.811779
     13          1           0       -1.888777    0.133028    2.325539
 ---------------------------------------------------------------------
                    Distance matrix (angstroms):
                    1          2          3          4          5
     1  O    0.000000
     2  H    1.024622   0.000000
     3  H    1.024489   1.679062   0.000000
     4  H    1.027277   1.680882   1.682345   0.000000
     5  O    2.530924   3.063326   3.032846   1.504595   0.000000
     6  O    2.539299   3.052376   1.514854   3.046962   4.138643
     7  O    2.539083   1.514925   3.048747   3.030242   4.168685
     8  H    3.025279   3.505652   3.703511   2.071098   0.967996
     9  H    3.049216   3.339779   3.512534   2.074840   0.967869
    10  H    3.034230   3.738675   2.081094   3.313387   4.140802
    11  H    3.035483   3.467988   2.078741   3.731191   4.944568
    12  H    3.028512   2.078105   3.727227   3.281613   4.167193
    13  H    3.046511   2.078793   3.486945   3.723259   4.975605
                    6          7          8          9         10
     6  O    0.000000
     7  O    4.175993   0.000000
     8  H    4.924445   4.530366   0.000000
     9  H    4.544749   4.171161   1.541300   0.000000
    10  H    0.968107   4.987843   4.928483   4.609833   0.000000
    11  H    0.968219   4.491710   5.657685   5.412411   1.542257
    12  H    4.980585   0.967904   4.366817   4.077658   5.724521
    13  H    4.512282   0.968056   5.281823   5.071296   5.385136
                   11         12         13
    11  H    0.000000
    12  H    5.362267   0.000000
    13  H    4.629036   1.541892   0.000000
 Stoichiometry    H9O4(1+)
 Framework group  C1[X(H9O4)]
 Deg. of freedom    33
 Full point group                 C1      NOp   1
 Largest Abelian subgroup         C1      NOp   1
 Largest concise Abelian subgroup C1      NOp   1
                         Standard orientation:                         
 ---------------------------------------------------------------------
 Center     Atomic      Atomic             Coordinates (Angstroms)
 Number     Number       Type             X           Y           Z
 ---------------------------------------------------------------------
      1          8           0       -0.024251   -0.021712    0.596920
      2          1           0        0.620837   -0.749029    0.273315
      3          1           0       -0.969259   -0.210274    0.249094
      4          1           0        0.294555    0.899880    0.273923
      5          8           0        0.710089    2.284574   -0.142924
      6          8           0       -2.372669   -0.474432   -0.256322
      7          8           0        1.591160   -1.788557   -0.249039
      8          1           0        1.340141    2.675855    0.479128
      9          1           0        1.155996    2.290949   -1.001933
     10          1           0       -2.931464    0.314400   -0.204137
     11          1           0       -2.824063   -1.148535    0.272145
     12          1           0        2.506183   -1.475024   -0.213431
     13          1           0        1.572438   -2.597204    0.282818
 ---------------------------------------------------------------------
 Rotational constants (GHZ):      2.9335373      2.8305246      1.5252585
 Standard basis: 6-31+G(d,p) (6D, 7F)
 There are   121 symmetry adapted basis functions of A   symmetry.
 Integral buffers will be    262144 words long.
 Raffenetti 2 integral format.
 Two-electron integral symmetry is turned on.
   121 basis functions,   191 primitive gaussians,   121 cartesian basis functions
    20 alpha electrons       20 beta electrons
       nuclear repulsion energy       145.8429164879 Hartrees.
 NAtoms=   13 NActive=   13 NUniq=   13 SFac= 7.50D-01 NAtFMM=   80 NAOKFM=F Big=F
 ------------------------------------------------------------------------------
 Polarizable Continuum Model (PCM)
 =================================
 Model                : PCM.
 Atomic radii         : SMD-Coulomb.
 Polarization charges : Total charges.
 Charge compensation  : None.
 Solution method      : Matrix inversion.
 Cavity type          : VdW (van der Waals Surface) (Alpha=1.000).
 Cavity algorithm     : GePol (No added spheres)
                        Default sphere list used, NSphG=   13.
                        Lebedev-Laikov grids with approx.  5.0 points / Ang**2.
                        Smoothing algorithm: Karplus/York (Gamma=1.0000).
                        Polarization charges: spherical gaussians, with
                                              point-specific exponents (IZeta= 3).
                        Self-potential: point-specific (ISelfS= 7).
                        Self-field    : sphere-specific E.n sum rule (ISelfD= 2).
 1st derivatives      : Analytical E(r).r(x)/FMM algorithm (CHGder, D1EAlg=3).
                        Cavity 1st derivative terms included.
 Solvent              : Water, Eps=  78.355300 Eps(inf)=   1.777849
 ------------------------------------------------------------------------------
 Spheres list:
 ISph  on   Nord    Re0     Alpha      Xe            Ye            Ze
    1   O      1    1.520   1.000     -0.024251     -0.021712      0.596920
    2   H      2    1.200   1.000      0.620837     -0.749029      0.273315
    3   H      3    1.200   1.000     -0.969259     -0.210274      0.249094
    4   H      4    1.200   1.000      0.294555      0.899880      0.273923
    5   O      5    1.520   1.000      0.710089      2.284574     -0.142924
    6   O      6    1.520   1.000     -2.372669     -0.474432     -0.256322
    7   O      7    1.520   1.000      1.591160     -1.788557     -0.249039
    8   H      8    1.200   1.000      1.340141      2.675855      0.479128
    9   H      9    1.200   1.000      1.155996      2.290949     -1.001933
   10   H     10    1.200   1.000     -2.931464      0.314400     -0.204137
   11   H     11    1.200   1.000     -2.824063     -1.148535      0.272145
   12   H     12    1.200   1.000      2.506183     -1.475024     -0.213431
   13   H     13    1.200   1.000      1.572438     -2.597204      0.282818
 ------------------------------------------------------------------------------
 ------------------------------------------------------------------------------
 Atomic radii for non-electrostatic terms: SMD-CDS.
 ------------------------------------------------------------------------------
 Nuclear repulsion after PCM non-electrostatic terms =      145.8506115284 Hartrees.
 One-electron integrals computed using PRISM.
 NBasis=   121 RedAO= T  NBF=   121
 NBsUse=   121 1.00D-06 NBFU=   121
 Initial guess read from the read-write file.
 B after Tr=     0.000000    0.000000    0.000000
         Rot=    1.000000    0.000000    0.000000    0.000000 Ang=   0.00 deg.
 Initial guess orbital symmetries:
       Occupied  (A) (A) (A) (A) (A) (A) (A) (A) (A) (A) (A) (A)
                 (A) (A) (A) (A) (A) (A) (A) (A)
       Virtual   (A) (A) (A) (A) (A) (A) (A) (A) (A) (A) (A) (A)
                 (A) (A) (A) (A) (A) (A) (A) (A) (A) (A) (A) (A)
                 (A) (A) (A) (A) (A) (A) (A) (A) (A) (A) (A) (A)
                 (A) (A) (A) (A) (A) (A) (A) (A) (A) (A) (A) (A)
                 (A) (A) (A) (A) (A) (A) (A) (A) (A) (A) (A) (A)
                 (A) (A) (A) (A) (A) (A) (A) (A) (A) (A) (A) (A)
                 (A) (A) (A) (A) (A) (A) (A) (A) (A) (A) (A) (A)
                 (A) (A) (A) (A) (A) (A) (A) (A) (A) (A) (A) (A)
                 (A) (A) (A) (A) (A)
 Harris functional with IExCor= 1009 diagonalized for initial guess.
 ExpMin= 8.45D-02 ExpMax= 5.48D+03 ExpMxC= 8.25D+02 IAcc=2 IRadAn=         0 AccDes= 0.00D+00
 HarFok:  IExCor= 1009 AccDes= 0.00D+00 IRadAn=         0 IDoV= 1
 ScaDFX=  1.000000  1.000000  1.000000  1.000000
 FoFCou: FMM=F IPFlag=           0 FMFlag=      100000 FMFlg1=           0
         NFxFlg=           0 DoJE=T BraDBF=F KetDBF=T FulRan=T
         Omega=  0.000000  0.000000  1.000000  0.000000  0.000000 ICntrl=     500 IOpCl=  0
         NMat0=    1 NMatS0=    1 NMatT0=    0 NMatD0=    1 NMtDS0=    0 NMtDT0=    0
         I1Cent=           4 NGrid=           0.
 Petite list used in FoFCou.
 Requested convergence on RMS density matrix=1.00D-08 within 128 cycles.
 Requested convergence on MAX density matrix=1.00D-06.
 Requested convergence on             energy=1.00D-06.
 No special actions if energy rises.
 Keep R1 ints in memory in canonical form, NReq=31278098.
 Error on total polarization charges =  0.03695
 SCF Done:  E(RM062X) =  -306.098274567     A.U. after   11 cycles
             Convg  =    0.2189D-08             -V/T =  2.0089
 SMD-CDS (non-electrostatic) energy             (kcal/mol) =       4.83
 (included in total energy above)
 D1PCM: PCM CHGder 1st derivatives, ID1Alg=3 FixD1E=F DoIter=F DoCFld=F I1PDM=0.
 Calling FoFJK, ICntrl=      2127 FMM=F ISym2X=0 I1Cent= 0 IOpClX= 0 NMat=1 NMatS=1 NMatT=0.
 ***** Axes restored to original set *****
 -------------------------------------------------------------------
 Center     Atomic                   Forces (Hartrees/Bohr)
 Number     Number              X              Y              Z
 -------------------------------------------------------------------
      1        8          -0.000591907    0.000393467    0.000521816
      2        1           0.000826367   -0.000846900    0.000517765
      3        1           0.000549625    0.000136180   -0.000937269
      4        1           0.000092026    0.000176358   -0.000379102
      5        8          -0.000202335   -0.000047795    0.000325052
      6        8          -0.000733088   -0.000075881   -0.000198530
      7        8          -0.000362028    0.000492155   -0.000180646
      8        1           0.000152961    0.000172725   -0.000140279
      9        1          -0.000116023   -0.000255409   -0.000042386
     10        1           0.000234066    0.000058616    0.000346265
     11        1           0.000234524   -0.000052978   -0.000027183
     12        1           0.000141121    0.000077019    0.000134505
     13        1          -0.000225308   -0.000227557    0.000059989
 -------------------------------------------------------------------
 Cartesian Forces:  Max     0.000937269 RMS     0.000375725

 GradGradGradGradGradGradGradGradGradGradGradGradGradGradGradGradGradGrad
 Berny optimization.
 Using GEDIIS/GDIIS optimizer.
 Internal  Forces:  Max     0.000607608 RMS     0.000251265
 Search for a local minimum.
 Step number   3 out of a maximum of   52
 All quantities printed in internal units (Hartrees-Bohrs-Radians)
 Mixed Optimization -- En-DIIS/RFO-DIIS
 Swaping is turned off.
 Update second derivatives using D2CorX and points    1    2    3
 DE= -7.20D-06 DEPred=-4.92D-05 R= 1.46D-01
 Trust test= 1.46D-01 RLast= 1.50D-01 DXMaxT set to 1.50D-01
     Eigenvalues ---    0.00040   0.00230   0.00230   0.00230   0.00230
     Eigenvalues ---    0.00230   0.00230   0.00826   0.01983   0.02808
     Eigenvalues ---    0.04865   0.04975   0.05159   0.10897   0.10949
     Eigenvalues ---    0.11290   0.12008   0.13171   0.15444   0.16000
     Eigenvalues ---    0.16000   0.16000   0.16075   0.16833   0.43107
     Eigenvalues ---    0.43507   0.44121   0.53748   0.53769   0.53778
     Eigenvalues ---    0.53786   0.53813   0.539961000.000001000.00000
     Eigenvalues --- 1000.000001000.000001000.000001000.000001000.00000
     Eigenvalues --- 1000.000001000.00000
 En-DIIS/RFO-DIIS IScMMF=        0 using points:     3    2    1
 RFO step:  Lambda=-9.70731093D-06.
 DIIS coeffs:      0.57121      0.27694      0.15185
 Maximum step size (   0.150) exceeded in Quadratic search.
    -- Step size scaled by   0.863
 Iteration  1 RMS(Cart)=  0.02284515 RMS(Int)=  0.00050564
 Iteration  2 RMS(Cart)=  0.00078572 RMS(Int)=  0.00003738
 Iteration  3 RMS(Cart)=  0.00000050 RMS(Int)=  0.00003738
 Variable       Old X    -DE/DX   Delta X   Delta X   Delta X     New X
                                  (DIIS)     (GDIIS)  (Total)
    R1        1.93625   0.00044   0.00038  -0.00084  -0.00046   1.93580
    R2        1.93600   0.00050   0.00020  -0.00023  -0.00003   1.93598
    R3        1.94127  -0.00009   0.00014  -0.00049  -0.00035   1.94092
    R4        2.86279   0.00009   0.00025  -0.00048  -0.00024   2.86256
    R5        2.86266   0.00007   0.00060  -0.00165  -0.00105   2.86161
    R6        2.84327  -0.00013  -0.00042   0.00086   0.00044   2.84372
    R7        1.82925   0.00014  -0.00001   0.00013   0.00012   1.82936
    R8        1.82901   0.00017   0.00010  -0.00019  -0.00009   1.82891
    R9        1.82946  -0.00017  -0.00003  -0.00001  -0.00004   1.82942
   R10        1.82967  -0.00021  -0.00021   0.00051   0.00030   1.82997
   R11        1.82907   0.00021   0.00012  -0.00025  -0.00012   1.82895
   R12        1.82936   0.00005   0.00000   0.00004   0.00004   1.82940
    A1        1.92076   0.00050   0.00061  -0.00057   0.00003   1.92079
    A2        1.91997  -0.00006   0.00055  -0.00186  -0.00131   1.91867
    A3        1.92265  -0.00042  -0.00061   0.00072   0.00008   1.92272
    A4        1.95382   0.00019   0.00025   0.00002   0.00030   1.95412
    A5        1.95972  -0.00009  -0.00070   0.00234   0.00167   1.96139
    A6        1.84192   0.00018   0.00144  -0.00330  -0.00180   1.84012
    A7        1.95484  -0.00061   0.00060  -0.00339  -0.00286   1.95197
    A8        1.95111   0.00008  -0.00063   0.00184   0.00113   1.95224
    A9        1.84292   0.00014  -0.00045   0.00117   0.00058   1.84350
   A10        1.95040  -0.00012  -0.00014   0.00040   0.00024   1.95064
   A11        1.95128   0.00041  -0.00048   0.00257   0.00207   1.95335
   A12        1.84280  -0.00001  -0.00017   0.00088   0.00068   1.84348
   A13        3.14568  -0.00008  -0.00870   0.00864  -0.00006   3.14562
   A14        3.15360  -0.00035  -0.01215  -0.00597  -0.01809   3.13550
   A15        3.19497  -0.00038  -0.00918  -0.00544  -0.01461   3.18036
   A16        3.07378   0.00058   0.01649   0.03035   0.04683   3.12061
   A17        3.14089  -0.00002  -0.00276   0.00454   0.00176   3.14265
   A18        3.17051  -0.00029  -0.00285  -0.02988  -0.03274   3.13778
    D1       -1.50440  -0.00006  -0.01692   0.04280   0.02591  -1.47849
    D2        0.57540   0.00017  -0.01767   0.04137   0.02367   0.59907
    D3        2.64335  -0.00023  -0.01548   0.05078   0.03533   2.67867
    D4       -1.56003  -0.00001  -0.01623   0.04934   0.03308  -1.52695
    D5       -2.83366   0.00006  -0.02299   0.08847   0.06554  -2.76812
    D6        1.38774   0.00017  -0.02450   0.08651   0.06196   1.44970
    D7       -0.71135  -0.00003  -0.02405   0.08429   0.06028  -0.65107
    D8       -2.77313   0.00008  -0.02556   0.08232   0.05670  -2.71644
    D9        2.78274  -0.00003   0.01068  -0.00909   0.00160   2.78434
   D10       -1.43353   0.00011   0.01042  -0.01087  -0.00042  -1.43394
   D11        0.67295   0.00012   0.00932  -0.01552  -0.00623   0.66672
   D12        2.73988   0.00027   0.00906  -0.01730  -0.00825   2.73163
         Item               Value     Threshold  Converged?
 Maximum Force            0.000608     0.000450     NO 
 RMS     Force            0.000251     0.000300     YES
 Maximum Displacement     0.082022     0.001800     NO 
 RMS     Displacement     0.022911     0.001200     NO 
 Predicted change in Energy=-3.262454D-05
 GradGradGradGradGradGradGradGradGradGradGradGradGradGradGradGradGradGrad

                          Input orientation:                          
 ---------------------------------------------------------------------
 Center     Atomic      Atomic             Coordinates (Angstroms)
 Number     Number       Type             X           Y           Z
 ---------------------------------------------------------------------
      1          8           0       -0.015899    0.428777   -0.057200
      2          1           0       -0.474320    0.092638    0.794984
      3          1           0       -0.523411    0.097469   -0.883163
      4          1           0        0.956969    0.100580   -0.084194
      5          8           0        2.388106   -0.355358   -0.176278
      6          8           0       -1.279095   -0.397307   -2.098581
      7          8           0       -1.137545   -0.416385    2.058172
      8          1           0        2.986501    0.229673    0.310339
      9          1           0        2.520071   -1.234561    0.206162
     10          1           0       -0.725301   -0.394816   -2.892620
     11          1           0       -2.036630    0.168727   -2.307148
     12          1           0       -0.532374   -0.398934    2.813273
     13          1           0       -1.892339    0.132112    2.316254
 ---------------------------------------------------------------------
                    Distance matrix (angstroms):
                    1          2          3          4          5
     1  O    0.000000
     2  H    1.024381   0.000000
     3  H    1.024474   1.678871   0.000000
     4  H    1.027091   1.679764   1.682227   0.000000
     5  O    2.531460   3.055738   3.030127   1.504829   0.000000
     6  O    2.538763   3.043095   1.514300   3.050513   4.140697
     7  O    2.539132   1.514799   3.048386   3.040390   4.174530
     8  H    3.031358   3.497276   3.709637   2.071550   0.968057
     9  H    3.044208   3.327845   3.496244   2.076101   0.967819
    10  H    3.036637   3.728139   2.078707   3.310998   4.131993
    11  H    3.035333   3.474165   2.079097   3.729317   4.938983
    12  H    3.031743   2.078101   3.729629   3.295902   4.179535
    13  H    3.040119   2.080048   3.480148   3.725816   4.977203
                    6          7          8          9         10
     6  O    0.000000
     7  O    4.159206   0.000000
     8  H    4.938756   4.525490   0.000000
     9  H    4.521781   4.180611   1.540256   0.000000
    10  H    0.968087   4.967973   4.942308   4.565092   0.000000
    11  H    0.968377   4.495190   5.664521   5.389756   1.542706
    12  H    4.968289   0.967839   4.363749   4.100332   5.709155
    13  H    4.488554   0.968075   5.276011   5.078351   5.363954
                   11         12         13
    11  H    0.000000
    12  H    5.366911   0.000000
    13  H    4.625798   1.542252   0.000000
 Stoichiometry    H9O4(1+)
 Framework group  C1[X(H9O4)]
 Deg. of freedom    33
 Full point group                 C1      NOp   1
 Largest Abelian subgroup         C1      NOp   1
 Largest concise Abelian subgroup C1      NOp   1
                         Standard orientation:                         
 ---------------------------------------------------------------------
 Center     Atomic      Atomic             Coordinates (Angstroms)
 Number     Number       Type             X           Y           Z
 ---------------------------------------------------------------------
      1          8           0       -0.021679   -0.017373    0.602276
      2          1           0        0.594489   -0.761868    0.262540
      3          1           0       -0.975137   -0.166162    0.258289
      4          1           0        0.328566    0.896475    0.290628
      5          8           0        0.795096    2.260426   -0.141228
      6          8           0       -2.381475   -0.393205   -0.255296
      7          8           0        1.514173   -1.850227   -0.251536
      8          1           0        1.466857    2.619309    0.456330
      9          1           0        1.208652    2.248495   -1.016157
     10          1           0       -2.903791    0.421849   -0.247239
     11          1           0       -2.869801   -1.021392    0.296675
     12          1           0        2.442917   -1.579755   -0.220034
     13          1           0        1.458331   -2.653920    0.285240
 ---------------------------------------------------------------------
 Rotational constants (GHZ):      2.9196440      2.8474357      1.5278327
 Standard basis: 6-31+G(d,p) (6D, 7F)
 There are   121 symmetry adapted basis functions of A   symmetry.
 Integral buffers will be    262144 words long.
 Raffenetti 2 integral format.
 Two-electron integral symmetry is turned on.
   121 basis functions,   191 primitive gaussians,   121 cartesian basis functions
    20 alpha electrons       20 beta electrons
       nuclear repulsion energy       145.8777140869 Hartrees.
 NAtoms=   13 NActive=   13 NUniq=   13 SFac= 7.50D-01 NAtFMM=   80 NAOKFM=F Big=F
 ------------------------------------------------------------------------------
 Polarizable Continuum Model (PCM)
 =================================
 Model                : PCM.
 Atomic radii         : SMD-Coulomb.
 Polarization charges : Total charges.
 Charge compensation  : None.
 Solution method      : Matrix inversion.
 Cavity type          : VdW (van der Waals Surface) (Alpha=1.000).
 Cavity algorithm     : GePol (No added spheres)
                        Default sphere list used, NSphG=   13.
                        Lebedev-Laikov grids with approx.  5.0 points / Ang**2.
                        Smoothing algorithm: Karplus/York (Gamma=1.0000).
                        Polarization charges: spherical gaussians, with
                                              point-specific exponents (IZeta= 3).
                        Self-potential: point-specific (ISelfS= 7).
                        Self-field    : sphere-specific E.n sum rule (ISelfD= 2).
 1st derivatives      : Analytical E(r).r(x)/FMM algorithm (CHGder, D1EAlg=3).
                        Cavity 1st derivative terms included.
 Solvent              : Water, Eps=  78.355300 Eps(inf)=   1.777849
 ------------------------------------------------------------------------------
 Spheres list:
 ISph  on   Nord    Re0     Alpha      Xe            Ye            Ze
    1   O      1    1.520   1.000     -0.021679     -0.017373      0.602276
    2   H      2    1.200   1.000      0.594489     -0.761868      0.262540
    3   H      3    1.200   1.000     -0.975137     -0.166162      0.258289
    4   H      4    1.200   1.000      0.328566      0.896475      0.290628
    5   O      5    1.520   1.000      0.795096      2.260426     -0.141228
    6   O      6    1.520   1.000     -2.381475     -0.393205     -0.255296
    7   O      7    1.520   1.000      1.514173     -1.850227     -0.251536
    8   H      8    1.200   1.000      1.466857      2.619309      0.456330
    9   H      9    1.200   1.000      1.208652      2.248495     -1.016157
   10   H     10    1.200   1.000     -2.903791      0.421849     -0.247239
   11   H     11    1.200   1.000     -2.869801     -1.021392      0.296675
   12   H     12    1.200   1.000      2.442917     -1.579755     -0.220034
   13   H     13    1.200   1.000      1.458331     -2.653920      0.285240
 ------------------------------------------------------------------------------
 ------------------------------------------------------------------------------
 Atomic radii for non-electrostatic terms: SMD-CDS.
 ------------------------------------------------------------------------------
 Nuclear repulsion after PCM non-electrostatic terms =      145.8853953262 Hartrees.
 One-electron integrals computed using PRISM.
 NBasis=   121 RedAO= T  NBF=   121
 NBsUse=   121 1.00D-06 NBFU=   121
 Initial guess read from the read-write file.
 B after Tr=     0.000000    0.000000    0.000000
         Rot=    1.000000    0.000000    0.000000    0.000000 Ang=   0.00 deg.
 Initial guess orbital symmetries:
       Occupied  (A) (A) (A) (A) (A) (A) (A) (A) (A) (A) (A) (A)
                 (A) (A) (A) (A) (A) (A) (A) (A)
       Virtual   (A) (A) (A) (A) (A) (A) (A) (A) (A) (A) (A) (A)
                 (A) (A) (A) (A) (A) (A) (A) (A) (A) (A) (A) (A)
                 (A) (A) (A) (A) (A) (A) (A) (A) (A) (A) (A) (A)
                 (A) (A) (A) (A) (A) (A) (A) (A) (A) (A) (A) (A)
                 (A) (A) (A) (A) (A) (A) (A) (A) (A) (A) (A) (A)
                 (A) (A) (A) (A) (A) (A) (A) (A) (A) (A) (A) (A)
                 (A) (A) (A) (A) (A) (A) (A) (A) (A) (A) (A) (A)
                 (A) (A) (A) (A) (A) (A) (A) (A) (A) (A) (A) (A)
                 (A) (A) (A) (A) (A)
 Harris functional with IExCor= 1009 diagonalized for initial guess.
 ExpMin= 8.45D-02 ExpMax= 5.48D+03 ExpMxC= 8.25D+02 IAcc=2 IRadAn=         0 AccDes= 0.00D+00
 HarFok:  IExCor= 1009 AccDes= 0.00D+00 IRadAn=         0 IDoV= 1
 ScaDFX=  1.000000  1.000000  1.000000  1.000000
 FoFCou: FMM=F IPFlag=           0 FMFlag=      100000 FMFlg1=           0
         NFxFlg=           0 DoJE=T BraDBF=F KetDBF=T FulRan=T
         Omega=  0.000000  0.000000  1.000000  0.000000  0.000000 ICntrl=     500 IOpCl=  0
         NMat0=    1 NMatS0=    1 NMatT0=    0 NMatD0=    1 NMtDS0=    0 NMtDT0=    0
         I1Cent=           4 NGrid=           0.
 Petite list used in FoFCou.
 Requested convergence on RMS density matrix=1.00D-08 within 128 cycles.
 Requested convergence on MAX density matrix=1.00D-06.
 Requested convergence on             energy=1.00D-06.
 No special actions if energy rises.
 Keep R1 ints in memory in canonical form, NReq=31274461.
 Error on total polarization charges =  0.03703
 SCF Done:  E(RM062X) =  -306.098362647     A.U. after    9 cycles
             Convg  =    0.6078D-08             -V/T =  2.0089
 SMD-CDS (non-electrostatic) energy             (kcal/mol) =       4.82
 (included in total energy above)
 D1PCM: PCM CHGder 1st derivatives, ID1Alg=3 FixD1E=F DoIter=F DoCFld=F I1PDM=0.
 Calling FoFJK, ICntrl=      2127 FMM=F ISym2X=0 I1Cent= 0 IOpClX= 0 NMat=1 NMatS=1 NMatT=0.
 ***** Axes restored to original set *****
 -------------------------------------------------------------------
 Center     Atomic                   Forces (Hartrees/Bohr)
 Number     Number              X              Y              Z
 -------------------------------------------------------------------
      1        8           0.000199715    0.000642443    0.000319724
      2        1           0.000183776   -0.000190502    0.000570995
      3        1           0.000017257   -0.000173281   -0.000690652
      4        1          -0.000090973   -0.000507113   -0.000187179
      5        8           0.000126123    0.000242035    0.000185237
      6        8          -0.000807814    0.000226108   -0.000273419
      7        8          -0.000191127    0.000102837   -0.000349138
      8        1           0.000077426    0.000294848   -0.000168476
      9        1          -0.000173846   -0.000350042    0.000003734
     10        1           0.000222621   -0.000086410    0.000267645
     11        1           0.000461905   -0.000115338   -0.000029637
     12        1           0.000051903    0.000062324    0.000295642
     13        1          -0.000076965   -0.000147909    0.000055523
 -------------------------------------------------------------------
 Cartesian Forces:  Max     0.000807814 RMS     0.000302559

 GradGradGradGradGradGradGradGradGradGradGradGradGradGradGradGradGradGrad
 Berny optimization.
 Using GEDIIS/GDIIS optimizer.
 Internal  Forces:  Max     0.000695787 RMS     0.000230161
 Search for a local minimum.
 Step number   4 out of a maximum of   52
 All quantities printed in internal units (Hartrees-Bohrs-Radians)
 Mixed Optimization -- En-DIIS/RFO-DIIS
 Swaping is turned off.
 Update second derivatives using D2CorX and points    1    2    3    4
 DE= -8.81D-05 DEPred=-3.26D-05 R= 2.70D+00
 SS=  1.41D+00  RLast= 1.50D-01 DXNew= 2.5227D-01 4.5000D-01
 Trust test= 2.70D+00 RLast= 1.50D-01 DXMaxT set to 2.52D-01
     Eigenvalues ---    0.00001   0.00230   0.00230   0.00230   0.00230
     Eigenvalues ---    0.00230   0.00787   0.02145   0.03102   0.03293
     Eigenvalues ---    0.04874   0.05077   0.05512   0.10929   0.11026
     Eigenvalues ---    0.11349   0.12165   0.13510   0.15377   0.16000
     Eigenvalues ---    0.16000   0.16056   0.16412   0.17717   0.43149
     Eigenvalues ---    0.43513   0.47485   0.53764   0.53778   0.53785
     Eigenvalues ---    0.53813   0.53821   0.577141000.000001000.00000
     Eigenvalues --- 1000.000001000.000001000.000001000.000001000.00000
     Eigenvalues --- 1000.000001000.00000
 Eigenvalue     1 is   7.26D-06 Eigenvector:
                          D5        D6        D7        D8        D3
   1                    0.44464   0.43741   0.42709   0.41986   0.24302
                          D4        D1        D2        A18       A16
   1                    0.23937   0.21414   0.21049  -0.11617   0.11273
 En-DIIS/RFO-DIIS IScMMF=        0 using points:     4    3    2    1
 RFO step:  Lambda=-7.92085340D-06.
 DIIS coeffs:      1.90046      0.20178     -0.12370     -0.97855
 Matrix for removal  2 Erem= -306.098267364688     Crem= 0.000D+00
 En-DIIS coeffs:      1.00000      0.00000      0.00000      0.00000
 Maximum step size (   0.252) exceeded in Quadratic search.
    -- Step size scaled by   0.150
 Iteration  1 RMS(Cart)=  0.04221179 RMS(Int)=  0.00174278
 Iteration  2 RMS(Cart)=  0.00172896 RMS(Int)=  0.00001752
 Iteration  3 RMS(Cart)=  0.00000234 RMS(Int)=  0.00001743
 Iteration  4 RMS(Cart)=  0.00000000 RMS(Int)=  0.00001743
 Variable       Old X    -DE/DX   Delta X   Delta X   Delta X     New X
                                  (DIIS)     (GDIIS)  (Total)
    R1        1.93580   0.00056   0.00000  -0.00103  -0.00103   1.93477
    R2        1.93598   0.00070   0.00000  -0.00024  -0.00024   1.93574
    R3        1.94092   0.00004   0.00000  -0.00062  -0.00062   1.94030
    R4        2.86256   0.00010   0.00000  -0.00059  -0.00059   2.86197
    R5        2.86161   0.00009   0.00000  -0.00210  -0.00210   2.85951
[...]
 Vib (V=0)       0.121943D+04          3.086156          7.106137
 Vib (V=0)    1  0.385464D+01          0.585983          1.349276
 Vib (V=0)    2  0.344886D+01          0.537676          1.238044
 Vib (V=0)    3  0.300265D+01          0.477504          1.099494
 Vib (V=0)    4  0.217340D+01          0.337139          0.776291
 Vib (V=0)    5  0.164190D+01          0.215347          0.495854
 Vib (V=0)    6  0.143155D+01          0.155806          0.358757
 Vib (V=0)    7  0.134197D+01          0.127743          0.294140
 Vib (V=0)    8  0.133167D+01          0.124396          0.286432
 Vib (V=0)    9  0.132881D+01          0.123462          0.284281
 Vib (V=0)   10  0.122221D+01          0.087147          0.200663
 Vib (V=0)   11  0.117667D+01          0.070655          0.162690
 Vib (V=0)   12  0.116428D+01          0.066058          0.152104
 Vib (V=0)   13  0.115367D+01          0.062081          0.142946
 Vib (V=0)   14  0.112778D+01          0.052225          0.120253
 Vib (V=0)   15  0.111038D+01          0.045471          0.104701
 Electronic      0.100000D+01          0.000000          0.000000
 Translational   0.245407D+08          7.389886         17.015842
 Rotational      0.244890D+06          5.388971         12.408565
 ***** Axes restored to original set *****
 -------------------------------------------------------------------
 Center     Atomic                   Forces (Hartrees/Bohr)
 Number     Number              X              Y              Z
 -------------------------------------------------------------------
      1        8           0.000163502    0.000110511    0.000275427
      2        1          -0.000248760    0.000229461    0.000012202
      3        1           0.000059847   -0.000093953   -0.000070604
      4        1           0.000002220   -0.000176925   -0.000359614
      5        8          -0.000226492    0.000256959    0.000039194
      6        8          -0.000466936    0.000346538   -0.000426796
      7        8           0.000110308   -0.000103374   -0.000218480
      8        1           0.000236005   -0.000124677    0.000038436
      9        1          -0.000035065   -0.000121254    0.000048972
     10        1           0.000233983   -0.000177352    0.000344419
     11        1           0.000198997   -0.000082007    0.000096193
     12        1           0.000172245   -0.000044327    0.000331805
     13        1          -0.000199854   -0.000019601   -0.000111157
 -------------------------------------------------------------------
 Cartesian Forces:  Max     0.000466936 RMS     0.000206503

 GradGradGradGradGradGradGradGradGradGradGradGradGradGradGradGradGradGrad
 Berny optimization.
 Internal  Forces:  Max     0.000396256 RMS     0.000153051
 Search for a local minimum.
 Step number   1 out of a maximum of    2
 All quantities printed in internal units (Hartrees-Bohrs-Radians)
 Second derivative matrix not updated -- analytic derivatives used.
     Eigenvalues ---    0.00079   0.00171   0.00260   0.00736   0.00957
     Eigenvalues ---    0.00973   0.01160   0.01194   0.01244   0.01427
     Eigenvalues ---    0.01577   0.01595   0.02836   0.02909   0.02985
     Eigenvalues ---    0.03024   0.03205   0.03478   0.03603   0.06783
     Eigenvalues ---    0.07073   0.08635   0.08671   0.08780   0.37137
     Eigenvalues ---    0.37360   0.38422   0.53468   0.53524   0.53619
     Eigenvalues ---    0.54068   0.54134   0.542621000.000001000.00000
     Eigenvalues --- 1000.000001000.000001000.000001000.000001000.00000
     Eigenvalues --- 1000.000001000.00000
 Angle between quadratic step and forces=  68.69 degrees.
 Linear search not attempted -- first point.
 Iteration  1 RMS(Cart)=  0.04508334 RMS(Int)=  0.00239711
 Iteration  2 RMS(Cart)=  0.00240695 RMS(Int)=  0.00007334
 Iteration  3 RMS(Cart)=  0.00000678 RMS(Int)=  0.00007312
 Iteration  4 RMS(Cart)=  0.00000000 RMS(Int)=  0.00007312
 Variable       Old X    -DE/DX   Delta X   Delta X   Delta X     New X
                                 (Linear)    (Quad)   (Total)
    R1        1.93694   0.00007   0.00000   0.00055   0.00055   1.93748
    R2        1.93839   0.00007   0.00000   0.00021   0.00021   1.93860
    R3        1.94046   0.00001   0.00000   0.00064   0.00064   1.94111
    R4        2.86181   0.00002   0.00000  -0.00218  -0.00218   2.85963
    R5        2.85829   0.00001   0.00000   0.00227   0.00227   2.86056
    R6        2.84400  -0.00005   0.00000  -0.00165  -0.00165   2.84235
    R7        1.82907   0.00010   0.00000   0.00012   0.00012   1.82919
    R8        1.82889   0.00009   0.00000   0.00025   0.00025   1.82914
    R9        1.82960  -0.00016   0.00000  -0.00024  -0.00024   1.82936
   R10        1.82974  -0.00023   0.00000  -0.00072  -0.00072   1.82902
   R11        1.82884   0.00039   0.00000   0.00029   0.00029   1.82913
   R12        1.82925   0.00010   0.00000  -0.00008  -0.00008   1.82917
    A1        1.92326   0.00000   0.00000  -0.00283  -0.00288   1.92038
    A2        1.92438   0.00007   0.00000  -0.00534  -0.00540   1.91899
    A3        1.92346  -0.00016   0.00000  -0.00708  -0.00723   1.91623
    A4        1.95661   0.00036   0.00000   0.01190   0.01191   1.96852
    A5        1.96414  -0.00011   0.00000  -0.00504  -0.00502   1.95911
    A6        1.84582  -0.00009   0.00000  -0.00098  -0.00096   1.84486
    A7        1.95288  -0.00040   0.00000  -0.01046  -0.01043   1.94245
    A8        1.94616   0.00003   0.00000   0.00302   0.00305   1.94921
    A9        1.84163   0.00026   0.00000   0.00250   0.00256   1.84419
   A10        1.95211   0.00013   0.00000   0.00418   0.00403   1.95614
   A11        1.95494  -0.00003   0.00000   0.01528   0.01514   1.97008
   A12        1.84234   0.00003   0.00000  -0.00014  -0.00042   1.84192
   A13        3.13234  -0.00003   0.00000   0.00462   0.00464   3.13699
   A14        3.12896   0.00010   0.00000   0.00418   0.00418   3.13314
   A15        3.19299  -0.00009   0.00000  -0.01004  -0.01003   3.18296
   A16        3.16020  -0.00029   0.00000  -0.04004  -0.04004   3.12016
   A17        3.12888   0.00007   0.00000   0.01212   0.01212   3.14100
   A18        3.14602  -0.00002   0.00000  -0.00749  -0.00749   3.13853
    D1       -1.56808  -0.00005   0.00000   0.00161   0.00161  -1.56647
    D2        0.52263   0.00000   0.00000   0.00351   0.00350   0.52613
    D3        2.57801   0.00004   0.00000   0.01670   0.01672   2.59472
    D4       -1.61447   0.00009   0.00000   0.01860   0.01860  -1.59587
    D5       -2.73329   0.00018   0.00000   0.04609   0.04608  -2.68721
    D6        1.49019   0.00010   0.00000   0.04738   0.04741   1.53760
    D7       -0.60554   0.00016   0.00000   0.03123   0.03120  -0.57434
    D8       -2.66525   0.00008   0.00000   0.03253   0.03254  -2.63271
    D9        2.78368  -0.00011   0.00000   0.09092   0.09088   2.87456
   D10       -1.43503   0.00004   0.00000   0.10661   0.10679  -1.32824
   D11        0.65469   0.00011   0.00000   0.11225   0.11207   0.76676
   D12        2.71917   0.00026   0.00000   0.12794   0.12797   2.84715
         Item               Value     Threshold  Converged?
 Maximum Force            0.000396     0.000450     YES
 RMS     Force            0.000153     0.000300     YES
 Maximum Displacement     0.182610     0.001800     NO 
 RMS     Displacement     0.045382     0.001200     NO 
 Predicted change in Energy=-4.348772D-05
 GradGradGradGradGradGradGradGradGradGradGradGradGradGradGradGradGradGrad

 1|1|UNPC-DESKTOP-319GPER|Freq|RM062X|6-31+G(d,p)|H9O4(1+)|SAGAD|19-Jan
 -2021|0||#N Geom=AllCheck Guess=TCheck SCRF=Check GenChk RM062X/6-31+G
 (d,p) Freq||Hidronio m062x con tres aguas two||1,1|O,-0.0077631841,0.4
 079710086,-0.0455663661|H,-0.4684965608,0.0716585806,0.8060247742|H,-0
 .5185297384,0.0865943454,-0.8750248056|H,0.9642260707,0.0784017444,-0.
 0778051196|O,2.397992134,-0.3648829959,-0.1908669378|O,-1.2904899187,-
 0.3868307268,-2.0865210386|O,-1.1679692896,-0.4179682944,2.0567932376|
 H,3.0069558606,0.262088846,0.2249551203|H,2.5588247094,-1.2147721448,0
 .2432659601|H,-0.735180219,-0.4176100665,-2.879026025|H,-2.016841014,0
 .2159341182,-2.3024190668|H,-0.5767809669,-0.4191260281,2.8230144567|H
 ,-1.9112142737,0.1511579018,2.3031758104||Version=IA32W-G09RevA.02|Sta
 te=1-A|HF=-306.0983966|RMSD=6.918e-010|RMSF=2.065e-004|ZeroPoint=0.108
 1309|Thermal=0.1183338|Dipole=0.4047212,0.5808791,0.7447465|DipoleDeri
 v=-1.5366674,0.0161557,-0.0106985,0.0118573,-0.7786307,0.0053889,-0.01
 1489,0.0088761,-1.5483969,0.641294,0.138255,-0.5329985,0.1540155,0.515
 9097,-0.2794791,-0.5285594,-0.2511613,1.3478696,0.7031337,0.1461324,0.
 5773025,0.1630298,0.5059015,0.2660221,0.5737032,0.2324697,1.3010066,1.
 6449184,-0.31168,-0.0267848,-0.3341673,0.5159403,0.0057571,-0.0350862,
 0.0065176,0.3670267,-1.237271,0.1222621,0.0930069,0.1367308,-0.805102,
 -0.0259331,0.1114678,-0.0316148,-0.7239341,-0.9182996,-0.0877852,-0.21
 52466,-0.1027324,-0.7976796,-0.1931821,-0.2097109,-0.1638391,-1.040348
 8,-0.8920687,-0.0831262,0.2040631,-0.0951792,-0.8038358,0.1994044,0.19
 63824,0.1719922,-1.0598516,0.4153885,0.0129286,-0.0424304,0.0382812,0.
 436534,0.0023318,-0.0513198,-0.0047281,0.4186635,0.3974825,0.010035,-0
 .0389023,-0.0144833,0.4530269,0.0212302,-0.0407332,0.0315823,0.4182909
 ,0.4266522,0.0003021,-0.0277704,0.004214,0.4508034,0.0480683,-0.003769
 6,0.0314326,0.3850528,0.4635527,0.0193519,-0.0003215,0.0183858,0.42725
 94,0.0183635,-0.026704,0.0266421,0.3750158,0.4284873,-0.0006147,0.0258
 408,0.00087,0.4529249,-0.0479786,0.0036903,-0.031671,0.3858568,0.46339
 75,0.0177834,-0.0050605,0.0191779,0.426948,-0.0199935,0.0221283,-0.026
 4985,0.3737486|Polar=37.5398561,-0.7339894,30.9842741,0.2974821,-0.064
 3022,36.884395|PG=C01 [X(H9O4)]|NImag=0||0.54643867,0.00159686,0.16675
 398,-0.00190297,-0.00424261,0.54554373,-0.10714447,-0.03584168,0.07269
 002,0.11166448,-0.04677301,-0.05959184,0.08755282,0.02708503,0.0629328
 1,0.07221683,0.06724330,-0.20047890,-0.06409340,-0.05702730,0.19430534
 ,-0.11605749,-0.03750617,-0.07727533,0.01847458,0.01111228,0.00245295,
 0.12065559,-0.04954499,-0.05592528,-0.08059481,0.01153592,0.00407203,0
 .00469134,0.02842615,0.05939721,-0.07691967,-0.06106188,-0.19240926,-0
 .00414276,-0.00462146,-0.02522854,0.06748976,0.05028111,0.18566282,-0.
 23483993,0.07228311,0.00567473,-0.01317225,-0.00208414,0.01614318,-0.0
 1577896,-0.00089982,-0.01485364,0.22398651,0.09440222,-0.05639475,-0.0
 0277576,-0.01011414,0.00456047,-0.00751981,-0.00917806,0.00421010,0.00
 786572,-0.05698466,0.06378266,0.00630275,-0.00240572,-0.06417737,0.022
 34347,-0.01223671,0.00618411,-0.02120261,0.01228717,0.00883004,-0.0050
 2228,0.00155818,0.06963854,-0.06287854,0.01730161,0.00094518,0.0015660
 1,0.00332182,-0.00784818,0.00155587,0.00342774,0.00810635,0.02952362,-
 0.01589520,0.00636612,0.30128636,0.02105742,0.00343320,-0.00045499,0.0
 0040391,-0.00116625,0.00277913,0.00039597,-0.00125195,-0.00276028,-0.0
 1709414,-0.01568797,-0.00149072,0.12639917,0.66240670,0.00027332,0.000
 32357,0.00821225,-0.00096431,0.00050864,-0.00023543,0.00081706,-0.0009
 2774,-0.00090654,0.00111417,0.00000096,-0.01366270,0.20407235,-0.06639
 777,0.24399170,-0.00890088,-0.00857445,-0.03212282,-0.00424185,-0.0024
 0318,0.00218397,-0.00815683,0.00592007,0.02287084,0.00393049,-0.000895
 69,-0.00035705,-0.00148144,0.00046444,0.00008494,0.50576800,-0.0097070
 2,0.00297109,-0.01465455,-0.00231738,-0.00092262,0.00118680,0.00830270
 ,-0.01215164,0.00959014,0.00193959,-0.00118239,-0.00162320,-0.00106623
 ,0.00039507,0.00011714,-0.25796373,0.23582976,-0.03227442,-0.01276619,
 -0.04386875,-0.00483644,-0.00246296,0.00469108,0.02099694,0.00486145,0
 .02155706,0.00642088,-0.00323910,-0.00327893,-0.00297101,0.00102673,0.
 00032150,-0.14164604,-0.06793692,0.46069160,-0.00534195,-0.00819900,0.
 02988342,-0.00977125,0.00638407,-0.02156490,-0.00409670,-0.00229329,-0
 .00174464,0.00362109,-0.00070509,-0.00009212,-0.00135324,0.00041283,0.
 00003910,0.00111585,0.00057703,0.00145357,0.54261567,-0.00909876,0.002
 47111,0.01557703,0.00829031,-0.01218579,-0.00952744,-0.00239090,-0.000
 91819,-0.00111738,0.00208394,-0.00121903,0.00150175,-0.00104146,0.0004
 0145,-0.00004699,0.00062581,0.00032724,0.00086199,-0.24218899,0.211747
 83,0.02978451,0.01379209,-0.04667532,-0.01958673,-0.00481076,0.0225881
 1,0.00525037,0.00250882,0.00461232,-0.00676845,0.00333307,-0.00276730,
 0.00294489,-0.00104265,0.00010407,-0.00162336,-0.00088068,-0.00231832,
 0.13666425,0.08656813,0.44809149,-0.00165028,0.00171682,0.00107988,-0.
 00002616,0.00011648,-0.00010816,0.00023815,-0.00007250,-0.00008417,-0.
 00307366,-0.00585565,-0.00385846,-0.22072004,-0.21269580,-0.14436731,-
 0.00001044,0.00001189,0.00001351,0.00000266,-0.00001380,0.00005157,0.2
 2126218,0.00450522,-0.00191317,-0.00057156,-0.00015181,-0.00023015,0.0
 0051041,-0.00032242,-0.00011542,-0.00051081,-0.00562729,0.00490080,0.0
 0174883,-0.18039072,-0.24167302,-0.11161155,0.00011095,0.00005337,0.00
 018920,0.00009580,0.00006353,-0.00020981,0.20837486,0.26187479,0.00125
 020,-0.00094236,0.00012027,-0.00008989,0.00004608,0.00011137,-0.000041
 89,-0.00002304,-0.00004317,-0.00083301,0.00182171,-0.00029166,-0.15925
 683,-0.14778709,-0.11489283,0.00003635,0.00001138,0.00002169,0.0000031
 9,0.00000422,-0.00002295,0.14606159,0.13022798,0.10815025,-0.00443789,
 -0.00026035,0.00130095,-0.00028748,0.00035257,-0.00051441,0.00006368,0
 .00010599,0.00033472,0.00531928,0.00571786,-0.00443620,-0.04727051,0.0
 8054442,-0.06106761,-0.00007187,-0.00005970,-0.00013892,-0.00004922,-0
 .00009626,0.00021155,0.00400247,-0.02660101,0.01286459,0.04276654,-0.0
 0283979,0.00075193,-0.00000703,0.00018548,0.00012102,-0.00039925,0.000
 16166,0.00018314,0.00038944,0.00569916,-0.00288342,0.00069721,0.048195
 57,-0.40688157,0.17802529,-0.00007523,-0.00006858,-0.00015348,-0.00006
 498,-0.00007950,0.00015089,0.00843363,-0.02299870,0.01663932,-0.059701
 32,0.43184297,0.00146420,-0.00001873,0.00019497,0.00003091,0.00000107,
 0.00009650,0.00006269,0.00000775,-0.00012405,-0.00187708,-0.00104019,-
 0.00033079,-0.05234963,0.21612661,-0.12295590,0.00002865,0.00000455,0.
 00004561,-0.00001463,0.00002225,-0.00002944,0.00120306,-0.01977592,0.0
 0685602,0.05143505,-0.19533302,0.11626700,-0.00397349,-0.00125898,-0.0
 0355781,-0.00020113,-0.00008448,0.00053676,0.00765014,0.00204880,0.002
 84531,0.00055522,-0.00037549,-0.00043861,-0.00027910,0.00011302,0.0000
 7660,-0.19148034,0.03188409,0.20973252,0.00009202,0.00006573,-0.000182
 79,0.00000256,0.00001100,-0.00000125,-0.00001110,-0.00001032,-0.000000
 99,0.20568567,-0.00090206,0.00006944,0.00008368,0.00013893,0.00007403,
 -0.00004519,0.00164778,-0.00087677,-0.00229997,-0.00004307,-0.00000375
 ,-0.00017286,-0.00001166,-0.00001636,0.00000637,0.01325428,-0.01772758
 ,0.01584730,-0.00003360,-0.00002617,0.00003333,0.00000142,0.00000644,-
 0.00000542,0.00000231,0.00000711,0.00000903,-0.03129893,0.02065813,-0.
 00152788,-0.00050459,0.00011575,0.00020422,0.00012563,0.00007026,0.003
 66349,0.00053223,-0.00497951,-0.00002251,-0.00017360,-0.00023021,-0.00
 003790,0.00002348,0.00000053,0.24626719,-0.01429061,-0.36692582,-0.000
 03161,-0.00001488,0.00004015,-0.00000149,-0.00000177,0.00000303,-0.000
 00664,0.00000046,-0.00000078,-0.23856625,0.00975375,0.36538441,0.00115
 961,-0.00008527,0.00097601,0.00017075,0.00001961,-0.00023831,-0.004527
 41,0.00138832,-0.00363108,-0.00028722,0.00011883,0.00017704,0.00014085
 ,-0.00004766,-0.00000697,-0.29648685,0.22837252,-0.05683174,-0.0000697
 2,-0.00003399,0.00008675,-0.00000512,-0.00000971,-0.00000651,0.0000032
 4,0.00000768,-0.00000495,-0.01805137,0.01724415,-0.00994345,0.31794968
 ,-0.00097848,-0.00132884,-0.00332911,-0.00028471,-0.00020438,0.0001911
 2,-0.00048072,0.00351899,0.00439102,0.00037953,-0.00003166,0.00008100,
 -0.00011140,0.00002681,0.00000868,0.24946939,-0.20754446,0.06366639,0.
 00008912,0.00004392,-0.00013647,-0.00000678,0.00001173,0.00000022,-0.0
 0000530,-0.00000273,0.00000504,-0.00109951,-0.00217322,0.00455016,-0.2
 4697485,0.20766892,-0.00104010,-0.00211349,-0.00323589,-0.00029169,-0.
 00016474,0.00023975,-0.00231976,0.00632834,0.00272820,0.00032548,-0.00
 001315,0.00014649,-0.00010237,0.00002646,-0.00000066,-0.09564768,0.088
 50786,-0.07086710,0.00010253,0.00004676,-0.00011793,-0.00000437,0.0000
 1070,0.00000246,-0.00000421,-0.00000439,-0.00000275,0.02956514,-0.0232
 0606,0.00652881,0.06941807,-0.06942597,0.06460377,-0.00356839,-0.00131
 080,0.00364572,0.00716441,0.00219622,-0.00323681,-0.00021359,-0.000068
 59,-0.00052187,0.00054545,-0.00035766,0.00036048,-0.00023612,0.0001036
 6,-0.00007224,0.00009853,0.00006174,0.00017061,-0.21495516,0.02263915,
 -0.21617096,-0.00001752,0.00001238,0.00001152,-0.00003413,-0.00000219,
 0.00002185,0.00001686,-0.00000242,0.00000049,-0.00000560,0.00000708,0.
 00000841,0.23110108,-0.00102442,0.00002391,0.00006939,0.00208792,-0.00
 072730,0.00213434,0.00013850,0.00006623,0.00002044,-0.00000819,-0.0000
 2410,0.00017869,-0.00001788,-0.00001164,-0.00000809,-0.00003116,-0.000
 02303,-0.00002614,0.00192407,-0.01531314,-0.02755641,-0.00000839,0.000
 00903,0.00000465,0.00000510,0.00000941,-0.00000697,-0.00000185,0.00000
 921,0.00000382,0.00000285,-0.00000013,-0.00000028,-0.02033010,0.016780
 04,0.00161530,0.00055933,-0.00001980,-0.00417663,-0.00068182,-0.004906
 02,-0.00021252,-0.00013252,0.00008639,0.00001349,0.00018268,-0.0002417
 8,0.00002139,-0.00002581,0.00003786,0.00003611,0.00001522,0.00004146,-
 0.25411111,0.00028940,-0.34661050,0.00001392,0.00000178,-0.00001113,0.
 00002396,-0.00000595,-0.00001762,-0.00000086,-0.00000393,-0.00001001,-
 0.00000269,0.00000451,0.00000268,0.24594137,0.00364810,0.34476574,0.00
 119503,0.00013830,-0.00133697,-0.00419564,0.00075672,0.00407048,0.0001
 9296,0.00002621,0.00025084,-0.00032965,0.00012275,-0.00014252,0.000146
 28,-0.00005723,0.00000089,-0.00008237,-0.00003551,-0.00008945,-0.31181
 004,0.22115922,0.06933841,-0.00000479,-0.00000724,0.00000195,0.0000069
 9,0.00001067,0.00000087,-0.00000595,0.00000286,0.00000235,0.00000916,-
 0.00000338,-0.00000946,-0.01989584,0.01726357,0.01083828,0.33477387,-0
 .00069320,-0.00132079,0.00334751,-0.00101779,0.00326796,-0.00421746,-0
 .00030678,-0.00020846,-0.00016609,0.00035599,-0.00002696,-0.00012361,-
 0.00011135,0.00002552,0.00000148,0.00009852,0.00004376,0.00013174,0.24
 400204,-0.18531326,-0.07174955,-0.00000220,0.00001075,0.00000234,-0.00
 000430,-0.00000109,-0.00000147,0.00000692,-0.00000052,-0.00000408,-0.0
 0000247,0.00001505,0.00000795,-0.00294847,-0.00079850,-0.00385099,-0.2
 3937693,0.18430655,0.00075794,0.00213728,-0.00332167,0.00291324,-0.006
 22850,0.00256237,0.00031886,0.00017990,0.00021425,-0.00031494,-0.00000
 069,0.00018158,0.00010963,-0.00002310,-0.00001384,-0.00011108,-0.00004
 712,-0.00011109,0.10941297,-0.09416485,-0.07689439,0.00000043,-0.00000
 747,-0.00000333,-0.00000283,0.00000051,0.00000126,-0.00000779,-0.00000
 004,0.00000341,0.00000781,-0.00000660,-0.00002784,-0.03015857,0.021538
 46,0.00688273,-0.08292566,0.07662222,0.07052657||-0.00016350,-0.000110
 51,-0.00027543,0.00024876,-0.00022946,-0.00001220,-0.00005985,0.000093
 95,0.00007060,-0.00000222,0.00017692,0.00035961,0.00022649,-0.00025696
 ,-0.00003919,0.00046694,-0.00034654,0.00042680,-0.00011031,0.00010337,
 0.00021848,-0.00023600,0.00012468,-0.00003844,0.00003506,0.00012125,-0
 .00004897,-0.00023398,0.00017735,-0.00034442,-0.00019900,0.00008201,-0
 .00009619,-0.00017224,0.00004433,-0.00033181,0.00019985,0.00001960,0.0
 0011116|||@


 SCIENCE IS A VERY HUMAN FORM OF KNOWLEDGE.
 WE ARE ALWAYS AT THE BRINK OF THE KNOWN,
 WE ALWAYS FEEL FORWARD FOR WHAT IS HOPED.
 EVERY JUDGEMENT IN SCIENCE STANDS ON THE EDGE OF ERROR, AND IS PERSONAL.
 SCIENCE IS A TRIBUTE TO WHAT WE CAN KNOW ALTHOUGH WE ARE FALLIBLE.

                     -- J. BRONOWSKI
 Job cpu time:  0 days  0 hours  1 minutes 35.0 seconds.
 File lengths (MBytes):  RWF=     39 Int=      0 D2E=      0 Chk=      4 Scr=      1
 Normal termination of Gaussian 09 at Tue Jan 19 20:25:34 2021.
