 Entering Link 1 = C:\G09W\l1.exe PID=      2292.
  
 Copyright (c) 1988,1990,1992,1993,1995,1998,2003,2009, Gaussian, Inc.
                  All Rights Reserved.
  
 This is part of the Gaussian(R) 09 program.  It is based on
 the Gaussian(R) 03 system (copyright 2003, Gaussian, Inc.),
 the Gaussian(R) 98 system (copyright 1998, Gaussian, Inc.),
 the Gaussian(R) 94 system (copyright 1995, Gaussian, Inc.),
 the Gaussian 92(TM) system (copyright 1992, Gaussian, Inc.),
 the Gaussian 90(TM) system (copyright 1990, Gaussian, Inc.),
 the Gaussian 88(TM) system (copyright 1988, Gaussian, Inc.),
 the Gaussian 86(TM) system (copyright 1986, Carnegie Mellon
 University), and the Gaussian 82(TM) system (copyright 1983,
 Carnegie Mellon University). Gaussian is a federally registered
 trademark of Gaussian, Inc.
  
 This software contains proprietary and confidential information,
 including trade secrets, belonging to Gaussian, Inc.
  
 This software is provided under written license and may be
 used, copied, transmitted, or stored only in accord with that
 written license.
  
 The following legend is applicable only to US Government
 contracts under FAR:
  
                    RESTRICTED RIGHTS LEGEND
  
 Use, reproduction and disclosure by the US Government is
 subject to restrictions as set forth in subparagraphs (a)
 and (c) of the Commercial Computer Software - Restricted
 Rights clause in FAR 52.227-19.
  
 Gaussian, Inc.
 340 Quinnipiac St., Bldg. 40, Wallingford CT 06492
  
  
 ---------------------------------------------------------------
 Warning -- This program may not be used in any manner that
 competes with the business of Gaussian, Inc. or will provide
 assistance to any competitor of Gaussian, Inc.  The licensee
 of this program is prohibited from giving any competitor of
 Gaussian, Inc. access to this program.  By using this program,
 the user acknowledges that Gaussian, Inc. is engaged in the
 business of creating and licensing software in the field of
 computational chemistry and represents and warrants to the
 licensee that it is not a competitor of Gaussian, Inc. and that
 it will not use this program in any manner prohibited above.
 ---------------------------------------------------------------
  

 Cite this work as:
 Gaussian 09, Revision A.02,
 M. J. Frisch, G. W. Trucks, H. B. Schlegel, G. E. Scuseria, 
 M. A. Robb, J. R. Cheeseman, G. Scalmani, V. Barone, B. Mennucci, 
 G. A. Petersson, H. Nakatsuji, M. Caricato, X. Li, H. P. Hratchian, 
 A. F. Izmaylov, J. Bloino, G. Zheng, J. L. Sonnenberg, M. Hada, 
 M. Ehara, K. Toyota, R. Fukuda, J. Hasegawa, M. Ishida, T. Nakajima, 
 Y. Honda, O. Kitao, H. Nakai, T. Vreven, J. A. Montgomery, Jr., 
 J. E. Peralta, F. Ogliaro, M. Bearpark, J. J. Heyd, E. Brothers, 
 K. N. Kudin, V. N. Staroverov, R. Kobayashi, J. Normand, 
 K. Raghavachari, A. Rendell, J. C. Burant, S. S. Iyengar, J. Tomasi, 
 M. Cossi, N. Rega, J. M. Millam, M. Klene, J. E. Knox, J. B. Cross, 
 V. Bakken, C. Adamo, J. Jaramillo, R. Gomperts, R. E. Stratmann, 
 O. Yazyev, A. J. Austin, R. Cammi, C. Pomelli, J. W. Ochterski, 
 R. L. Martin, K. Morokuma, V. G. Zakrzewski, G. A. Voth, 
 P. Salvador, J. J. Dannenberg, S. Dapprich, A. D. Daniels, 
 O. Farkas, J. B. Foresman, J. V. Ortiz, J. Cioslowski, 
 and D. J. Fox, Gaussian, Inc., Wallingford CT, 2009.
 
 ******************************************
 Gaussian 09:  IA32W-G09RevA.02 11-Jun-2009
                19-Jan-2021 
 ******************************************
 %chk=D:\Documents\rayGit\FQ\quimicaComputacional\p4Pka\reactivos\hidronioM062x.c
 hk
 %mem=1500mb
 %nproc=4
 Will use up to    4 processors via shared memory.
 -------------------------------------
 # opt freq 6-31+G(d,p) scrf=smd m062x
 -------------------------------------
 1/14=-1,18=20,19=15,26=3,38=1/1,3;
 2/9=110,12=2,17=6,18=5,40=1/2;
 3/5=1,6=6,7=111,11=2,16=1,25=1,30=1,70=32201,71=1,72=1,74=-55/1,2,3;
 4//1;
 5/5=2,38=5/2;
 6/7=2,8=2,9=2,10=2,28=1/1;
 7//1,2,3,16;
 1/14=-1,18=20,19=15/3(2);
 2/9=110/2;
 99//99;
 2/9=110/2;
 3/5=1,6=6,7=111,11=2,16=1,25=1,30=1,70=32205,71=1,74=-55/1,2,3;
 4/5=5,16=3/1;
 5/5=2,38=5/2;
 7//1,2,3,16;
 1/14=-1,18=20,19=15/3(-5);
 2/9=110/2;
 6/7=2,8=2,9=2,10=2,19=2,28=1/1;
 99/9=1/99;
 --------------
 Hidronio m062x
 --------------
 Symbolic Z-matrix:
 Charge =  1 Multiplicity = 1
 O                    -0.07484  -1.00109   0. 
 H                     0.84604  -1.06414   0.2638 
 H                    -0.44167  -0.15407   0.2638 
 H                    -0.6289   -1.78507   0. 
 

 GradGradGradGradGradGradGradGradGradGradGradGradGradGradGradGradGradGrad
 Berny optimization.
 Initialization pass.
                           ----------------------------
                           !    Initial Parameters    !
                           ! (Angstroms and Degrees)  !
 --------------------------                            --------------------------
 ! Name  Definition              Value          Derivative Info.                !
 --------------------------------------------------------------------------------
 ! R1    R(1,2)                  0.96           estimate D2E/DX2                !
 ! R2    R(1,3)                  0.96           estimate D2E/DX2                !
 ! R3    R(1,4)                  0.96           estimate D2E/DX2                !
 ! A1    A(2,1,3)              110.4247         estimate D2E/DX2                !
 ! A2    A(2,1,4)              120.0            estimate D2E/DX2                !
 ! A3    A(3,1,4)              120.0            estimate D2E/DX2                !
 ! D1    D(2,1,4,3)            143.0            estimate D2E/DX2                !
 --------------------------------------------------------------------------------
 Trust Radius=3.00D-01 FncErr=1.00D-07 GrdErr=1.00D-06
 Number of steps in this run=  20 maximum allowed number of steps= 100.
 GradGradGradGradGradGradGradGradGradGradGradGradGradGradGradGradGradGrad

                          Input orientation:                          
 ---------------------------------------------------------------------
 Center     Atomic      Atomic             Coordinates (Angstroms)
 Number     Number       Type             X           Y           Z
 ---------------------------------------------------------------------
      1          8           0       -0.074845   -1.001090    0.000000
      2          1           0        0.846043   -1.064135    0.263802
      3          1           0       -0.441673   -0.154068    0.263802
      4          1           0       -0.628904   -1.785066    0.000000
 ---------------------------------------------------------------------
                    Distance matrix (angstroms):
                    1          2          3          4
     1  O    0.000000
     2  H    0.960000   0.000000
     3  H    0.960000   1.576843   0.000000
     4  H    0.960000   1.662769   1.662769   0.000000
 Stoichiometry    H3O(1+)
 Framework group  CS[SG(HO),X(H2)]
 Deg. of freedom     4
 Full point group                 CS      NOp   2
 Largest Abelian subgroup         CS      NOp   2
 Largest concise Abelian subgroup CS      NOp   2
                         Standard orientation:                         
 ---------------------------------------------------------------------
 Center     Atomic      Atomic             Coordinates (Angstroms)
 Number     Number       Type             X           Y           Z
 ---------------------------------------------------------------------
      1          8           0        0.000000    0.047964    0.000000
      2          1           0       -0.480000   -0.215838    0.788421
      3          1           0       -0.480000   -0.215838   -0.788421
      4          1           0        0.960000    0.047964    0.000000
 ---------------------------------------------------------------------
 Rotational constants (GHZ):    380.2995288    332.7876821    187.4818379
 Standard basis: 6-31+G(d,p) (6D, 7F)
 There are    23 symmetry adapted basis functions of A'  symmetry.
 There are    11 symmetry adapted basis functions of A"  symmetry.
 Integral buffers will be    262144 words long.
 Raffenetti 2 integral format.
 Two-electron integral symmetry is turned on.
    34 basis functions,    53 primitive gaussians,    34 cartesian basis functions
     5 alpha electrons        5 beta electrons
       nuclear repulsion energy        14.2015243377 Hartrees.
 NAtoms=    4 NActive=    4 NUniq=    3 SFac= 1.33D+00 NAtFMM=   80 NAOKFM=F Big=F
 ------------------------------------------------------------------------------
 Polarizable Continuum Model (PCM)
 =================================
 Model                : PCM.
 Atomic radii         : SMD-Coulomb.
 Polarization charges : Total charges.
 Charge compensation  : None.
 Solution method      : Matrix inversion.
 Cavity type          : VdW (van der Waals Surface) (Alpha=1.000).
 Cavity algorithm     : GePol (No added spheres)
                        Default sphere list used, NSphG=    4.
                        Lebedev-Laikov grids with approx.  5.0 points / Ang**2.
                        Smoothing algorithm: Karplus/York (Gamma=1.0000).
                        Polarization charges: spherical gaussians, with
                                              point-specific exponents (IZeta= 3).
                        Self-potential: point-specific (ISelfS= 7).
                        Self-field    : sphere-specific E.n sum rule (ISelfD= 2).
 1st derivatives      : Analytical E(r).r(x)/FMM algorithm (CHGder, D1EAlg=3).
                        Cavity 1st derivative terms included.
 Solvent              : Water, Eps=  78.355300 Eps(inf)=   1.777849
 ------------------------------------------------------------------------------
 Spheres list:
 ISph  on   Nord    Re0     Alpha      Xe            Ye            Ze
    1   O      1    1.520   1.000      0.000000      0.047964      0.000000
    2   H      2    1.200   1.000     -0.480000     -0.215838      0.788421
    3   H      3    1.200   1.000     -0.480000     -0.215838     -0.788421
    4   H      4    1.200   1.000      0.960000      0.047964      0.000000
 ------------------------------------------------------------------------------
 ------------------------------------------------------------------------------
 Atomic radii for non-electrostatic terms: SMD-CDS.
 ------------------------------------------------------------------------------
 Nuclear repulsion after PCM non-electrostatic terms =       14.2050016893 Hartrees.
 One-electron integrals computed using PRISM.
 NBasis=    34 RedAO= T  NBF=    23    11
 NBsUse=    34 1.00D-06 NBFU=    23    11
 Harris functional with IExCor= 1009 diagonalized for initial guess.
 ExpMin= 8.45D-02 ExpMax= 5.48D+03 ExpMxC= 8.25D+02 IAcc=2 IRadAn=         0 AccDes= 0.00D+00
 HarFok:  IExCor= 1009 AccDes= 0.00D+00 IRadAn=         0 IDoV= 1
 ScaDFX=  1.000000  1.000000  1.000000  1.000000
 FoFCou: FMM=F IPFlag=           0 FMFlag=      100000 FMFlg1=           0
         NFxFlg=           0 DoJE=T BraDBF=F KetDBF=T FulRan=T
         Omega=  0.000000  0.000000  1.000000  0.000000  0.000000 ICntrl=     500 IOpCl=  0
         NMat0=    1 NMatS0=    1 NMatT0=    0 NMatD0=    1 NMtDS0=    0 NMtDT0=    0
         I1Cent=           4 NGrid=           0.
 Petite list used in FoFCou.
 Initial guess orbital symmetries:
       Occupied  (A') (A') (A') (A") (A')
       Virtual   (A') (A') (A") (A') (A") (A') (A') (A") (A') (A')
                 (A") (A') (A') (A') (A') (A") (A") (A') (A') (A")
                 (A') (A") (A') (A") (A') (A') (A') (A") (A')
 The electronic state of the initial guess is 1-A'.
 Requested convergence on RMS density matrix=1.00D-08 within 128 cycles.
 Requested convergence on MAX density matrix=1.00D-06.
 Requested convergence on             energy=1.00D-06.
 No special actions if energy rises.
 Keep R1 ints in memory in canonical form, NReq=3184263.
 Error on total polarization charges =  0.00852
 SCF Done:  E(RM062X) =  -76.8199922611     A.U. after    8 cycles
             Convg  =    0.4385D-08             -V/T =  2.0094
 SMD-CDS (non-electrostatic) energy             (kcal/mol) =       2.18
 (included in total energy above)

 **********************************************************************

            Population analysis using the SCF density.

 **********************************************************************

 Orbital symmetries:
       Occupied  (A') (A') (A') (A") (A')
       Virtual   (A') (A') (A") (A') (A") (A') (A') (A") (A') (A')
                 (A") (A') (A') (A') (A') (A") (A") (A') (A') (A")
                 (A') (A") (A') (A") (A') (A') (A') (A") (A')
 The electronic state is 1-A'.
 Alpha  occ. eigenvalues --  -19.78091  -1.28517  -0.74963  -0.72721  -0.53356
 Alpha virt. eigenvalues --    0.05114   0.12565   0.13099   0.15673   0.22351
 Alpha virt. eigenvalues --    0.23888   0.26121   0.93120   0.95359   1.02664
 Alpha virt. eigenvalues --    1.03578   1.06017   1.09984   1.22867   1.42050
 Alpha virt. eigenvalues --    1.44755   2.03611   2.08148   2.24001   2.31636
 Alpha virt. eigenvalues --    2.55008   2.57525   2.66002   2.97560   3.06096
 Alpha virt. eigenvalues --    3.32148   3.42698   3.49410   4.08001
          Condensed to atoms (all electrons):
              1          2          3          4
     1  O    7.638484   0.294299   0.294299   0.294452
     2  H    0.294299   0.218306  -0.010396  -0.007902
     3  H    0.294299  -0.010396   0.218306  -0.007902
     4  H    0.294452  -0.007902  -0.007902   0.211203
 Mulliken atomic charges:
              1
     1  O   -0.521535
     2  H    0.505693
     3  H    0.505693
     4  H    0.510149
 Sum of Mulliken atomic charges =   1.00000
 Mulliken charges with hydrogens summed into heavy atoms:
              1
     1  O    1.000000
 Sum of Mulliken charges with hydrogens summed into heavy atoms =   1.00000
 Electronic spatial extent (au):  <R**2>=             18.1746
 Charge=              1.0000 electrons
 Dipole moment (field-independent basis, Debye):
    X=              0.0574    Y=             -1.1425    Z=              0.0000  Tot=              1.1439
 Quadrupole moment (field-independent basis, Debye-Ang):
   XX=             -2.2060   YY=             -6.4246   ZZ=             -2.6565
   XY=              0.8287   XZ=              0.0000   YZ=              0.0000
 Traceless Quadrupole moment (field-independent basis, Debye-Ang):
   XX=              1.5563   YY=             -2.6622   ZZ=              1.1059
   XY=              0.8287   XZ=              0.0000   YZ=              0.0000
 Octapole moment (field-independent basis, Debye-Ang**2):
  XXX=              1.9693  YYY=             -0.6391  ZZZ=              0.0000  XYY=             -0.1091
  XXY=             -0.3356  XXZ=              0.0000  XZZ=             -1.7104  YZZ=             -0.9478
  YYZ=              0.0000  XYZ=              0.0000
 Hexadecapole moment (field-independent basis, Debye-Ang**3):
 XXXX=             -2.7616 YYYY=             -5.2337 ZZZZ=             -3.2796 XXXY=              0.2177
 XXXZ=              0.0000 YYYX=             -0.0432 YYYZ=              0.0000 ZZZX=              0.0000
 ZZZY=              0.0000 XXYY=             -1.7830 XXZZ=             -1.0140 YYZZ=             -1.6448
 XXYZ=              0.0000 YYXZ=              0.0000 ZZXY=              0.4035
 N-N= 1.420500168925D+01 E-N=-2.049784124146D+02  KE= 7.610696677294D+01
 Symmetry A'   KE= 7.216589741547D+01
 Symmetry A"   KE= 3.941069357467D+00
 D1PCM: PCM CHGder 1st derivatives, ID1Alg=3 FixD1E=F DoIter=F DoCFld=F I1PDM=0.
 Calling FoFJK, ICntrl=      2127 FMM=F ISym2X=1 I1Cent= 0 IOpClX= 0 NMat=1 NMatS=1 NMatT=0.
 ***** Axes restored to original set *****
 -------------------------------------------------------------------
 Center     Atomic                   Forces (Hartrees/Bohr)
 Number     Number              X              Y              Z
 -------------------------------------------------------------------
      1        8           0.009365605    0.013252025   -0.017246127
      2        1           0.012173423   -0.011036911    0.005411278
      3        1          -0.014467423    0.007790976    0.005411278
      4        1          -0.007071605   -0.010006090    0.006423571
 -------------------------------------------------------------------
 Cartesian Forces:  Max     0.017246127 RMS     0.010609455

 GradGradGradGradGradGradGradGradGradGradGradGradGradGradGradGradGradGrad
 Berny optimization.
 Internal  Forces:  Max     0.013885773 RMS     0.011110767
 Search for a local minimum.
 Step number   1 out of a maximum of   20
 All quantities printed in internal units (Hartrees-Bohrs-Radians)
 Mixed Optimization -- RFO/linear search
 Second derivative matrix not updated -- first step.
 The second derivative matrix:
                          R1        R2        R3        A1        A2
           R1           0.55473
           R2           0.00000   0.55473
           R3           0.00000   0.00000   0.55473
           A1           0.00000   0.00000   0.00000   0.16000
           A2           0.00000   0.00000   0.00000   0.00000   0.16000
           A3           0.00000   0.00000   0.00000   0.00000   0.00000
           D1           0.00000   0.00000   0.00000   0.00000   0.00000
                          A3        D1
           A3           0.16000
           D1           0.00000   0.01558
     Eigenvalues ---    0.02840   0.16000   0.16000   0.55473   0.55473
     Eigenvalues ---    0.554731000.00000
 RFO step:  Lambda=-3.82958730D-03 EMin= 2.83950831D-02
 Linear search not attempted -- first point.
 Iteration  1 RMS(Cart)=  0.04921846 RMS(Int)=  0.00800018
 Iteration  2 RMS(Cart)=  0.00447080 RMS(Int)=  0.00570113
 Iteration  3 RMS(Cart)=  0.00004012 RMS(Int)=  0.00570085
 Iteration  4 RMS(Cart)=  0.00000048 RMS(Int)=  0.00570085
 ClnCor:  largest displacement from symmetrization is 5.07D-14 for atom     3.
 Variable       Old X    -DE/DX   Delta X   Delta X   Delta X     New X
                                 (Linear)    (Quad)   (Total)
    R1        1.81414   0.01389   0.00000   0.02486   0.02486   1.83900
    R2        1.81414   0.01389   0.00000   0.02486   0.02486   1.83900
    R3        1.81414   0.01226   0.00000   0.02195   0.02195   1.83609
    A1        1.92728   0.01191   0.00000   0.04431   0.03458   1.96185
    A2        2.09440  -0.00880   0.00000  -0.07727  -0.08411   2.01029
    A3        2.09440  -0.00880   0.00000  -0.07727  -0.08411   2.01029
    D1        2.49582  -0.00563   0.00000  -0.17467  -0.16840   2.32742
         Item               Value     Threshold  Converged?
 Maximum Force            0.013886     0.000450     NO 
 RMS     Force            0.011111     0.000300     NO 
 Maximum Displacement     0.084067     0.001800     NO 
 RMS     Displacement     0.050787     0.001200     NO 
 Predicted change in Energy=-1.873849D-03
 GradGradGradGradGradGradGradGradGradGradGradGradGradGradGradGradGradGrad

                          Input orientation:                          
 ---------------------------------------------------------------------
 Center     Atomic      Atomic             Coordinates (Angstroms)
 Number     Number       Type             X           Y           Z
 ---------------------------------------------------------------------
      1          8           0       -0.061056   -0.981580   -0.044487
      2          1           0        0.851516   -1.091534    0.275126
      3          1           0       -0.469327   -0.158054    0.275126
      4          1           0       -0.620511   -1.773190    0.021839
 ---------------------------------------------------------------------
                    Distance matrix (angstroms):
                    1          2          3          4
     1  O    0.000000
     2  H    0.973155   0.000000
     3  H    0.973155   1.617409   0.000000
     4  H    0.971615   1.641851   1.641851   0.000000
 Stoichiometry    H3O(1+)
 Framework group  CS[SG(HO),X(H2)]
 Deg. of freedom     4
 Full point group                 CS      NOp   2
 Largest Abelian subgroup         CS      NOp   2
 Largest concise Abelian subgroup CS      NOp   2
                         Standard orientation:                         
 ---------------------------------------------------------------------
 Center     Atomic      Atomic             Coordinates (Angstroms)
 Number     Number       Type             X           Y           Z
 ---------------------------------------------------------------------
      1          8           0        0.000000    0.064727    0.000000
      2          1           0       -0.475838   -0.193356    0.808704
      3          1           0       -0.475838   -0.193356   -0.808704
      4          1           0        0.951676   -0.131101    0.000000
 ---------------------------------------------------------------------
 Rotational constants (GHZ):    345.8743355    333.5854796    187.8516483
 Standard basis: 6-31+G(d,p) (6D, 7F)
 There are    23 symmetry adapted basis functions of A'  symmetry.
 There are    11 symmetry adapted basis functions of A"  symmetry.
 Integral buffers will be    262144 words long.
 Raffenetti 2 integral format.
 Two-electron integral symmetry is turned on.
    34 basis functions,    53 primitive gaussians,    34 cartesian basis functions
     5 alpha electrons        5 beta electrons
       nuclear repulsion energy        14.0292770476 Hartrees.
 NAtoms=    4 NActive=    4 NUniq=    3 SFac= 1.33D+00 NAtFMM=   80 NAOKFM=F Big=F
 ------------------------------------------------------------------------------
 Polarizable Continuum Model (PCM)
 =================================
 Model                : PCM.
 Atomic radii         : SMD-Coulomb.
 Polarization charges : Total charges.
 Charge compensation  : None.
 Solution method      : Matrix inversion.
 Cavity type          : VdW (van der Waals Surface) (Alpha=1.000).
 Cavity algorithm     : GePol (No added spheres)
                        Default sphere list used, NSphG=    4.
                        Lebedev-Laikov grids with approx.  5.0 points / Ang**2.
                        Smoothing algorithm: Karplus/York (Gamma=1.0000).
                        Polarization charges: spherical gaussians, with
                                              point-specific exponents (IZeta= 3).
                        Self-potential: point-specific (ISelfS= 7).
                        Self-field    : sphere-specific E.n sum rule (ISelfD= 2).
 1st derivatives      : Analytical E(r).r(x)/FMM algorithm (CHGder, D1EAlg=3).
                        Cavity 1st derivative terms included.
 Solvent              : Water, Eps=  78.355300 Eps(inf)=   1.777849
 ------------------------------------------------------------------------------
 Spheres list:
 ISph  on   Nord    Re0     Alpha      Xe            Ye            Ze
    1   O      1    1.520   1.000      0.000000      0.064727      0.000000
    2   H      2    1.200   1.000     -0.475838     -0.193356      0.808704
    3   H      3    1.200   1.000     -0.475838     -0.193356     -0.808704
    4   H      4    1.200   1.000      0.951676     -0.131101      0.000000
 ------------------------------------------------------------------------------
 ------------------------------------------------------------------------------
 Atomic radii for non-electrostatic terms: SMD-CDS.
 ------------------------------------------------------------------------------
 Nuclear repulsion after PCM non-electrostatic terms =       14.0327865763 Hartrees.
 One-electron integrals computed using PRISM.
 NBasis=    34 RedAO= T  NBF=    23    11
 NBsUse=    34 1.00D-06 NBFU=    23    11
 Initial guess read from the read-write file.
 B after Tr=     0.000000    0.000000    0.000000
         Rot=    1.000000    0.000000    0.000000    0.000000 Ang=   0.00 deg.
 Initial guess orbital symmetries:
       Occupied  (A') (A') (A') (A") (A')
       Virtual   (A') (A') (A") (A') (A") (A') (A') (A") (A') (A')
                 (A") (A') (A') (A') (A') (A") (A") (A') (A') (A")
                 (A') (A") (A') (A") (A') (A') (A') (A") (A')
 Harris functional with IExCor= 1009 diagonalized for initial guess.
 ExpMin= 8.45D-02 ExpMax= 5.48D+03 ExpMxC= 8.25D+02 IAcc=2 IRadAn=         0 AccDes= 0.00D+00
 HarFok:  IExCor= 1009 AccDes= 0.00D+00 IRadAn=         0 IDoV= 1
 ScaDFX=  1.000000  1.000000  1.000000  1.000000
 FoFCou: FMM=F IPFlag=           0 FMFlag=      100000 FMFlg1=           0
         NFxFlg=           0 DoJE=T BraDBF=F KetDBF=T FulRan=T
         Omega=  0.000000  0.000000  1.000000  0.000000  0.000000 ICntrl=     500 IOpCl=  0
         NMat0=    1 NMatS0=    1 NMatT0=    0 NMatD0=    1 NMtDS0=    0 NMtDT0=    0
         I1Cent=           4 NGrid=           0.
 Petite list used in FoFCou.
 Requested convergence on RMS density matrix=1.00D-08 within 128 cycles.
 Requested convergence on MAX density matrix=1.00D-06.
 Requested convergence on             energy=1.00D-06.
 No special actions if energy rises.
 Keep R1 ints in memory in canonical form, NReq=3182093.
 Error on total polarization charges =  0.00869
 SCF Done:  E(RM062X) =  -76.8229811909     A.U. after    9 cycles
             Convg  =    0.6663D-08             -V/T =  2.0102
 SMD-CDS (non-electrostatic) energy             (kcal/mol) =       2.20
 (included in total energy above)
 D1PCM: PCM CHGder 1st derivatives, ID1Alg=3 FixD1E=F DoIter=F DoCFld=F I1PDM=0.
 Calling FoFJK, ICntrl=      2127 FMM=F ISym2X=1 I1Cent= 0 IOpClX= 0 NMat=1 NMatS=1 NMatT=0.
 ***** Axes restored to original set *****
 -------------------------------------------------------------------
 Center     Atomic                   Forces (Hartrees/Bohr)
 Number     Number              X              Y              Z
 -------------------------------------------------------------------
      1        8           0.004176193    0.005909176   -0.011921722
      2        1           0.000398131   -0.003272376    0.003487777
      3        1          -0.003217577   -0.000717047    0.003487777
      4        1          -0.001356747   -0.001919752    0.004946168
 -------------------------------------------------------------------
 Cartesian Forces:  Max     0.011921722 RMS     0.004748160

 GradGradGradGradGradGradGradGradGradGradGradGradGradGradGradGradGradGrad
 Berny optimization.
 Using GEDIIS/GDIIS optimizer.
 Internal  Forces:  Max     0.005660300 RMS     0.003844975
 Search for a local minimum.
 Step number   2 out of a maximum of   20
 All quantities printed in internal units (Hartrees-Bohrs-Radians)
 Mixed Optimization -- RFO/linear search
 Update second derivatives using D2CorX and points    1    2
 DE= -2.99D-03 DEPred=-1.87D-03 R= 1.60D+00
 SS=  1.41D+00  RLast= 2.13D-01 DXNew= 5.0454D-01 6.3936D-01
 Trust test= 1.60D+00 RLast= 2.13D-01 DXMaxT set to 5.05D-01
 The second derivative matrix:
                          R1        R2        R3        A1        A2
           R1           0.58677
           R2           0.03203   0.58677
           R3           0.02142   0.02142   0.56817
           A1           0.03951   0.03951   0.02989   0.19527
           A2           0.02143   0.02143   0.02118  -0.00017   0.12176
           A3           0.02143   0.02143   0.02118  -0.00017  -0.03824
           D1           0.00961   0.00961   0.00847   0.00393  -0.00924
                          A3        D1
           A3           0.12176
           D1          -0.00924   0.01379
 Use linear search instead of GDIIS.
     Eigenvalues ---    0.01755   0.14821   0.16000   0.55409   0.55473
     Eigenvalues ---    0.637031000.00000
 RFO step:  Lambda=-6.98307132D-04 EMin= 1.75492711D-02
 Quartic linear search produced a step of  0.77125.
 Iteration  1 RMS(Cart)=  0.05892628 RMS(Int)=  0.03174157
 Iteration  2 RMS(Cart)=  0.01773077 RMS(Int)=  0.01780225
 Iteration  3 RMS(Cart)=  0.00081741 RMS(Int)=  0.01777594
 Iteration  4 RMS(Cart)=  0.00003623 RMS(Int)=  0.01777589
 Iteration  5 RMS(Cart)=  0.00000160 RMS(Int)=  0.01777589
 Iteration  6 RMS(Cart)=  0.00000007 RMS(Int)=  0.01777589
 ClnCor:  largest displacement from symmetrization is 2.28D-09 for atom     3.
 Variable       Old X    -DE/DX   Delta X   Delta X   Delta X     New X
                                 (Linear)    (Quad)   (Total)
    R1        1.83900   0.00189   0.01917  -0.00556   0.01361   1.85261
    R2        1.83900   0.00189   0.01917  -0.00556   0.01361   1.85261
    R3        1.83609   0.00268   0.01693  -0.00178   0.01515   1.85123
    A1        1.96185   0.00317   0.02667  -0.02959  -0.03501   1.92684
    A2        2.01029  -0.00485  -0.06487  -0.04126  -0.12133   1.88896
    A3        2.01029  -0.00485  -0.06487  -0.04126  -0.12133   1.88896
    D1        2.32742  -0.00566  -0.12988  -0.13592  -0.23896   2.08846
         Item               Value     Threshold  Converged?
 Maximum Force            0.005660     0.000450     NO 
 RMS     Force            0.003845     0.000300     NO 
 Maximum Displacement     0.132059     0.001800     NO 
 RMS     Displacement     0.070897     0.001200     NO 
 Predicted change in Energy=-1.449921D-03
 GradGradGradGradGradGradGradGradGradGradGradGradGradGradGradGradGradGrad

                          Input orientation:                          
 ---------------------------------------------------------------------
 Center     Atomic      Atomic             Coordinates (Angstroms)
 Number     Number       Type             X           Y           Z
 ---------------------------------------------------------------------
      1          8           0       -0.046073   -0.960379   -0.114369
      2          1           0        0.832257   -1.112401    0.293709
      3          1           0       -0.482568   -0.183175    0.293709
      4          1           0       -0.602994   -1.748403    0.054556
 ---------------------------------------------------------------------
                    Distance matrix (angstroms):
                    1          2          3          4
     1  O    0.000000
     2  H    0.980359   0.000000
     3  H    0.980359   1.610040   0.000000
     4  H    0.979631   1.587966   1.587966   0.000000
 Stoichiometry    H3O(1+)
 Framework group  CS[SG(HO),X(H2)]
 Deg. of freedom     4
 Full point group                 CS      NOp   2
 Largest Abelian subgroup         CS      NOp   2
 Largest concise Abelian subgroup CS      NOp   2
                         Standard orientation:                         
 ---------------------------------------------------------------------
 Center     Atomic      Atomic             Coordinates (Angstroms)
 Number     Number       Type             X           Y           Z
 ---------------------------------------------------------------------
      1          8           0        0.000000    0.091369    0.000000
      2          1           0       -0.456130   -0.232654    0.805020
      3          1           0       -0.456130   -0.232654   -0.805020
      4          1           0        0.912260   -0.265645    0.000000
 ---------------------------------------------------------------------
 Rotational constants (GHZ):    327.2694860    317.5600458    197.0059803
 Standard basis: 6-31+G(d,p) (6D, 7F)
 There are    23 symmetry adapted basis functions of A'  symmetry.
 There are    11 symmetry adapted basis functions of A"  symmetry.
 Integral buffers will be    262144 words long.
 Raffenetti 2 integral format.
 Two-electron integral symmetry is turned on.
    34 basis functions,    53 primitive gaussians,    34 cartesian basis functions
     5 alpha electrons        5 beta electrons
       nuclear repulsion energy        13.9530655184 Hartrees.
 NAtoms=    4 NActive=    4 NUniq=    3 SFac= 1.33D+00 NAtFMM=   80 NAOKFM=F Big=F
 ------------------------------------------------------------------------------
 Polarizable Continuum Model (PCM)
 =================================
 Model                : PCM.
 Atomic radii         : SMD-Coulomb.
 Polarization charges : Total charges.
 Charge compensation  : None.
 Solution method      : Matrix inversion.
 Cavity type          : VdW (van der Waals Surface) (Alpha=1.000).
 Cavity algorithm     : GePol (No added spheres)
                        Default sphere list used, NSphG=    4.
                        Lebedev-Laikov grids with approx.  5.0 points / Ang**2.
                        Smoothing algorithm: Karplus/York (Gamma=1.0000).
                        Polarization charges: spherical gaussians, with
                                              point-specific exponents (IZeta= 3).
                        Self-potential: point-specific (ISelfS= 7).
                        Self-field    : sphere-specific E.n sum rule (ISelfD= 2).
 1st derivatives      : Analytical E(r).r(x)/FMM algorithm (CHGder, D1EAlg=3).
                        Cavity 1st derivative terms included.
 Solvent              : Water, Eps=  78.355300 Eps(inf)=   1.777849
 ------------------------------------------------------------------------------
 Spheres list:
 ISph  on   Nord    Re0     Alpha      Xe            Ye            Ze
    1   O      1    1.520   1.000      0.000000      0.091369      0.000000
    2   H      2    1.200   1.000     -0.456130     -0.232654      0.805020
    3   H      3    1.200   1.000     -0.456130     -0.232654     -0.805020
    4   H      4    1.200   1.000      0.912260     -0.265645      0.000000
 ------------------------------------------------------------------------------
 ------------------------------------------------------------------------------
 Atomic radii for non-electrostatic terms: SMD-CDS.
 ------------------------------------------------------------------------------
 Nuclear repulsion after PCM non-electrostatic terms =       13.9565654887 Hartrees.
 One-electron integrals computed using PRISM.
 NBasis=    34 RedAO= T  NBF=    23    11
 NBsUse=    34 1.00D-06 NBFU=    23    11
 Initial guess read from the read-write file.
 B after Tr=     0.000000    0.000000    0.000000
         Rot=    1.000000    0.000000    0.000000    0.000000 Ang=   0.00 deg.
 Initial guess orbital symmetries:
       Occupied  (A') (A') (A') (A") (A')
       Virtual   (A') (A') (A") (A') (A") (A') (A') (A") (A') (A')
                 (A") (A') (A') (A') (A') (A") (A') (A") (A') (A")
                 (A") (A') (A') (A") (A') (A') (A') (A") (A')
 Harris functional with IExCor= 1009 diagonalized for initial guess.
 ExpMin= 8.45D-02 ExpMax= 5.48D+03 ExpMxC= 8.25D+02 IAcc=2 IRadAn=         0 AccDes= 0.00D+00
 HarFok:  IExCor= 1009 AccDes= 0.00D+00 IRadAn=         0 IDoV= 1
 ScaDFX=  1.000000  1.000000  1.000000  1.000000
 FoFCou: FMM=F IPFlag=           0 FMFlag=      100000 FMFlg1=           0
         NFxFlg=           0 DoJE=T BraDBF=F KetDBF=T FulRan=T
         Omega=  0.000000  0.000000  1.000000  0.000000  0.000000 ICntrl=     500 IOpCl=  0
         NMat0=    1 NMatS0=    1 NMatT0=    0 NMatD0=    1 NMtDS0=    0 NMtDT0=    0
         I1Cent=           4 NGrid=           0.
 Petite list used in FoFCou.
 Requested convergence on RMS density matrix=1.00D-08 within 128 cycles.
 Requested convergence on MAX density matrix=1.00D-06.
 Requested convergence on             energy=1.00D-06.
 No special actions if energy rises.
 Keep R1 ints in memory in canonical form, NReq=3174988.
 Error on total polarization charges =  0.00879
 SCF Done:  E(RM062X) =  -76.8243414865     A.U. after    9 cycles
             Convg  =    0.5127D-08             -V/T =  2.0104
 SMD-CDS (non-electrostatic) energy             (kcal/mol) =       2.20
 (included in total energy above)
 D1PCM: PCM CHGder 1st derivatives, ID1Alg=3 FixD1E=F DoIter=F DoCFld=F I1PDM=0.
 Calling FoFJK, ICntrl=      2127 FMM=F ISym2X=1 I1Cent= 0 IOpClX= 0 NMat=1 NMatS=1 NMatT=0.
 ***** Axes restored to original set *****
 -------------------------------------------------------------------
 Center     Atomic                   Forces (Hartrees/Bohr)
 Number     Number              X              Y              Z
 -------------------------------------------------------------------
      1        8          -0.002133671   -0.003019075    0.000820648
      2        1          -0.001124503    0.002778034   -0.000168909
      3        1           0.002994057   -0.000132677   -0.000168909
      4        1           0.000264118    0.000373718   -0.000482830
 -------------------------------------------------------------------
 Cartesian Forces:  Max     0.003019075 RMS     0.001653390

 GradGradGradGradGradGradGradGradGradGradGradGradGradGradGradGradGradGrad
 Berny optimization.
 Using GEDIIS/GDIIS optimizer.
 Internal  Forces:  Max     0.002740975 RMS     0.001836905
 Search for a local minimum.
 Step number   3 out of a maximum of   20
 All quantities printed in internal units (Hartrees-Bohrs-Radians)
 Mixed Optimization -- RFO/linear search
 Update second derivatives using D2CorX and points    1    2    3
 DE= -1.36D-03 DEPred=-1.45D-03 R= 9.38D-01
 SS=  1.41D+00  RLast= 2.97D-01 DXNew= 8.4853D-01 8.9182D-01
 Trust test= 9.38D-01 RLast= 2.97D-01 DXMaxT set to 8.49D-01
 The second derivative matrix:
                          R1        R2        R3        A1        A2
           R1           0.59536
           R2           0.04062   0.59536
           R3           0.02807   0.02807   0.57305
           A1           0.06857   0.06857   0.05571   0.23207
           A2           0.01664   0.01664   0.01886  -0.03137   0.11652
           A3           0.01664   0.01664   0.01886  -0.03137  -0.04348
           D1          -0.00277  -0.00277  -0.00202  -0.01554   0.00082
                          A3        D1
           A3           0.11652
           D1           0.00082   0.02221
 Use linear search instead of GDIIS.
     Eigenvalues ---    0.03054   0.16000   0.17392   0.55397   0.55473
     Eigenvalues ---    0.663591000.00000
 RFO step:  Lambda=-7.35764645D-05 EMin= 3.05436983D-02
 Quartic linear search produced a step of -0.08259.
 Iteration  1 RMS(Cart)=  0.00912092 RMS(Int)=  0.00099108
 Iteration  2 RMS(Cart)=  0.00007013 RMS(Int)=  0.00098844
 Iteration  3 RMS(Cart)=  0.00000000 RMS(Int)=  0.00098844
 ClnCor:  largest displacement from symmetrization is 1.24D-11 for atom     3.
 Variable       Old X    -DE/DX   Delta X   Delta X   Delta X     New X
                                 (Linear)    (Quad)   (Total)
    R1        1.85261  -0.00142  -0.00112  -0.00026  -0.00139   1.85122
    R2        1.85261  -0.00142  -0.00112  -0.00026  -0.00139   1.85122
    R3        1.85123  -0.00072  -0.00125   0.00061  -0.00064   1.85059
    A1        1.92684  -0.00274   0.00289  -0.01674  -0.01207   1.91477
    A2        1.88896   0.00237   0.01002   0.00409   0.01499   1.90394
    A3        1.88896   0.00237   0.01002   0.00409   0.01499   1.90394
    D1        2.08846  -0.00059   0.01974  -0.01538   0.00289   2.09135
         Item               Value     Threshold  Converged?
 Maximum Force            0.002741     0.000450     NO 
 RMS     Force            0.001837     0.000300     NO 
 Maximum Displacement     0.012375     0.001800     NO 
 RMS     Displacement     0.009134     0.001200     NO 
 Predicted change in Energy=-5.902698D-05
 GradGradGradGradGradGradGradGradGradGradGradGradGradGradGradGradGradGrad

                          Input orientation:                          
 ---------------------------------------------------------------------
 Center     Atomic      Atomic             Coordinates (Angstroms)
 Number     Number       Type             X           Y           Z
 ---------------------------------------------------------------------
      1          8           0       -0.048835   -0.964288   -0.110959
      2          1           0        0.831997   -1.105853    0.293710
      3          1           0       -0.476308   -0.181234    0.293710
      4          1           0       -0.606231   -1.752984    0.051143
 ---------------------------------------------------------------------
                    Distance matrix (angstroms):
                    1          2          3          4
     1  O    0.000000
     2  H    0.979624   0.000000
     3  H    0.979624   1.602056   0.000000
     4  H    0.979290   1.595656   1.595656   0.000000
 Stoichiometry    H3O(1+)
 Framework group  CS[SG(HO),X(H2)]
 Deg. of freedom     4
 Full point group                 CS      NOp   2
 Largest Abelian subgroup         CS      NOp   2
 Largest concise Abelian subgroup CS      NOp   2
                         Standard orientation:                         
 ---------------------------------------------------------------------
 Center     Atomic      Atomic             Coordinates (Angstroms)
 Number     Number       Type             X           Y           Z
 ---------------------------------------------------------------------
      1          8           0        0.000000    0.089820    0.000000
      2          1           0       -0.459998   -0.236400    0.801028
      3          1           0       -0.459998   -0.236400   -0.801028
      4          1           0        0.919996   -0.245763    0.000000
 ---------------------------------------------------------------------
 Rotational constants (GHZ):    324.9208563    322.0769022    196.4214743
 Standard basis: 6-31+G(d,p) (6D, 7F)
 There are    23 symmetry adapted basis functions of A'  symmetry.
 There are    11 symmetry adapted basis functions of A"  symmetry.
 Integral buffers will be    262144 words long.
 Raffenetti 2 integral format.
 Two-electron integral symmetry is turned on.
    34 basis functions,    53 primitive gaussians,    34 cartesian basis functions
     5 alpha electrons        5 beta electrons
       nuclear repulsion energy        13.9594715905 Hartrees.
 NAtoms=    4 NActive=    4 NUniq=    3 SFac= 1.33D+00 NAtFMM=   80 NAOKFM=F Big=F
 ------------------------------------------------------------------------------
 Polarizable Continuum Model (PCM)
 =================================
 Model                : PCM.
 Atomic radii         : SMD-Coulomb.
 Polarization charges : Total charges.
 Charge compensation  : None.
 Solution method      : Matrix inversion.
 Cavity type          : VdW (van der Waals Surface) (Alpha=1.000).
 Cavity algorithm     : GePol (No added spheres)
                        Default sphere list used, NSphG=    4.
                        Lebedev-Laikov grids with approx.  5.0 points / Ang**2.
                        Smoothing algorithm: Karplus/York (Gamma=1.0000).
                        Polarization charges: spherical gaussians, with
                                              point-specific exponents (IZeta= 3).
                        Self-potential: point-specific (ISelfS= 7).
                        Self-field    : sphere-specific E.n sum rule (ISelfD= 2).
 1st derivatives      : Analytical E(r).r(x)/FMM algorithm (CHGder, D1EAlg=3).
                        Cavity 1st derivative terms included.
 Solvent              : Water, Eps=  78.355300 Eps(inf)=   1.777849
 ------------------------------------------------------------------------------
 Spheres list:
 ISph  on   Nord    Re0     Alpha      Xe            Ye            Ze
    1   O      1    1.520   1.000      0.000000      0.089820      0.000000
    2   H      2    1.200   1.000     -0.459998     -0.236400      0.801028
    3   H      3    1.200   1.000     -0.459998     -0.236400     -0.801028
    4   H      4    1.200   1.000      0.919996     -0.245763      0.000000
 ------------------------------------------------------------------------------
 ------------------------------------------------------------------------------
 Atomic radii for non-electrostatic terms: SMD-CDS.
 ------------------------------------------------------------------------------
 Nuclear repulsion after PCM non-electrostatic terms =       13.9629738719 Hartrees.
 One-electron integrals computed using PRISM.
 NBasis=    34 RedAO= T  NBF=    23    11
 NBsUse=    34 1.00D-06 NBFU=    23    11
 Initial guess read from the read-write file.
 B after Tr=     0.000000    0.000000    0.000000
         Rot=    1.000000    0.000000    0.000000    0.000000 Ang=   0.00 deg.
 Initial guess orbital symmetries:
       Occupied  (A') (A') (A") (A') (A')
       Virtual   (A') (A") (A') (A') (A') (A") (A') (A') (A") (A')
                 (A") (A') (A') (A') (A") (A') (A') (A") (A") (A')
                 (A') (A") (A') (A') (A") (A') (A") (A') (A')
 Requested convergence on RMS density matrix=1.00D-08 within 128 cycles.
 Requested convergence on MAX density matrix=1.00D-06.
 Requested convergence on             energy=1.00D-06.
 No special actions if energy rises.
 Keep R1 ints in memory in canonical form, NReq=3174988.
 Error on total polarization charges =  0.00871
 SCF Done:  E(RM062X) =  -76.8243785440     A.U. after    8 cycles
             Convg  =    0.6668D-09             -V/T =  2.0104
 SMD-CDS (non-electrostatic) energy             (kcal/mol) =       2.20
 (included in total energy above)
 D1PCM: PCM CHGder 1st derivatives, ID1Alg=3 FixD1E=F DoIter=F DoCFld=F I1PDM=0.
 Calling FoFJK, ICntrl=      2127 FMM=F ISym2X=1 I1Cent= 0 IOpClX= 0 NMat=1 NMatS=1 NMatT=0.
 ***** Axes restored to original set *****
 -------------------------------------------------------------------
 Center     Atomic                   Forces (Hartrees/Bohr)
 Number     Number              X              Y              Z
 -------------------------------------------------------------------
      1        8          -0.000883689   -0.001250392    0.000029904
      2        1          -0.000811501    0.001034556   -0.000205969
      3        1           0.001246100   -0.000419612   -0.000205969
      4        1           0.000449091    0.000635448    0.000382035
 -------------------------------------------------------------------
 Cartesian Forces:  Max     0.001250392 RMS     0.000743821

 GradGradGradGradGradGradGradGradGradGradGradGradGradGradGradGradGradGrad
 Berny optimization.
 Using GEDIIS/GDIIS optimizer.
 Internal  Forces:  Max     0.000977037 RMS     0.000770541
 Search for a local minimum.
 Step number   4 out of a maximum of   20
 All quantities printed in internal units (Hartrees-Bohrs-Radians)
 Mixed Optimization -- En-DIIS/RFO-DIIS
 Update second derivatives using D2CorX and points    1    2    3    4
 DE= -3.71D-05 DEPred=-5.90D-05 R= 6.28D-01
 SS=  1.41D+00  RLast= 2.47D-02 DXNew= 1.4270D+00 7.3954D-02
 Trust test= 6.28D-01 RLast= 2.47D-02 DXMaxT set to 8.49D-01
 The second derivative matrix:
                          R1        R2        R3        A1        A2
           R1           0.58364
           R2           0.02891   0.58364
           R3           0.02131   0.02131   0.57265
           A1           0.02261   0.02261   0.02458   0.09146
           A2           0.01984   0.01984   0.02916  -0.01914   0.13579
           A3           0.01984   0.01984   0.02916  -0.01914  -0.02421
           D1           0.00286   0.00286  -0.00004  -0.00264  -0.00529
                          A3        D1
           A3           0.13579
           D1          -0.00529   0.02302
 Use linear search instead of GDIIS.
     Eigenvalues ---    0.02973   0.12949   0.16000   0.55473   0.55680
     Eigenvalues ---    0.632191000.00000
 RFO step:  Lambda=-2.38013992D-05 EMin= 2.97336970D-02
 Skip linear search -- no minimum in search direction.
 Iteration  1 RMS(Cart)=  0.00493341 RMS(Int)=  0.00002357
 Iteration  2 RMS(Cart)=  0.00002019 RMS(Int)=  0.00000127
 Iteration  3 RMS(Cart)=  0.00000000 RMS(Int)=  0.00000127
 ClnCor:  largest displacement from symmetrization is 3.38D-12 for atom     3.
 Variable       Old X    -DE/DX   Delta X   Delta X   Delta X     New X
                                 (Linear)    (Quad)   (Total)
    R1        1.85122  -0.00088   0.00000  -0.00098  -0.00098   1.85024
    R2        1.85122  -0.00088   0.00000  -0.00098  -0.00098   1.85024
    R3        1.85059  -0.00087   0.00000  -0.00107  -0.00107   1.84952
    A1        1.91477  -0.00098   0.00000  -0.01262  -0.01263   1.90214
    A2        1.90394   0.00056   0.00000   0.00159   0.00159   1.90554
    A3        1.90394   0.00056   0.00000   0.00159   0.00159   1.90554
    D1        2.09135  -0.00052   0.00000  -0.01343  -0.01343   2.07792
         Item               Value     Threshold  Converged?
 Maximum Force            0.000977     0.000450     NO 
 RMS     Force            0.000771     0.000300     NO 
 Maximum Displacement     0.007613     0.001800     NO 
 RMS     Displacement     0.004945     0.001200     NO 
 Predicted change in Energy=-1.189935D-05
 GradGradGradGradGradGradGradGradGradGradGradGradGradGradGradGradGradGrad

                          Input orientation:                          
 ---------------------------------------------------------------------
 Center     Atomic      Atomic             Coordinates (Angstroms)
 Number     Number       Type             X           Y           Z
 ---------------------------------------------------------------------
      1          8           0       -0.049881   -0.965768   -0.113337
      2          1           0        0.829497   -1.102464    0.294900
      3          1           0       -0.472280   -0.182459    0.294900
      4          1           0       -0.606714   -1.753668    0.051142
 ---------------------------------------------------------------------
                    Distance matrix (angstroms):
                    1          2          3          4
     1  O    0.000000
     2  H    0.979107   0.000000
     3  H    0.979107   1.594062   0.000000
     4  H    0.978726   1.595678   1.595678   0.000000
 Stoichiometry    H3O(1+)
 Framework group  CS[SG(HO),X(H2)]
 Deg. of freedom     4
 Full point group                 CS      NOp   2
 Largest Abelian subgroup         CS      NOp   2
 Largest concise Abelian subgroup CS      NOp   2
                         Standard orientation:                         
 ---------------------------------------------------------------------
 Center     Atomic      Atomic             Coordinates (Angstroms)
 Number     Number       Type             X           Y           Z
 ---------------------------------------------------------------------
      1          8           0        0.000000    0.090554    0.000000
      2          1           0       -0.460786   -0.242715    0.797031
      3          1           0       -0.460786   -0.242715   -0.797031
      4          1           0        0.921573   -0.239002    0.000000
 ---------------------------------------------------------------------
 Rotational constants (GHZ):    323.7972647    323.0797173    197.0761627
 Standard basis: 6-31+G(d,p) (6D, 7F)
 There are    23 symmetry adapted basis functions of A'  symmetry.
 There are    11 symmetry adapted basis functions of A"  symmetry.
 Integral buffers will be    262144 words long.
 Raffenetti 2 integral format.
 Two-electron integral symmetry is turned on.
    34 basis functions,    53 primitive gaussians,    34 cartesian basis functions
     5 alpha electrons        5 beta electrons
       nuclear repulsion energy        13.9681756604 Hartrees.
 NAtoms=    4 NActive=    4 NUniq=    3 SFac= 1.33D+00 NAtFMM=   80 NAOKFM=F Big=F
 ------------------------------------------------------------------------------
 Polarizable Continuum Model (PCM)
 =================================
 Model                : PCM.
 Atomic radii         : SMD-Coulomb.
 Polarization charges : Total charges.
 Charge compensation  : None.
 Solution method      : Matrix inversion.
 Cavity type          : VdW (van der Waals Surface) (Alpha=1.000).
 Cavity algorithm     : GePol (No added spheres)
                        Default sphere list used, NSphG=    4.
                        Lebedev-Laikov grids with approx.  5.0 points / Ang**2.
                        Smoothing algorithm: Karplus/York (Gamma=1.0000).
                        Polarization charges: spherical gaussians, with
                                              point-specific exponents (IZeta= 3).
                        Self-potential: point-specific (ISelfS= 7).
                        Self-field    : sphere-specific E.n sum rule (ISelfD= 2).
 1st derivatives      : Analytical E(r).r(x)/FMM algorithm (CHGder, D1EAlg=3).
                        Cavity 1st derivative terms included.
 Solvent              : Water, Eps=  78.355300 Eps(inf)=   1.777849
 ------------------------------------------------------------------------------
 Spheres list:
 ISph  on   Nord    Re0     Alpha      Xe            Ye            Ze
    1   O      1    1.520   1.000      0.000000      0.090554      0.000000
    2   H      2    1.200   1.000     -0.460786     -0.242715      0.797031
    3   H      3    1.200   1.000     -0.460786     -0.242715     -0.797031
    4   H      4    1.200   1.000      0.921573     -0.239002      0.000000
 ------------------------------------------------------------------------------
 ------------------------------------------------------------------------------
 Atomic radii for non-electrostatic terms: SMD-CDS.
 ------------------------------------------------------------------------------
 Nuclear repulsion after PCM non-electrostatic terms =       13.9716743312 Hartrees.
 One-electron integrals computed using PRISM.
 NBasis=    34 RedAO= T  NBF=    23    11
 NBsUse=    34 1.00D-06 NBFU=    23    11
 Initial guess read from the read-write file.
 B after Tr=     0.000000    0.000000    0.000000
         Rot=    1.000000    0.000000    0.000000    0.000000 Ang=   0.00 deg.
 Initial guess orbital symmetries:
       Occupied  (A') (A') (A") (A') (A')
       Virtual   (A') (A") (A') (A') (A') (A") (A') (A') (A") (A')
                 (A") (A') (A') (A') (A") (A') (A') (A") (A") (A')
                 (A') (A") (A') (A') (A") (A') (A") (A') (A')
 Requested convergence on RMS density matrix=1.00D-08 within 128 cycles.
 Requested convergence on MAX density matrix=1.00D-06.
 Requested convergence on             energy=1.00D-06.
 No special actions if energy rises.
 Keep R1 ints in memory in canonical form, NReq=3179227.
 Error on total polarization charges =  0.00868
 SCF Done:  E(RM062X) =  -76.8243739835     A.U. after    7 cycles
             Convg  =    0.5210D-08             -V/T =  2.0104
 SMD-CDS (non-electrostatic) energy             (kcal/mol) =       2.20
 (included in total energy above)
 D1PCM: PCM CHGder 1st derivatives, ID1Alg=3 FixD1E=F DoIter=F DoCFld=F I1PDM=0.
 Calling FoFJK, ICntrl=      2127 FMM=F ISym2X=1 I1Cent= 0 IOpClX= 0 NMat=1 NMatS=1 NMatT=0.
 ***** Axes restored to original set *****
 -------------------------------------------------------------------
 Center     Atomic                   Forces (Hartrees/Bohr)
 Number     Number              X              Y              Z
 -------------------------------------------------------------------
      1        8          -0.000200891   -0.000284255    0.000352591
      2        1          -0.000105284    0.000135135   -0.000458994
      3        1           0.000162528   -0.000054136   -0.000458994
      4        1           0.000143647    0.000203257    0.000565398
 -------------------------------------------------------------------
 Cartesian Forces:  Max     0.000565398 RMS     0.000303747

 GradGradGradGradGradGradGradGradGradGradGradGradGradGradGradGradGradGrad
 Berny optimization.
 Using GEDIIS/GDIIS optimizer.
 Internal  Forces:  Max     0.000321510 RMS     0.000173627
 Search for a local minimum.
 Step number   5 out of a maximum of   20
 All quantities printed in internal units (Hartrees-Bohrs-Radians)
 Mixed Optimization -- En-DIIS/RFO-DIIS
 Swaping is turned off.
 Update second derivatives using D2CorX and points    1    2    3    4    5
 DE=  4.56D-06 DEPred=-1.19D-05 R=-3.83D-01
 Trust test=-3.83D-01 RLast= 1.87D-02 DXMaxT set to 4.24D-01
 The second derivative matrix:
                          R1        R2        R3        A1        A2
           R1           0.57619
           R2           0.02146   0.57619
           R3           0.01571   0.01571   0.57050
           A1           0.01024   0.01024   0.01063   0.06965
           A2           0.02878   0.02878   0.04022  -0.01816   0.12968
           A3           0.02878   0.02878   0.04022  -0.01816  -0.03032
           D1           0.00180   0.00180  -0.00727   0.00108  -0.01572
                          A3        D1
           A3           0.12968
           D1          -0.01572   0.04001
     Eigenvalues ---    0.02889   0.11078   0.16000   0.55473   0.55858
     Eigenvalues ---    0.617591000.00000
 En-DIIS/RFO-DIIS IScMMF=        0 using points:     5    4
 RFO step:  Lambda=-3.60336955D-07.
 DIIS coeffs:      0.99559      0.00441
 Iteration  1 RMS(Cart)=  0.00102317 RMS(Int)=  0.00000334
 Iteration  2 RMS(Cart)=  0.00000186 RMS(Int)=  0.00000272
 Iteration  3 RMS(Cart)=  0.00000000 RMS(Int)=  0.00000272
 ClnCor:  largest displacement from symmetrization is 1.47D-12 for atom     3.
 Variable       Old X    -DE/DX   Delta X   Delta X   Delta X     New X
                                  (DIIS)     (GDIIS)  (Total)
    R1        1.85024  -0.00022   0.00000  -0.00056  -0.00055   1.84969
    R2        1.85024  -0.00022   0.00000  -0.00056  -0.00055   1.84969
    R3        1.84952  -0.00032   0.00000  -0.00078  -0.00077   1.84875
    A1        1.90214   0.00001   0.00006   0.00100   0.00105   1.90320
    A2        1.90554   0.00006  -0.00001   0.00187   0.00186   1.90740
    A3        1.90554   0.00006  -0.00001   0.00187   0.00186   1.90740
    D1        2.07792   0.00007   0.00006   0.00343   0.00349   2.08141
         Item               Value     Threshold  Converged?
 Maximum Force            0.000322     0.000450     YES
 RMS     Force            0.000174     0.000300     YES
 Maximum Displacement     0.002127     0.001800     NO 
 RMS     Displacement     0.001023     0.001200     YES
 Predicted change in Energy=-4.789237D-07
 GradGradGradGradGradGradGradGradGradGradGradGradGradGradGradGradGradGrad

                          Input orientation:                          
 ---------------------------------------------------------------------
 Center     Atomic      Atomic             Coordinates (Angstroms)
 Number     Number       Type             X           Y           Z
 ---------------------------------------------------------------------
      1          8           0       -0.050088   -0.966060   -0.112212
      2          1           0        0.829713   -1.102265    0.294574
      3          1           0       -0.472164   -0.182189    0.294574
      4          1           0       -0.606839   -1.753844    0.050668
 ---------------------------------------------------------------------
                    Distance matrix (angstroms):
                    1          2          3          4
     1  O    0.000000
     2  H    0.978814   0.000000
     3  H    0.978814   1.594184   0.000000
     4  H    0.978318   1.596160   1.596160   0.000000
 Stoichiometry    H3O(1+)
 Framework group  CS[SG(HO),X(H2)]
 Deg. of freedom     4
 Full point group                 CS      NOp   2
 Largest Abelian subgroup         CS      NOp   2
 Largest concise Abelian subgroup CS      NOp   2
                         Standard orientation:                         
 ---------------------------------------------------------------------
 Center     Atomic      Atomic             Coordinates (Angstroms)
 Number     Number       Type             X           Y           Z
 ---------------------------------------------------------------------
      1          8           0        0.000000    0.090128    0.000000
      2          1           0       -0.460959   -0.241892    0.797092
      3          1           0       -0.460959   -0.241892   -0.797092
      4          1           0        0.921918   -0.237243    0.000000
 ---------------------------------------------------------------------
 Rotational constants (GHZ):    324.3032939    323.4232030    196.9866395
 Standard basis: 6-31+G(d,p) (6D, 7F)
 There are    23 symmetry adapted basis functions of A'  symmetry.
 There are    11 symmetry adapted basis functions of A"  symmetry.
 Integral buffers will be    262144 words long.
 Raffenetti 2 integral format.
 Two-electron integral symmetry is turned on.
    34 basis functions,    53 primitive gaussians,    34 cartesian basis functions
     5 alpha electrons        5 beta electrons
       nuclear repulsion energy        13.9723462001 Hartrees.
 NAtoms=    4 NActive=    4 NUniq=    3 SFac= 1.33D+00 NAtFMM=   80 NAOKFM=F Big=F
 ------------------------------------------------------------------------------
 Polarizable Continuum Model (PCM)
 =================================
 Model                : PCM.
 Atomic radii         : SMD-Coulomb.
 Polarization charges : Total charges.
 Charge compensation  : None.
 Solution method      : Matrix inversion.
 Cavity type          : VdW (van der Waals Surface) (Alpha=1.000).
 Cavity algorithm     : GePol (No added spheres)
                        Default sphere list used, NSphG=    4.
                        Lebedev-Laikov grids with approx.  5.0 points / Ang**2.
                        Smoothing algorithm: Karplus/York (Gamma=1.0000).
                        Polarization charges: spherical gaussians, with
                                              point-specific exponents (IZeta= 3).
                        Self-potential: point-specific (ISelfS= 7).
                        Self-field    : sphere-specific E.n sum rule (ISelfD= 2).
 1st derivatives      : Analytical E(r).r(x)/FMM algorithm (CHGder, D1EAlg=3).
                        Cavity 1st derivative terms included.
 Solvent              : Water, Eps=  78.355300 Eps(inf)=   1.777849
 ------------------------------------------------------------------------------
 Spheres list:
 ISph  on   Nord    Re0     Alpha      Xe            Ye            Ze
    1   O      1    1.520   1.000      0.000000      0.090128      0.000000
    2   H      2    1.200   1.000     -0.460959     -0.241892      0.797092
    3   H      3    1.200   1.000     -0.460959     -0.241892     -0.797092
    4   H      4    1.200   1.000      0.921918     -0.237243      0.000000
 ------------------------------------------------------------------------------
 ------------------------------------------------------------------------------
 Atomic radii for non-electrostatic terms: SMD-CDS.
 ------------------------------------------------------------------------------
 Nuclear repulsion after PCM non-electrostatic terms =       13.9758448486 Hartrees.
 One-electron integrals computed using PRISM.
 NBasis=    34 RedAO= T  NBF=    23    11
 NBsUse=    34 1.00D-06 NBFU=    23    11
 Initial guess read from the read-write file.
 B after Tr=     0.000000    0.000000    0.000000
         Rot=    1.000000    0.000000    0.000000    0.000000 Ang=   0.00 deg.
 Initial guess orbital symmetries:
       Occupied  (A') (A') (A') (A") (A')
       Virtual   (A') (A') (A") (A') (A") (A') (A') (A") (A') (A")
                 (A') (A') (A') (A') (A') (A") (A') (A") (A') (A")
                 (A") (A') (A') (A") (A') (A') (A') (A") (A')
 Requested convergence on RMS density matrix=1.00D-08 within 128 cycles.
 Requested convergence on MAX density matrix=1.00D-06.
 Requested convergence on             energy=1.00D-06.
 No special actions if energy rises.
 Keep R1 ints in memory in canonical form, NReq=3179227.
 Error on total polarization charges =  0.00868
 SCF Done:  E(RM062X) =  -76.8243731298     A.U. after    7 cycles
             Convg  =    0.1364D-08             -V/T =  2.0104
 SMD-CDS (non-electrostatic) energy             (kcal/mol) =       2.20
 (included in total energy above)
 D1PCM: PCM CHGder 1st derivatives, ID1Alg=3 FixD1E=F DoIter=F DoCFld=F I1PDM=0.
 Calling FoFJK, ICntrl=      2127 FMM=F ISym2X=1 I1Cent= 0 IOpClX= 0 NMat=1 NMatS=1 NMatT=0.
 ***** Axes restored to original set *****
 -------------------------------------------------------------------
 Center     Atomic                   Forces (Hartrees/Bohr)
 Number     Number              X              Y              Z
 -------------------------------------------------------------------
      1        8          -0.000048654   -0.000068844   -0.000097126
      2        1           0.000045699    0.000043237   -0.000303191
      3        1           0.000025503    0.000057510   -0.000303191
      4        1          -0.000022547   -0.000031904    0.000703508
 -------------------------------------------------------------------
 Cartesian Forces:  Max     0.000703508 RMS     0.000242342

 GradGradGradGradGradGradGradGradGradGradGradGradGradGradGradGradGradGrad
 Berny optimization.
 Using GEDIIS/GDIIS optimizer.
 Internal  Forces:  Max     0.000076650 RMS     0.000046970
 Search for a local minimum.
 Step number   6 out of a maximum of   20
 All quantities printed in internal units (Hartrees-Bohrs-Radians)
 Mixed Optimization -- En-DIIS/RFO-DIIS
 Swaping is turned off.
 Update second derivatives using D2CorX and points    1    2    3    4    5
                                                      6
 DE=  8.54D-07 DEPred=-4.79D-07 R=-1.78D+00
 Trust test=-1.78D+00 RLast= 4.63D-03 DXMaxT set to 2.12D-01
 The second derivative matrix:
                          R1        R2        R3        A1        A2
           R1           0.55653
           R2           0.00180   0.55653
           R3          -0.01150  -0.01150   0.53140
           A1           0.01027   0.01027   0.01060   0.07261
           A2           0.01824   0.01824   0.02488  -0.02508   0.14381
           A3           0.01824   0.01824   0.02488  -0.02508  -0.01619
           D1           0.00314   0.00314  -0.00522  -0.00241  -0.01124
                          A3        D1
           A3           0.14381
           D1          -0.01124   0.04203
     Eigenvalues ---    0.03519   0.14055   0.16000   0.52684   0.55473
     Eigenvalues ---    0.566661000.00000
 En-DIIS/RFO-DIIS IScMMF=        0 using points:     6    5    4
 RFO step:  Lambda=-4.44498165D-08.
 DIIS coeffs:      0.74865      0.23911      0.01225
 Iteration  1 RMS(Cart)=  0.00040840 RMS(Int)=  0.00000039
 Iteration  2 RMS(Cart)=  0.00000023 RMS(Int)=  0.00000030
 ClnCor:  largest displacement from symmetrization is 1.56D-13 for atom     3.
 Variable       Old X    -DE/DX   Delta X   Delta X   Delta X     New X
                                  (DIIS)     (GDIIS)  (Total)
    R1        1.84969  -0.00001   0.00015  -0.00011   0.00004   1.84973
    R2        1.84969  -0.00001   0.00015  -0.00011   0.00004   1.84973
    R3        1.84875  -0.00001   0.00021  -0.00016   0.00004   1.84880
    A1        1.90320   0.00005  -0.00011   0.00009  -0.00002   1.90318
    A2        1.90740  -0.00008  -0.00049  -0.00027  -0.00076   1.90664
    A3        1.90740  -0.00008  -0.00049  -0.00027  -0.00076   1.90664
    D1        2.08141  -0.00003  -0.00071  -0.00021  -0.00092   2.08048
         Item               Value     Threshold  Converged?
 Maximum Force            0.000077     0.000450     YES
 RMS     Force            0.000047     0.000300     YES
 Maximum Displacement     0.000622     0.001800     YES
 RMS     Displacement     0.000409     0.001200     YES
 Predicted change in Energy=-6.972124D-08
 Optimization completed.
    -- Stationary point found.
                           ----------------------------
                           !   Optimized Parameters   !
                           ! (Angstroms and Degrees)  !
 --------------------------                            --------------------------
 ! Name  Definition              Value          Derivative Info.                !
 --------------------------------------------------------------------------------
 ! R1    R(1,2)                  0.9788         -DE/DX =    0.0                 !
 ! R2    R(1,3)                  0.9788         -DE/DX =    0.0                 !
 ! R3    R(1,4)                  0.9783         -DE/DX =    0.0                 !
 ! A1    A(2,1,3)              109.0453         -DE/DX =    0.0001              !
 ! A2    A(2,1,4)              109.2858         -DE/DX =   -0.0001              !
 ! A3    A(3,1,4)              109.2858         -DE/DX =   -0.0001              !
 ! D1    D(2,1,4,3)            119.2559         -DE/DX =    0.0                 !
 --------------------------------------------------------------------------------
 GradGradGradGradGradGradGradGradGradGradGradGradGradGradGradGradGradGrad

                          Input orientation:                          
 ---------------------------------------------------------------------
 Center     Atomic      Atomic             Coordinates (Angstroms)
 Number     Number       Type             X           Y           Z
 ---------------------------------------------------------------------
      1          8           0       -0.050088   -0.966060   -0.112212
      2          1           0        0.829713   -1.102265    0.294574
      3          1           0       -0.472164   -0.182189    0.294574
      4          1           0       -0.606839   -1.753844    0.050668
 ---------------------------------------------------------------------
                    Distance matrix (angstroms):
                    1          2          3          4
     1  O    0.000000
     2  H    0.978814   0.000000
     3  H    0.978814   1.594184   0.000000
     4  H    0.978318   1.596160   1.596160   0.000000
 Stoichiometry    H3O(1+)
 Framework group  CS[SG(HO),X(H2)]
 Deg. of freedom     4
 Full point group                 CS      NOp   2
 Largest Abelian subgroup         CS      NOp   2
 Largest concise Abelian subgroup CS      NOp   2
                         Standard orientation:                         
 ---------------------------------------------------------------------
 Center     Atomic      Atomic             Coordinates (Angstroms)
 Number     Number       Type             X           Y           Z
 ---------------------------------------------------------------------
      1          8           0        0.000000    0.090128    0.000000
      2          1           0       -0.460959   -0.241892    0.797092
      3          1           0       -0.460959   -0.241892   -0.797092
      4          1           0        0.921918   -0.237243    0.000000
 ---------------------------------------------------------------------
 Rotational constants (GHZ):    324.3032939    323.4232030    196.9866395

 **********************************************************************

            Population analysis using the SCF density.

 **********************************************************************

 Orbital symmetries:
       Occupied  (A') (A') (A') (A") (A')
       Virtual   (A') (A') (A") (A') (A") (A') (A') (A") (A') (A")
                 (A') (A') (A') (A') (A') (A") (A') (A") (A') (A")
                 (A") (A') (A') (A") (A') (A') (A') (A") (A')
 The electronic state is 1-A'.
 Alpha  occ. eigenvalues --  -19.78883  -1.28535  -0.71966  -0.71880  -0.55156
 Alpha virt. eigenvalues --    0.04537   0.13045   0.13072   0.15385   0.21753
 Alpha virt. eigenvalues --    0.21817   0.27680   0.91908   0.91993   1.04861
 Alpha virt. eigenvalues --    1.04873   1.05221   1.12031   1.25963   1.40224
 Alpha virt. eigenvalues --    1.40327   1.93503   2.07572   2.30981   2.31116
 Alpha virt. eigenvalues --    2.46596   2.46767   2.77780   3.01157   3.01258
 Alpha virt. eigenvalues --    3.27135   3.43173   3.43270   3.97873
          Condensed to atoms (all electrons):
              1          2          3          4
     1  O    7.685228   0.286042   0.286042   0.286262
     2  H    0.286042   0.220687  -0.010679  -0.010614
     3  H    0.286042  -0.010679   0.220687  -0.010614
     4  H    0.286262  -0.010614  -0.010614   0.220517
 Mulliken atomic charges:
              1
     1  O   -0.543575
     2  H    0.514563
     3  H    0.514563
     4  H    0.514449
 Sum of Mulliken atomic charges =   1.00000
 Mulliken charges with hydrogens summed into heavy atoms:
              1
     1  O    1.000000
 Sum of Mulliken charges with hydrogens summed into heavy atoms =   1.00000
 Electronic spatial extent (au):  <R**2>=             18.4736
 Charge=              1.0000 electrons
 Dipole moment (field-independent basis, Debye):
    X=              0.0017    Y=             -2.0926    Z=              0.0000  Tot=              2.0926
 Quadrupole moment (field-independent basis, Debye-Ang):
   XX=             -2.6300   YY=             -6.2040   ZZ=             -2.6419
   XY=              0.0136   XZ=              0.0000   YZ=              0.0000
 Traceless Quadrupole moment (field-independent basis, Debye-Ang):
   XX=              1.1953   YY=             -2.3787   ZZ=              1.1834
   XY=              0.0136   XZ=              0.0000   YZ=              0.0000
 Octapole moment (field-independent basis, Debye-Ang**2):
  XXX=              1.6801  YYY=             -1.1534  ZZZ=              0.0000  XYY=             -0.0054
  XXY=             -1.1925  XXZ=              0.0000  XZZ=             -1.6722  YZZ=             -1.2010
  YYZ=              0.0000  XYZ=              0.0000
 Hexadecapole moment (field-independent basis, Debye-Ang**3):
 XXXX=             -3.3049 YYYY=             -5.5233 ZZZZ=             -3.3179 XXXY=             -0.4660
 XXXZ=              0.0000 YYYX=              0.0008 YYYZ=              0.0000 ZZZX=              0.0000
 ZZZY=              0.0000 XXYY=             -1.6591 XXZZ=             -1.1040 YYZZ=             -1.6528
 XXYZ=              0.0000 YYXZ=              0.0000 ZZXY=              0.4738
 N-N= 1.397584484858D+01 E-N=-2.044937603246D+02  KE= 7.603716992899D+01
 Symmetry A'   KE= 7.211939462499D+01
 Symmetry A"   KE= 3.917775304008D+00
 1|1|UNPC-DESKTOP-319GPER|FOpt|RM062X|6-31+G(d,p)|H3O1(1+)|SAGAD|19-Jan
 -2021|0||# opt freq 6-31+G(d,p) scrf=smd m062x||Hidronio m062x||1,1|O,
 -0.0500881658,-0.9660602011,-0.1122117382|H,0.8297129235,-1.1022647997
 ,0.2945740491|H,-0.4721639228,-0.1821892278,0.2945740515|H,-0.60683904
 7,-1.7538444918,0.0506679189||Version=IA32W-G09RevA.02|State=1-A'|HF=-
 76.8243731|RMSD=1.364e-009|RMSF=2.423e-004|Dipole=-0.0826166,-0.116899
 8,0.810769|Quadrupole=0.8551356,0.8303669,-1.6855026,-0.0349723,0.2668
 879,0.3776377|PG=CS [SG(H1O1),X(H2)]||@


      LET US REMEMBER, PLEASE, THAT THE SEARCH FOR THE CONSTITUTION
      OF THE WORLD IS ONE OF THE GREATEST AND NOBLEST PROBLEMS PRESENTED 
      BY NATURE.

                                                  -- GALILEO
 Job cpu time:  0 days  0 hours  0 minutes 15.0 seconds.
 File lengths (MBytes):  RWF=      5 Int=      0 D2E=      0 Chk=      1 Scr=      1
 Normal termination of Gaussian 09 at Tue Jan 19 19:44:33 2021.
 Link1:  Proceeding to internal job step number  2.
 ----------------------------------------------------------------------
 #N Geom=AllCheck Guess=TCheck SCRF=Check GenChk RM062X/6-31+G(d,p) Fre
 q
 ----------------------------------------------------------------------
 1/10=4,29=7,30=1,38=1,40=1/1,3;
 2/12=2,40=1/2;
 3/5=1,6=6,7=111,11=2,14=-4,16=1,25=1,30=1,70=2,71=2,74=-55,116=1/1,2,3;
 4/5=101/1;
 5/5=2,98=1/2;
 8/6=4,10=90,11=11/1;
 11/6=1,8=1,9=11,15=111,16=1/1,2,10;
 10/6=1/2;
 6/7=2,8=2,9=2,10=2,18=1,28=1/1;
 7/8=1,10=1,25=1/1,2,3,16;
 1/10=4,30=1/3;
 99//99;
 --------------
 Hidronio m062x
 --------------
 Redundant internal coordinates taken from checkpoint file:
 D:\Documents\rayGit\FQ\quimicaComputacional\p4Pka\reactivos\hidronioM062x.chk
 Charge =  1 Multiplicity = 1
 O,0,-0.0500881658,-0.9660602011,-0.1122117382
 H,0,0.8297129235,-1.1022647997,0.2945740491
 H,0,-0.4721639228,-0.1821892278,0.2945740515
 H,0,-0.606839047,-1.7538444918,0.0506679189
 Recover connectivity data from disk.

 GradGradGradGradGradGradGradGradGradGradGradGradGradGradGradGradGradGrad
 Berny optimization.
 Initialization pass.
                           ----------------------------
                           !    Initial Parameters    !
                           ! (Angstroms and Degrees)  !
 --------------------------                            --------------------------
 ! Name  Definition              Value          Derivative Info.                !
 --------------------------------------------------------------------------------
 ! R1    R(1,2)                  0.9788         calculate D2E/DX2 analytically  !
 ! R2    R(1,3)                  0.9788         calculate D2E/DX2 analytically  !
 ! R3    R(1,4)                  0.9783         calculate D2E/DX2 analytically  !
 ! A1    A(2,1,3)              109.0453         calculate D2E/DX2 analytically  !
 ! A2    A(2,1,4)              109.2858         calculate D2E/DX2 analytically  !
 ! A3    A(3,1,4)              109.2858         calculate D2E/DX2 analytically  !
 ! D1    D(2,1,4,3)            119.2559         calculate D2E/DX2 analytically  !
 --------------------------------------------------------------------------------
 Trust Radius=3.00D-01 FncErr=1.00D-07 GrdErr=1.00D-07
 Number of steps in this run=   2 maximum allowed number of steps=   2.
 GradGradGradGradGradGradGradGradGradGradGradGradGradGradGradGradGradGrad

                          Input orientation:                          
 ---------------------------------------------------------------------
 Center     Atomic      Atomic             Coordinates (Angstroms)
 Number     Number       Type             X           Y           Z
 ---------------------------------------------------------------------
      1          8           0       -0.050088   -0.966060   -0.112212
      2          1           0        0.829713   -1.102265    0.294574
      3          1           0       -0.472164   -0.182189    0.294574
      4          1           0       -0.606839   -1.753844    0.050668
 ---------------------------------------------------------------------
                    Distance matrix (angstroms):
                    1          2          3          4
     1  O    0.000000
     2  H    0.978814   0.000000
     3  H    0.978814   1.594184   0.000000
     4  H    0.978318   1.596160   1.596160   0.000000
 Stoichiometry    H3O(1+)
 Framework group  CS[SG(HO),X(H2)]
 Deg. of freedom     4
 Full point group                 CS      NOp   2
 Largest Abelian subgroup         CS      NOp   2
 Largest concise Abelian subgroup CS      NOp   2
                         Standard orientation:                         
 ---------------------------------------------------------------------
 Center     Atomic      Atomic             Coordinates (Angstroms)
 Number     Number       Type             X           Y           Z
 ---------------------------------------------------------------------
      1          8           0        0.000000    0.090128    0.000000
      2          1           0       -0.460959   -0.241892    0.797092
      3          1           0       -0.460959   -0.241892   -0.797092
      4          1           0        0.921918   -0.237243    0.000000
 ---------------------------------------------------------------------
 Rotational constants (GHZ):    324.3032939    323.4232030    196.9866395
 Standard basis: 6-31+G(d,p) (6D, 7F)
 There are    23 symmetry adapted basis functions of A'  symmetry.
 There are    11 symmetry adapted basis functions of A"  symmetry.
 Integral buffers will be    262144 words long.
 Raffenetti 2 integral format.
 Two-electron integral symmetry is turned on.
    34 basis functions,    53 primitive gaussians,    34 cartesian basis functions
     5 alpha electrons        5 beta electrons
       nuclear repulsion energy        13.9723462001 Hartrees.
 NAtoms=    4 NActive=    4 NUniq=    3 SFac= 1.33D+00 NAtFMM=   80 NAOKFM=F Big=F
 ------------------------------------------------------------------------------
 Polarizable Continuum Model (PCM)
 =================================
 Model                : PCM.
 Atomic radii         : SMD-Coulomb.
 Polarization charges : Total charges.
 Charge compensation  : None.
 Solution method      : Matrix inversion.
 Cavity type          : VdW (van der Waals Surface) (Alpha=1.000).
 Cavity algorithm     : GePol (No added spheres)
[...]
                        Cavity 1st derivative terms included.
 2nd derivatives      : Analytical E(r).r(xy)/FMM algorithm (CHGder, D2EAlg=3).
                        Cavity 2nd derivative terms included.
 Solvent              : Water, Eps=  78.355300 Eps(inf)=   1.777849
 ------------------------------------------------------------------------------
 Spheres list:
 ISph  on   Nord    Re0     Alpha      Xe            Ye            Ze
    1   O      1    1.520   1.000      0.000000      0.090128      0.000000
    2   H      2    1.200   1.000     -0.460959     -0.241892      0.797092
    3   H      3    1.200   1.000     -0.460959     -0.241892     -0.797092
    4   H      4    1.200   1.000      0.921918     -0.237243      0.000000
 ------------------------------------------------------------------------------
 ------------------------------------------------------------------------------
 Atomic radii for non-electrostatic terms: SMD-CDS.
 ------------------------------------------------------------------------------
 Nuclear repulsion after PCM non-electrostatic terms =       13.9758448486 Hartrees.
 One-electron integrals computed using PRISM.
 NBasis=    34 RedAO= T  NBF=    23    11
 NBsUse=    34 1.00D-06 NBFU=    23    11
 Initial guess read from the checkpoint file:  D:\Documents\rayGit\FQ\quimicaComp
 utacional\p4Pka\reactivos\hidronioM062x.chk
 B after Tr=     0.000000    0.000000    0.000000
         Rot=    1.000000    0.000000    0.000000    0.000000 Ang=   0.00 deg.
 Initial guess orbital symmetries:
       Occupied  (A') (A') (A') (A") (A')
       Virtual   (A') (A') (A") (A') (A") (A') (A') (A") (A') (A")
                 (A') (A') (A') (A') (A') (A") (A') (A") (A') (A")
                 (A") (A') (A') (A") (A') (A') (A') (A") (A')
 Requested convergence on RMS density matrix=1.00D-08 within 128 cycles.
 Requested convergence on MAX density matrix=1.00D-06.
 Requested convergence on             energy=1.00D-06.
 No special actions if energy rises.
 Keep R1 ints in memory in canonical form, NReq=3179227.
 Error on total polarization charges =  0.00868
 SCF Done:  E(RM062X) =  -76.8243731298     A.U. after    1 cycles
             Convg  =    0.7159D-10             -V/T =  2.0104
 SMD-CDS (non-electrostatic) energy             (kcal/mol) =       2.20
 (included in total energy above)
 Range of M.O.s used for correlation:     1    34
 NBasis=    34 NAE=     5 NBE=     5 NFC=     0 NFV=     0
 NROrb=     34 NOA=     5 NOB=     5 NVA=    29 NVB=    29
 Symmetrizing basis deriv contribution to polar:
 IMax=3 JMax=2 DiffMx= 0.00D+00
 G2DrvN: will do     5 centers at a time, making    1 passes doing MaxLOS=2.
 Calling FoFCou, ICntrl=  3107 FMM=F I1Cent=   0 AccDes= 0.00D+00.
 FoFDir/FoFCou used for L=0 through L=2.
 G2PCM: DoFxE=T DoFxN=T DoGrad=T DoPD/DQ/DG=FFF NFrqRd=   0 IEInf=0 DoCFld=F IF1Alg=4.
 End of G2Drv Frequency-dependent properties file   721 does not exist.
 End of G2Drv Frequency-dependent properties file   722 does not exist.
          IDoAtm=1111
 NEqPCM:  Using equilibrium solvation (IEInf=0, Eps=  78.3553, EpsInf=   1.7778)
          Differentiating once with respect to electric field.
                with respect to dipole field.
          Differentiating once with respect to nuclear coordinates.
          Keep R1 ints in memory in canonical form, NReq=998209.
          There are    12 degrees of freedom in the 1st order CPHF.  IDoFFX=4.
     12 vectors produced by pass  0 Test12= 1.21D-15 8.33D-09 XBig12= 1.52D+00 6.96D-01.
 AX will form    12 AO Fock derivatives at one time.
     12 vectors produced by pass  1 Test12= 1.21D-15 8.33D-09 XBig12= 7.45D-02 1.29D-01.
     12 vectors produced by pass  2 Test12= 1.21D-15 8.33D-09 XBig12= 5.27D-04 7.41D-03.
     12 vectors produced by pass  3 Test12= 1.21D-15 8.33D-09 XBig12= 7.35D-07 2.44D-04.
     12 vectors produced by pass  4 Test12= 1.21D-15 8.33D-09 XBig12= 9.57D-10 1.17D-05.
      6 vectors produced by pass  5 Test12= 1.21D-15 8.33D-09 XBig12= 1.26D-12 4.46D-07.
      1 vectors produced by pass  6 Test12= 1.21D-15 8.33D-09 XBig12= 9.40D-16 1.21D-08.
 Inverted reduced A of dimension    67 with in-core refinement.
 Isotropic polarizability for W=    0.000000        6.19 Bohr**3.
 End of Minotr Frequency-dependent properties file   721 does not exist.
 End of Minotr Frequency-dependent properties file   722 does not exist.

 **********************************************************************

            Population analysis using the SCF density.

 **********************************************************************

 Orbital symmetries:
       Occupied  (A') (A') (A') (A") (A')
       Virtual   (A') (A') (A") (A') (A") (A') (A') (A") (A') (A")
                 (A') (A') (A') (A') (A') (A") (A') (A") (A') (A")
                 (A") (A') (A') (A") (A') (A') (A') (A") (A')
 The electronic state is 1-A'.
 Alpha  occ. eigenvalues --  -19.78883  -1.28535  -0.71966  -0.71880  -0.55156
 Alpha virt. eigenvalues --    0.04537   0.13045   0.13072   0.15385   0.21753
 Alpha virt. eigenvalues --    0.21817   0.27680   0.91908   0.91993   1.04861
 Alpha virt. eigenvalues --    1.04873   1.05221   1.12031   1.25963   1.40224
 Alpha virt. eigenvalues --    1.40327   1.93503   2.07572   2.30981   2.31116
 Alpha virt. eigenvalues --    2.46596   2.46767   2.77780   3.01157   3.01258
 Alpha virt. eigenvalues --    3.27135   3.43173   3.43270   3.97873
          Condensed to atoms (all electrons):
              1          2          3          4
     1  O    7.685228   0.286042   0.286042   0.286262
     2  H    0.286042   0.220687  -0.010679  -0.010614
     3  H    0.286042  -0.010679   0.220687  -0.010614
     4  H    0.286262  -0.010614  -0.010614   0.220517
 Mulliken atomic charges:
              1
     1  O   -0.543575
     2  H    0.514563
     3  H    0.514563
     4  H    0.514449
 Sum of Mulliken atomic charges =   1.00000
 Mulliken charges with hydrogens summed into heavy atoms:
              1
     1  O    1.000000
 Sum of Mulliken charges with hydrogens summed into heavy atoms =   1.00000
 APT atomic charges:
              1
     1  O   -0.593422
     2  H    0.530281
     3  H    0.530281
     4  H    0.532860
 Sum of APT charges=   1.00000
 APT Atomic charges with hydrogens summed into heavy atoms:
              1
     1  O    1.000000
     2  H    0.000000
     3  H    0.000000
     4  H    0.000000
 Sum of APT charges=   1.00000
 Electronic spatial extent (au):  <R**2>=             18.4736
 Charge=              1.0000 electrons
 Dipole moment (field-independent basis, Debye):
    X=              0.0017    Y=             -2.0926    Z=              0.0000  Tot=              2.0926
 Quadrupole moment (field-independent basis, Debye-Ang):
   XX=             -2.6300   YY=             -6.2040   ZZ=             -2.6419
   XY=              0.0136   XZ=              0.0000   YZ=              0.0000
 Traceless Quadrupole moment (field-independent basis, Debye-Ang):
   XX=              1.1953   YY=             -2.3787   ZZ=              1.1834
   XY=              0.0136   XZ=              0.0000   YZ=              0.0000
 Octapole moment (field-independent basis, Debye-Ang**2):
  XXX=              1.6801  YYY=             -1.1534  ZZZ=              0.0000  XYY=             -0.0054
  XXY=             -1.1925  XXZ=              0.0000  XZZ=             -1.6722  YZZ=             -1.2010
  YYZ=              0.0000  XYZ=              0.0000
 Hexadecapole moment (field-independent basis, Debye-Ang**3):
 XXXX=             -3.3049 YYYY=             -5.5233 ZZZZ=             -3.3179 XXXY=             -0.4660
 XXXZ=              0.0000 YYYX=              0.0008 YYYZ=              0.0000 ZZZX=              0.0000
 ZZZY=              0.0000 XXYY=             -1.6591 XXZZ=             -1.1040 YYZZ=             -1.6528
 XXYZ=              0.0000 YYXZ=              0.0000 ZZXY=              0.4738
 N-N= 1.397584484858D+01 E-N=-2.044937603173D+02  KE= 7.603716992566D+01
 Symmetry A'   KE= 7.211939462402D+01
 Symmetry A"   KE= 3.917775301636D+00
  Exact polarizability:   6.711   0.004   5.141   0.000   0.000   6.706
 Approx polarizability:   6.141   0.009   4.545   0.000   0.000   6.131
 D2PCM: PCM CHGder 2nd derivatives, FixD1E=F FixD2E=F DoIter=F DoCFld=F I1PDM=0
 Calling FoFJK, ICntrl=    100127 FMM=F ISym2X=1 I1Cent= 0 IOpClX= 0 NMat=1 NMatS=1 NMatT=0.
 Full mass-weighted force constant matrix:
 Low frequencies --- -254.2843 -146.4892   -0.0016   -0.0014    0.0016  308.0148
 Low frequencies --- 1029.0034 1647.1142 1650.7807
 Diagonal vibrational polarizability:
        2.6757878      15.7094307       2.6706765
 Harmonic frequencies (cm**-1), IR intensities (KM/Mole), Raman scattering
 activities (A**4/AMU), depolarization ratios for plane and unpolarized
 incident light, reduced masses (AMU), force constants (mDyne/A),
 and normal coordinates:
                     1                      2                      3
                    A'                     A'                     A"
 Frequencies --  1022.7217              1646.9507              1650.3377
 Red. masses --     1.1634                 1.0624                 1.0615
 Frc consts  --     0.7170                 1.6978                 1.7033
 IR Inten    --   603.5745               156.9957               155.2793
  Atom  AN      X      Y      Z        X      Y      Z        X      Y      Z
     1   8     0.00   0.10   0.00     0.06   0.00   0.00     0.00   0.00   0.06
     2   1     0.10  -0.54  -0.18    -0.55  -0.11  -0.39    -0.39   0.20  -0.09
     3   1     0.10  -0.54   0.18    -0.55  -0.11   0.39     0.39  -0.20  -0.09
     4   1    -0.19  -0.54   0.00     0.13   0.23   0.00     0.00   0.00  -0.77
                     4                      5                      6
                    A'                     A"                     A'
 Frequencies --  3631.5321              3718.5476              3732.6037
 Red. masses --     1.0239                 1.0859                 1.0844
 Frc consts  --     7.9561                 8.8466                 8.9013
 IR Inten    --    93.1188               583.9132               573.8294
  Atom  AN      X      Y      Z        X      Y      Z        X      Y      Z
     1   8    -0.01  -0.03   0.00     0.00   0.00   0.07     0.07   0.00   0.00
     2   1     0.29   0.18  -0.51     0.33   0.24  -0.57    -0.16  -0.12   0.29
     3   1     0.29   0.18   0.51    -0.33  -0.24  -0.57    -0.16  -0.12  -0.29
     4   1    -0.48   0.14   0.00     0.00   0.00   0.00    -0.82   0.28   0.00

 -------------------
 - Thermochemistry -
 -------------------
 Temperature   298.150 Kelvin.  Pressure   1.00000 Atm.
 Atom     1 has atomic number  8 and mass  15.99491
 Atom     2 has atomic number  1 and mass   1.00783
 Atom     3 has atomic number  1 and mass   1.00783
 Atom     4 has atomic number  1 and mass   1.00783
 Molecular mass:    19.01839 amu.
 Principal axes and moments of inertia in atomic units:
                           1         2         3
     Eigenvalues --     5.56498   5.58012   9.16174
           X            0.99999   0.00000  -0.00429
           Y            0.00429   0.00000   0.99999
           Z            0.00000   1.00000   0.00000
 This molecule is an asymmetric top.
 Rotational symmetry number  1.
 Rotational temperatures (Kelvin)     15.56408    15.52185     9.45386
 Rotational constants (GHZ):         324.30329   323.42320   196.98664
 Zero-point vibrational energy      92128.6 (Joules/Mol)
                                   22.01926 (Kcal/Mol)
 Vibrational temperatures:   1471.47  2369.59  2374.46  5224.96  5350.15
          (Kelvin)           5370.38
 
 Zero-point correction=                           0.035090 (Hartree/Particle)
 Thermal correction to Energy=                    0.037961
 Thermal correction to Enthalpy=                  0.038906
 Thermal correction to Gibbs Free Energy=         0.015963
 Sum of electronic and zero-point Energies=            -76.789283
 Sum of electronic and thermal Energies=               -76.786412
 Sum of electronic and thermal Enthalpies=             -76.785467
 Sum of electronic and thermal Free Energies=          -76.808410
 
                     E (Thermal)             CV                S
                      KCal/Mol        Cal/Mol-Kelvin    Cal/Mol-Kelvin
 Total                   23.821              6.403             48.286
 Electronic               0.000              0.000              0.000
 Translational            0.889              2.981             34.771
 Rotational               0.889              2.981             13.418
 Vibrational             22.044              0.441              0.098
                       Q            Log10(Q)             Ln(Q)
 Total Bot       0.454292D-07         -7.342664        -16.907110
 Total V=0       0.627397D+09          8.797543         20.257091
 Vib (Bot)       0.729845D-16        -16.136769        -37.156285
 Vib (V=0)       0.100795D+01          0.003438          0.007916
 Electronic      0.100000D+01          0.000000          0.000000
 Translational   0.325999D+07          6.513216         14.997234
 Rotational      0.190937D+03          2.280889          5.251941
 ***** Axes restored to original set *****
 -------------------------------------------------------------------
 Center     Atomic                   Forces (Hartrees/Bohr)
 Number     Number              X              Y              Z
 -------------------------------------------------------------------
      1        8          -0.000048654   -0.000068844   -0.000097126
      2        1           0.000045698    0.000043238   -0.000303192
      3        1           0.000025503    0.000057510   -0.000303192
      4        1          -0.000022547   -0.000031904    0.000703509
 -------------------------------------------------------------------
 Cartesian Forces:  Max     0.000703509 RMS     0.000242342

 GradGradGradGradGradGradGradGradGradGradGradGradGradGradGradGradGradGrad
 Berny optimization.
 Internal  Forces:  Max     0.000076650 RMS     0.000046970
 Search for a local minimum.
 Step number   1 out of a maximum of    2
 All quantities printed in internal units (Hartrees-Bohrs-Radians)
 Second derivative matrix not updated -- analytic derivatives used.
 The second derivative matrix:
                          R1        R2        R3        A1        A2
           R1           0.48877
           R2           0.00164   0.48877
           R3           0.00181   0.00181   0.49425
           A1           0.00495   0.00495  -0.00515   0.05251
           A2           0.00941  -0.00054   0.01251  -0.04090   0.11349
           A3          -0.00054   0.00941   0.01251  -0.04090  -0.02009
           D1           0.01131   0.01131   0.00867   0.01502   0.00603
                          A3        D1
           A3           0.11349
           D1           0.00603   0.02547
     Eigenvalues ---    0.03597   0.13330   0.13348   0.48741   0.48954
     Eigenvalues ---    0.497041000.00000
 Angle between quadratic step and forces=  33.35 degrees.
 Linear search not attempted -- first point.
 Iteration  1 RMS(Cart)=  0.00041069 RMS(Int)=  0.00000040
 Iteration  2 RMS(Cart)=  0.00000023 RMS(Int)=  0.00000032
 ClnCor:  largest displacement from symmetrization is 1.56D-13 for atom     3.
 Variable       Old X    -DE/DX   Delta X   Delta X   Delta X     New X
                                 (Linear)    (Quad)   (Total)
    R1        1.84969  -0.00001   0.00000   0.00002   0.00002   1.84971
    R2        1.84969  -0.00001   0.00000   0.00002   0.00002   1.84971
    R3        1.84875  -0.00001   0.00000   0.00003   0.00003   1.84879
    A1        1.90320   0.00005   0.00000   0.00003   0.00003   1.90323
    A2        1.90740  -0.00008   0.00000  -0.00076  -0.00076   1.90664
    A3        1.90740  -0.00008   0.00000  -0.00076  -0.00076   1.90664
    D1        2.08141  -0.00003   0.00000  -0.00087  -0.00087   2.08054
         Item               Value     Threshold  Converged?
 Maximum Force            0.000077     0.000450     YES
 RMS     Force            0.000047     0.000300     YES
 Maximum Displacement     0.000594     0.001800     YES
 RMS     Displacement     0.000411     0.001200     YES
 Predicted change in Energy=-7.154222D-08
 Optimization completed.
    -- Stationary point found.
                           ----------------------------
                           !   Optimized Parameters   !
                           ! (Angstroms and Degrees)  !
 --------------------------                            --------------------------
 ! Name  Definition              Value          Derivative Info.                !
 --------------------------------------------------------------------------------
 ! R1    R(1,2)                  0.9788         -DE/DX =    0.0                 !
 ! R2    R(1,3)                  0.9788         -DE/DX =    0.0                 !
 ! R3    R(1,4)                  0.9783         -DE/DX =    0.0                 !
 ! A1    A(2,1,3)              109.0453         -DE/DX =    0.0001              !
 ! A2    A(2,1,4)              109.2858         -DE/DX =   -0.0001              !
 ! A3    A(3,1,4)              109.2858         -DE/DX =   -0.0001              !
 ! D1    D(2,1,4,3)            119.2559         -DE/DX =    0.0                 !
 --------------------------------------------------------------------------------
 GradGradGradGradGradGradGradGradGradGradGradGradGradGradGradGradGradGrad

 1|1|UNPC-DESKTOP-319GPER|Freq|RM062X|6-31+G(d,p)|H3O1(1+)|SAGAD|19-Jan
 -2021|0||#N Geom=AllCheck Guess=TCheck SCRF=Check GenChk RM062X/6-31+G
 (d,p) Freq||Hidronio m062x||1,1|O,-0.0500881658,-0.9660602011,-0.11221
 17382|H,0.8297129235,-1.1022647997,0.2945740491|H,-0.4721639228,-0.182
 1892278,0.2945740515|H,-0.606839047,-1.7538444918,0.0506679189||Versio
 n=IA32W-G09RevA.02|State=1-A'|HF=-76.8243731|RMSD=7.159e-011|RMSF=2.42
 3e-004|ZeroPoint=0.0350899|Thermal=0.0379615|Dipole=-0.0826166,-0.1168
 998,0.810769|DipoleDeriv=-0.6390118,0.0049165,-0.0156942,0.0049165,-0.
 6355298,-0.0222068,-0.012392,-0.0175342,-0.5057253,0.6523783,-0.023273
 6,0.0330371,-0.0214651,0.4366982,-0.0127273,0.0245841,-0.0127709,0.501
 7675,0.4748083,-0.0843459,-0.0230253,-0.0861544,0.6142682,0.0268937,-0
 .0202447,0.018911,0.5017675,0.5118252,0.102703,0.0056824,0.102703,0.58
 45633,0.0080404,0.0080525,0.0113941,0.5021903|Polar=6.6916748,-0.02053
 16,6.6771336,0.1569284,0.2220485,5.1891994|PG=CS [SG(H1O1),X(H2)]|NIma
 g=0||0.72405489,-0.00563492,0.72006403,0.04783628,0.06768678,0.2337242
 2,-0.37966012,0.05045708,-0.15259798,0.40588924,0.05626992,-0.07637273
 ,0.02051785,-0.05632198,0.06636989,-0.19877249,0.02479889,-0.10365574,
 0.16944494,-0.02300849,0.09540715,-0.14374988,0.13981012,0.07027923,-0
 .01066525,0.02900762,0.01940766,0.13964610,0.13399728,-0.31228296,-0.1
 3699619,0.00301475,0.00067446,-0.00094338,-0.15060363,0.33261304,0.089
 72809,-0.17909315,-0.10365574,-0.00736768,0.01797956,0.00719129,-0.078
 25065,0.15204544,0.09540715,-0.20064488,-0.18463229,0.03448247,-0.0155
 6387,-0.02895556,0.00991989,0.01476904,0.01359160,-0.00410976,0.201439
 72,-0.18463229,-0.33140834,0.04879157,0.00285015,0.00932837,-0.0008470
 2,-0.01821411,-0.02100454,0.00906816,0.19999626,0.34308450,0.06120812,
 0.08660749,-0.02641274,-0.00947928,-0.01548891,0.00105730,-0.01143624,
 -0.01410586,0.00105730,-0.04029260,-0.05701271,0.02429815||0.00004865,
 0.00006884,0.00009713,-0.00004570,-0.00004324,0.00030319,-0.00002550,-
 0.00005751,0.00030319,0.00002255,0.00003190,-0.00070351|||@


      LET US REMEMBER, PLEASE, THAT THE SEARCH FOR THE CONSTITUTION
      OF THE WORLD IS ONE OF THE GREATEST AND NOBLEST PROBLEMS PRESENTED 
      BY NATURE.

                                                  -- GALILEO
 Job cpu time:  0 days  0 hours  0 minutes  7.0 seconds.
 File lengths (MBytes):  RWF=      5 Int=      0 D2E=      0 Chk=      2 Scr=      1
 Normal termination of Gaussian 09 at Tue Jan 19 19:44:40 2021.
