 Entering Link 1 = C:\G09W\l1.exe PID=      8952.
  
 Copyright (c) 1988,1990,1992,1993,1995,1998,2003,2009, Gaussian, Inc.
                  All Rights Reserved.
  
 This is part of the Gaussian(R) 09 program.  It is based on
 the Gaussian(R) 03 system (copyright 2003, Gaussian, Inc.),
 the Gaussian(R) 98 system (copyright 1998, Gaussian, Inc.),
 the Gaussian(R) 94 system (copyright 1995, Gaussian, Inc.),
 the Gaussian 92(TM) system (copyright 1992, Gaussian, Inc.),
 the Gaussian 90(TM) system (copyright 1990, Gaussian, Inc.),
 the Gaussian 88(TM) system (copyright 1988, Gaussian, Inc.),
 the Gaussian 86(TM) system (copyright 1986, Carnegie Mellon
 University), and the Gaussian 82(TM) system (copyright 1983,
 Carnegie Mellon University). Gaussian is a federally registered
 trademark of Gaussian, Inc.
  
 This software contains proprietary and confidential information,
 including trade secrets, belonging to Gaussian, Inc.
  
 This software is provided under written license and may be
 used, copied, transmitted, or stored only in accord with that
 written license.
  
 The following legend is applicable only to US Government
 contracts under FAR:
  
                    RESTRICTED RIGHTS LEGEND
  
 Use, reproduction and disclosure by the US Government is
 subject to restrictions as set forth in subparagraphs (a)
 and (c) of the Commercial Computer Software - Restricted
 Rights clause in FAR 52.227-19.
  
 Gaussian, Inc.
 340 Quinnipiac St., Bldg. 40, Wallingford CT 06492
  
  
 ---------------------------------------------------------------
 Warning -- This program may not be used in any manner that
 competes with the business of Gaussian, Inc. or will provide
 assistance to any competitor of Gaussian, Inc.  The licensee
 of this program is prohibited from giving any competitor of
 Gaussian, Inc. access to this program.  By using this program,
 the user acknowledges that Gaussian, Inc. is engaged in the
 business of creating and licensing software in the field of
 computational chemistry and represents and warrants to the
 licensee that it is not a competitor of Gaussian, Inc. and that
 it will not use this program in any manner prohibited above.
 ---------------------------------------------------------------
  

 Cite this work as:
 Gaussian 09, Revision A.02,
 M. J. Frisch, G. W. Trucks, H. B. Schlegel, G. E. Scuseria, 
 M. A. Robb, J. R. Cheeseman, G. Scalmani, V. Barone, B. Mennucci, 
 G. A. Petersson, H. Nakatsuji, M. Caricato, X. Li, H. P. Hratchian, 
 A. F. Izmaylov, J. Bloino, G. Zheng, J. L. Sonnenberg, M. Hada, 
 M. Ehara, K. Toyota, R. Fukuda, J. Hasegawa, M. Ishida, T. Nakajima, 
 Y. Honda, O. Kitao, H. Nakai, T. Vreven, J. A. Montgomery, Jr., 
 J. E. Peralta, F. Ogliaro, M. Bearpark, J. J. Heyd, E. Brothers, 
 K. N. Kudin, V. N. Staroverov, R. Kobayashi, J. Normand, 
 K. Raghavachari, A. Rendell, J. C. Burant, S. S. Iyengar, J. Tomasi, 
 M. Cossi, N. Rega, J. M. Millam, M. Klene, J. E. Knox, J. B. Cross, 
 V. Bakken, C. Adamo, J. Jaramillo, R. Gomperts, R. E. Stratmann, 
 O. Yazyev, A. J. Austin, R. Cammi, C. Pomelli, J. W. Ochterski, 
 R. L. Martin, K. Morokuma, V. G. Zakrzewski, G. A. Voth, 
 P. Salvador, J. J. Dannenberg, S. Dapprich, A. D. Daniels, 
 O. Farkas, J. B. Foresman, J. V. Ortiz, J. Cioslowski, 
 and D. J. Fox, Gaussian, Inc., Wallingford CT, 2009.
 
 ******************************************
 Gaussian 09:  IA32W-G09RevA.02 11-Jun-2009
                19-Jan-2021 
 ******************************************
 %chk=D:\Documents\rayGit\FQ\quimicaComputacional\p4Pka\reactivos\hidronio3Waters
 M062x.chk
 %mem=1500MB
 %nprocshared=4
 Will use up to    4 processors via shared memory.
 -------------------------------------
 # opt freq 6-31+g(d,p) scrf=smd m062x
 -------------------------------------
 1/14=-1,18=20,19=15,26=3,38=1/1,3;
 2/9=110,12=2,17=6,18=5,40=1/2;
 3/5=1,6=6,7=111,11=2,16=1,25=1,30=1,70=32201,71=1,72=1,74=-55/1,2,3;
 4//1;
 5/5=2,38=5/2;
 6/7=2,8=2,9=2,10=2,28=1/1;
 7//1,2,3,16;
 1/14=-1,18=20,19=15/3(2);
 2/9=110/2;
 99//99;
 2/9=110/2;
 3/5=1,6=6,7=111,11=2,16=1,25=1,30=1,70=32205,71=1,74=-55/1,2,3;
 4/5=5,16=3/1;
 5/5=2,38=5/2;
 7//1,2,3,16;
 1/14=-1,18=20,19=15/3(-5);
 2/9=110/2;
 6/7=2,8=2,9=2,10=2,19=2,28=1/1;
 99/9=1/99;
 -----------------------------
 Hidronio m062x con tres aguas
 -----------------------------
 Symbolic Z-matrix:
 Charge =  1 Multiplicity = 1
 O                    -0.00019   0.49534   0. 
 H                    -0.46115   0.16332   0.79709 
 H                    -0.46115   0.16332  -0.79709 
 H                     0.92173   0.16797   0. 
 O                     2.58026  -0.42097   0. 
 O                    -1.29     -0.43368  -2.23034 
 O                    -1.29     -0.43368   2.23034 
 H                     3.3108    0.20186   0. 
 H                     2.75439  -1.36505   0. 
 H                    -0.74916  -0.26653  -3.00568 
 H                    -2.13211   0.01756  -2.32426 
 H                    -0.74916  -0.26653   3.00568 
 H                    -2.13211   0.01756   2.32426 
 

 GradGradGradGradGradGradGradGradGradGradGradGradGradGradGradGradGradGrad
 Berny optimization.
 Initialization pass.
                           ----------------------------
                           !    Initial Parameters    !
                           ! (Angstroms and Degrees)  !
 --------------------------                            --------------------------
 ! Name  Definition              Value          Derivative Info.                !
 --------------------------------------------------------------------------------
 ! R1    R(1,2)                  0.9788         estimate D2E/DX2                !
 ! R2    R(1,3)                  0.9788         estimate D2E/DX2                !
 ! R3    R(1,4)                  0.9783         estimate D2E/DX2                !
 ! R4    R(2,7)                  1.76           estimate D2E/DX2                !
 ! R5    R(3,6)                  1.76           estimate D2E/DX2                !
 ! R6    R(4,5)                  1.76           estimate D2E/DX2                !
 ! R7    R(5,8)                  0.96           estimate D2E/DX2                !
 ! R8    R(5,9)                  0.96           estimate D2E/DX2                !
 ! R9    R(6,10)                 0.96           estimate D2E/DX2                !
 ! R10   R(6,11)                 0.96           estimate D2E/DX2                !
 ! R11   R(7,12)                 0.96           estimate D2E/DX2                !
 ! R12   R(7,13)                 0.96           estimate D2E/DX2                !
 ! A1    A(2,1,3)              109.0453         estimate D2E/DX2                !
 ! A2    A(2,1,4)              109.2858         estimate D2E/DX2                !
 ! A3    A(3,1,4)              109.2858         estimate D2E/DX2                !
 ! A4    A(4,5,8)              120.0            estimate D2E/DX2                !
 ! A5    A(4,5,9)              120.0            estimate D2E/DX2                !
 ! A6    A(8,5,9)              120.0            estimate D2E/DX2                !
 ! A7    A(3,6,10)             109.4712         estimate D2E/DX2                !
 ! A8    A(3,6,11)             109.4712         estimate D2E/DX2                !
 ! A9    A(10,6,11)            109.4712         estimate D2E/DX2                !
 ! A10   A(2,7,12)             109.4712         estimate D2E/DX2                !
 ! A11   A(2,7,13)             109.4712         estimate D2E/DX2                !
 ! A12   A(12,7,13)            109.4712         estimate D2E/DX2                !
 ! A13   L(1,2,7,3,-1)         180.0            estimate D2E/DX2                !
 ! A14   L(1,3,6,2,-1)         180.0            estimate D2E/DX2                !
 ! A15   L(1,4,5,2,-1)         180.0            estimate D2E/DX2                !
 ! A16   L(1,2,7,3,-2)         180.0            estimate D2E/DX2                !
 ! A17   L(1,3,6,2,-2)         180.0            estimate D2E/DX2                !
 ! A18   L(1,4,5,2,-2)         180.0            estimate D2E/DX2                !
 ! D1    D(2,1,5,8)           -120.372          estimate D2E/DX2                !
 ! D2    D(2,1,5,9)             59.628          estimate D2E/DX2                !
 ! D3    D(3,1,5,8)            120.372          estimate D2E/DX2                !
 ! D4    D(3,1,5,9)            -59.628          estimate D2E/DX2                !
 ! D5    D(2,1,6,10)          -168.499          estimate D2E/DX2                !
 ! D6    D(2,1,6,11)            71.501          estimate D2E/DX2                !
 ! D7    D(4,1,6,10)           -49.0944         estimate D2E/DX2                !
 ! D8    D(4,1,6,11)          -169.0944         estimate D2E/DX2                !
 ! D9    D(3,1,7,12)           168.499          estimate D2E/DX2                !
 ! D10   D(3,1,7,13)           -71.501          estimate D2E/DX2                !
 ! D11   D(4,1,7,12)            49.0944         estimate D2E/DX2                !
 ! D12   D(4,1,7,13)           169.0944         estimate D2E/DX2                !
 --------------------------------------------------------------------------------
 Trust Radius=3.00D-01 FncErr=1.00D-07 GrdErr=1.00D-06
 Number of steps in this run=  52 maximum allowed number of steps= 100.
 GradGradGradGradGradGradGradGradGradGradGradGradGradGradGradGradGradGrad

                          Input orientation:                          
 ---------------------------------------------------------------------
 Center     Atomic      Atomic             Coordinates (Angstroms)
 Number     Number       Type             X           Y           Z
 ---------------------------------------------------------------------
      1          8           0       -0.000191    0.495344    0.000000
      2          1           0       -0.461150    0.163324    0.797092
      3          1           0       -0.461150    0.163324   -0.797092
      4          1           0        0.921727    0.167973    0.000000
      5          8           0        2.580264   -0.420970    0.000000
      6          8           0       -1.289998   -0.433680   -2.230339
      7          8           0       -1.289998   -0.433680    2.230339
      8          1           0        3.310796    0.201865    0.000000
      9          1           0        2.754389   -1.365047    0.000000
     10          1           0       -0.749164   -0.266528   -3.005683
     11          1           0       -2.132114    0.017564   -2.324257
     12          1           0       -0.749164   -0.266528    3.005683
     13          1           0       -2.132114    0.017564    2.324257
 ---------------------------------------------------------------------
                    Distance matrix (angstroms):
                    1          2          3          4          5
     1  O    0.000000
     2  H    0.978814   0.000000
     3  H    0.978814   1.594184   0.000000
     4  H    0.978317   1.596160   1.596160   0.000000
     5  O    2.738317   3.197961   3.197961   1.760000   0.000000
     6  O    2.738814   3.195112   1.760000   3.198144   4.466935
     7  O    2.738814   1.760000   3.195112   3.198144   4.466935
     8  H    3.323968   3.855440   3.855440   2.389310   0.960000
     9  H    3.323968   3.648420   3.648420   2.389310   0.960000
    10  H    3.189912   3.837815   2.268392   3.466237   4.488104
    11  H    3.189912   3.543471   2.268392   3.840669   5.272665
    12  H    3.189912   2.268392   3.837815   3.466237   4.488104
    13  H    3.189912   2.268392   3.543471   3.840669   5.272665
                    6          7          8          9         10
     6  O    0.000000
     7  O    4.460678   0.000000
     8  H    5.152246   5.152246   0.000000
     9  H    4.711574   4.711574   1.662769   0.000000
    10  H    0.960000   5.266533   5.073145   4.745077   0.000000
    11  H    0.960000   4.653722   5.921267   5.584953   1.567673
    12  H    5.266533   0.960000   5.073145   4.745077   6.011367
    13  H    4.653722   0.960000   5.921267   5.584953   5.513758
                   11         12         13
    11  H    0.000000
    12  H    5.513758   0.000000
    13  H    4.648515   1.567673   0.000000
 Stoichiometry    H9O4(1+)
 Framework group  CS[SG(H3O2),X(H6O2)]
 Deg. of freedom    19
 Full point group                 CS      NOp   2
 Largest Abelian subgroup         CS      NOp   2
 Largest concise Abelian subgroup CS      NOp   2
                         Standard orientation:                         
 ---------------------------------------------------------------------
 Center     Atomic      Atomic             Coordinates (Angstroms)
 Number     Number       Type             X           Y           Z
 ---------------------------------------------------------------------
      1          8           0       -0.554998    0.390421    0.000000
      2          1           0       -0.554998   -0.177664    0.797092
      3          1           0       -0.554998   -0.177664   -0.797092
      4          1           0        0.249459    0.947156    0.000000
      5          8           0        1.696683    1.948726    0.000000
      6          8           0       -0.554998   -1.199134   -2.230339
      7          8           0       -0.554998   -1.199134    2.230339
      8          1           0        1.618261    2.905518    0.000000
      9          1           0        2.564499    1.538246    0.000000
     10          1           0       -0.374536   -0.662595   -3.005683
     11          1           0       -1.413328   -1.618717   -2.324257
     12          1           0       -0.374536   -0.662595    3.005683
     13          1           0       -1.413328   -1.618717    2.324257
 ---------------------------------------------------------------------
 Rotational constants (GHZ):      2.5046816      2.4983292      1.3315823
 Standard basis: 6-31+G(d,p) (6D, 7F)
 There are    74 symmetry adapted basis functions of A'  symmetry.
 There are    47 symmetry adapted basis functions of A"  symmetry.
 Integral buffers will be    262144 words long.
 Raffenetti 2 integral format.
 Two-electron integral symmetry is turned on.
   121 basis functions,   191 primitive gaussians,   121 cartesian basis functions
    20 alpha electrons       20 beta electrons
       nuclear repulsion energy       138.9460312220 Hartrees.
 NAtoms=   13 NActive=   13 NUniq=    9 SFac= 1.56D+00 NAtFMM=   80 NAOKFM=F Big=F
 ------------------------------------------------------------------------------
 Polarizable Continuum Model (PCM)
 =================================
 Model                : PCM.
 Atomic radii         : SMD-Coulomb.
 Polarization charges : Total charges.
 Charge compensation  : None.
 Solution method      : Matrix inversion.
 Cavity type          : VdW (van der Waals Surface) (Alpha=1.000).
 Cavity algorithm     : GePol (No added spheres)
                        Default sphere list used, NSphG=   13.
                        Lebedev-Laikov grids with approx.  5.0 points / Ang**2.
                        Smoothing algorithm: Karplus/York (Gamma=1.0000).
                        Polarization charges: spherical gaussians, with
                                              point-specific exponents (IZeta= 3).
                        Self-potential: point-specific (ISelfS= 7).
                        Self-field    : sphere-specific E.n sum rule (ISelfD= 2).
 1st derivatives      : Analytical E(r).r(x)/FMM algorithm (CHGder, D1EAlg=3).
                        Cavity 1st derivative terms included.
 Solvent              : Water, Eps=  78.355300 Eps(inf)=   1.777849
 ------------------------------------------------------------------------------
 Spheres list:
 ISph  on   Nord    Re0     Alpha      Xe            Ye            Ze
    1   O      1    1.520   1.000     -0.554998      0.390421      0.000000
    2   H      2    1.200   1.000     -0.554998     -0.177664      0.797092
    3   H      3    1.200   1.000     -0.554998     -0.177664     -0.797092
    4   H      4    1.200   1.000      0.249459      0.947156      0.000000
    5   O      5    1.520   1.000      1.696683      1.948726      0.000000
    6   O      6    1.520   1.000     -0.554998     -1.199134     -2.230339
    7   O      7    1.520   1.000     -0.554998     -1.199134      2.230339
    8   H      8    1.200   1.000      1.618261      2.905518      0.000000
    9   H      9    1.200   1.000      2.564499      1.538246      0.000000
   10   H     10    1.200   1.000     -0.374536     -0.662595     -3.005683
   11   H     11    1.200   1.000     -1.413328     -1.618717     -2.324257
   12   H     12    1.200   1.000     -0.374536     -0.662595      3.005683
   13   H     13    1.200   1.000     -1.413328     -1.618717      2.324257
 ------------------------------------------------------------------------------
 ------------------------------------------------------------------------------
 Atomic radii for non-electrostatic terms: SMD-CDS.
 ------------------------------------------------------------------------------
 Nuclear repulsion after PCM non-electrostatic terms =      138.9539525355 Hartrees.
 One-electron integrals computed using PRISM.
 NBasis=   121 RedAO= T  NBF=    74    47
 NBsUse=   121 1.00D-06 NBFU=    74    47
 Harris functional with IExCor= 1009 diagonalized for initial guess.
 ExpMin= 8.45D-02 ExpMax= 5.48D+03 ExpMxC= 8.25D+02 IAcc=2 IRadAn=         0 AccDes= 0.00D+00
 HarFok:  IExCor= 1009 AccDes= 0.00D+00 IRadAn=         0 IDoV= 1
 ScaDFX=  1.000000  1.000000  1.000000  1.000000
 FoFCou: FMM=F IPFlag=           0 FMFlag=      100000 FMFlg1=           0
         NFxFlg=           0 DoJE=T BraDBF=F KetDBF=T FulRan=T
         Omega=  0.000000  0.000000  1.000000  0.000000  0.000000 ICntrl=     500 IOpCl=  0
         NMat0=    1 NMatS0=    1 NMatT0=    0 NMatD0=    1 NMtDS0=    0 NMtDT0=    0
         I1Cent=           4 NGrid=           0.
 Petite list used in FoFCou.
 Initial guess orbital symmetries:
       Occupied  (A') (A") (A') (A') (A') (A") (A') (A') (A') (A")
                 (A') (A") (A') (A') (A") (A') (A') (A') (A") (A")
       Virtual   (A') (A') (A") (A') (A') (A') (A") (A') (A") (A')
                 (A") (A') (A') (A") (A') (A') (A") (A') (A") (A")
                 (A') (A') (A') (A") (A') (A') (A") (A') (A') (A")
                 (A') (A") (A') (A') (A") (A') (A') (A') (A") (A')
                 (A") (A") (A') (A') (A") (A') (A') (A") (A') (A')
                 (A") (A") (A') (A") (A') (A") (A') (A") (A') (A")
                 (A') (A") (A') (A') (A") (A') (A') (A") (A') (A")
                 (A') (A') (A") (A") (A') (A') (A") (A') (A") (A')
                 (A") (A") (A') (A') (A") (A') (A") (A') (A') (A")
                 (A') (A') (A') (A") (A') (A") (A') (A') (A") (A')
                 (A')
 The electronic state of the initial guess is 1-A'.
 Requested convergence on RMS density matrix=1.00D-08 within 128 cycles.
 Requested convergence on MAX density matrix=1.00D-06.
 Requested convergence on             energy=1.00D-06.
 No special actions if energy rises.
 Keep R1 ints in memory in canonical form, NReq=31313381.
 Error on total polarization charges =  0.03949
 SCF Done:  E(RM062X) =  -306.084934613     A.U. after    9 cycles
             Convg  =    0.4978D-08             -V/T =  2.0088
 SMD-CDS (non-electrostatic) energy             (kcal/mol) =       4.97
 (included in total energy above)

 **********************************************************************

            Population analysis using the SCF density.

 **********************************************************************

 Orbital symmetries:
       Occupied  (A') (A") (A') (A') (A') (A") (A') (A') (A') (A")
                 (A') (A') (A") (A') (A") (A') (A') (A') (A") (A")
       Virtual   (A') (A') (A") (A') (A') (A") (A') (A') (A") (A")
                 (A') (A') (A") (A') (A") (A') (A') (A") (A') (A")
                 (A') (A') (A') (A") (A') (A') (A") (A') (A') (A")
                 (A') (A') (A") (A') (A') (A') (A") (A') (A') (A")
                 (A') (A") (A") (A') (A") (A') (A') (A") (A') (A')
                 (A") (A') (A") (A") (A') (A") (A') (A") (A') (A')
                 (A") (A") (A') (A') (A") (A') (A') (A") (A") (A')
                 (A') (A') (A") (A") (A') (A") (A') (A') (A") (A')
                 (A") (A") (A') (A') (A") (A') (A") (A') (A') (A")
                 (A') (A') (A') (A") (A') (A") (A') (A') (A") (A')
                 (A')
 The electronic state is 1-A'.
 Alpha  occ. eigenvalues --  -19.73827 -19.66550 -19.66550 -19.66137  -1.25116
 Alpha  occ. eigenvalues --   -1.14832  -1.14742  -1.14091  -0.69363  -0.69239
 Alpha  occ. eigenvalues --   -0.64384  -0.62764  -0.62753  -0.52940  -0.48664
 Alpha  occ. eigenvalues --   -0.48437  -0.47193  -0.42307  -0.41875  -0.41570
 Alpha virt. eigenvalues --    0.04865   0.08370   0.08423   0.11942   0.12680
 Alpha virt. eigenvalues --    0.14042   0.14314   0.16445   0.17743   0.20616
 Alpha virt. eigenvalues --    0.21320   0.22246   0.23856   0.24216   0.24739
 Alpha virt. eigenvalues --    0.25714   0.26990   0.30337   0.30341   0.31731
 Alpha virt. eigenvalues --    0.31746   0.33532   0.36733   0.37400   0.38261
 Alpha virt. eigenvalues --    0.98853   1.00909   1.03488   1.04313   1.04518
 Alpha virt. eigenvalues --    1.05060   1.08546   1.08614   1.09625   1.13312
 Alpha virt. eigenvalues --    1.14526   1.14669   1.17199   1.18424   1.19040
 Alpha virt. eigenvalues --    1.19434   1.19920   1.20716   1.23853   1.24402
 Alpha virt. eigenvalues --    1.25054   1.34425   1.44051   1.45371   1.47571
 Alpha virt. eigenvalues --    1.48200   1.50889   1.52942   1.54915   1.56707
 Alpha virt. eigenvalues --    1.59843   1.63954   1.71566   1.74135   1.83651
 Alpha virt. eigenvalues --    1.83654   2.09945   2.17313   2.25884   2.26383
 Alpha virt. eigenvalues --    2.26401   2.28520   2.28538   2.38251   2.40173
 Alpha virt. eigenvalues --    2.41415   2.58431   2.58448   2.59691   2.63060
 Alpha virt. eigenvalues --    2.64232   2.65293   2.66531   2.67893   2.69662
 Alpha virt. eigenvalues --    2.69814   2.76623   2.82587   3.01125   3.05669
 Alpha virt. eigenvalues --    3.06641   3.07699   3.07753   3.34056   3.38394
 Alpha virt. eigenvalues --    3.40058   3.48510   3.51257   3.53741   3.54190
 Alpha virt. eigenvalues --    3.64187   3.65605   4.08234   4.15245   4.20156
 Alpha virt. eigenvalues --    4.46698
          Condensed to atoms (all electrons):
              1          2          3          4          5          6
     1  O    8.079111   0.239661   0.239661   0.247388  -0.040869  -0.049305
     2  H    0.239661   0.203292  -0.007256  -0.007356   0.001114   0.002049
     3  H    0.239661  -0.007256   0.203292  -0.007356   0.001114   0.040529
     4  H    0.247388  -0.007356  -0.007356   0.200905   0.029727   0.001952
     5  O   -0.040869   0.001114   0.001114   0.029727   8.291059   0.000548
     6  O   -0.049305   0.002049   0.040529   0.001952   0.000548   8.284145
     7  O   -0.049305   0.040529   0.002049   0.001952   0.000548   0.000816
     8  H    0.002121  -0.000018  -0.000018  -0.001336   0.292097   0.000000
     9  H    0.001897  -0.000037  -0.000037  -0.001399   0.294927  -0.000009
    10  H    0.001742  -0.000001  -0.002574  -0.000064  -0.000036   0.291944
    11  H    0.001773  -0.000049  -0.002560   0.000001  -0.000008   0.291875
    12  H    0.001742  -0.002574  -0.000001  -0.000064  -0.000036  -0.000013
    13  H    0.001773  -0.002560  -0.000049   0.000001  -0.000008  -0.000026
              7          8          9         10         11         12
     1  O   -0.049305   0.002121   0.001897   0.001742   0.001773   0.001742
     2  H    0.040529  -0.000018  -0.000037  -0.000001  -0.000049  -0.002574
     3  H    0.002049  -0.000018  -0.000037  -0.002574  -0.002560  -0.000001
     4  H    0.001952  -0.001336  -0.001399  -0.000064   0.000001  -0.000064
     5  O    0.000548   0.292097   0.294927  -0.000036  -0.000008  -0.000036
     6  O    0.000816   0.000000  -0.000009   0.291944   0.291875  -0.000013
     7  O    8.284145   0.000000  -0.000009  -0.000013  -0.000026   0.291944
     8  H    0.000000   0.270319  -0.011102   0.000000   0.000000   0.000000
     9  H   -0.000009  -0.011102   0.270477   0.000000   0.000000   0.000000
    10  H   -0.000013   0.000000   0.000000   0.279291  -0.015758   0.000000
    11  H   -0.000026   0.000000   0.000000  -0.015758   0.279574   0.000000
    12  H    0.291944   0.000000   0.000000   0.000000   0.000000   0.279291
    13  H    0.291875   0.000000   0.000000   0.000000   0.000001  -0.015758
             13
     1  O    0.001773
     2  H   -0.002560
     3  H   -0.000049
     4  H    0.000001
     5  O   -0.000008
     6  O   -0.000026
     7  O    0.291875
     8  H    0.000000
     9  H    0.000000
    10  H    0.000000
    11  H    0.000001
    12  H   -0.015758
    13  H    0.279574
 Mulliken atomic charges:
              1
     1  O   -0.677388
     2  H    0.533204
     3  H    0.533204
     4  H    0.535648
     5  O   -0.870178
     6  O   -0.864505
     7  O   -0.864505
     8  H    0.447936
     9  H    0.445292
    10  H    0.445469
    11  H    0.445177
    12  H    0.445469
    13  H    0.445177
 Sum of Mulliken atomic charges =   1.00000
 Mulliken charges with hydrogens summed into heavy atoms:
              1
     1  O    0.924668
     5  O    0.023051
     6  O    0.026140
     7  O    0.026140
 Sum of Mulliken charges with hydrogens summed into heavy atoms =   1.00000
 Electronic spatial extent (au):  <R**2>=            831.3444
 Charge=              1.0000 electrons
 Dipole moment (field-independent basis, Debye):
    X=             -1.4365    Y=              1.9053    Z=              0.0000  Tot=              2.3861
 Quadrupole moment (field-independent basis, Debye-Ang):
   XX=            -11.0564   YY=            -15.7989   ZZ=             -1.9689
   XY=             14.0871   XZ=              0.0000   YZ=              0.0000
 Traceless Quadrupole moment (field-independent basis, Debye-Ang):
   XX=             -1.4483   YY=             -6.1908   ZZ=              7.6392
   XY=             14.0871   XZ=              0.0000   YZ=              0.0000
 Octapole moment (field-independent basis, Debye-Ang**2):
  XXX=             14.8832  YYY=             34.2502  ZZZ=              0.0000  XYY=              4.7488
  XXY=              2.3412  XXZ=              0.0000  XZZ=            -29.3759  YZZ=            -14.5871
  YYZ=              0.0000  XYZ=              0.0000
 Hexadecapole moment (field-independent basis, Debye-Ang**3):
 XXXX=            -91.8697 YYYY=           -179.8635 ZZZZ=           -165.4843 XXXY=            -30.3276
 XXXZ=              0.0000 YYYX=            -14.7147 YYYZ=              0.0000 ZZZX=              0.0000
 ZZZY=              0.0000 XXYY=            -25.2289 XXZZ=            -68.5358 YYZZ=           -118.6887
 XXYZ=              0.0000 YYXZ=              0.0000 ZZXY=              6.1834
 N-N= 1.389539525355D+02 E-N=-9.913810486211D+02  KE= 3.034073135230D+02
 Symmetry A'   KE= 2.191966853394D+02
 Symmetry A"   KE= 8.421062818360D+01
 D1PCM: PCM CHGder 1st derivatives, ID1Alg=3 FixD1E=F DoIter=F DoCFld=F I1PDM=0.
 Calling FoFJK, ICntrl=      2127 FMM=F ISym2X=1 I1Cent= 0 IOpClX= 0 NMat=1 NMatS=1 NMatT=0.
 ***** Axes restored to original set *****
 -------------------------------------------------------------------
 Center     Atomic                   Forces (Hartrees/Bohr)
 Number     Number              X              Y              Z
 -------------------------------------------------------------------
      1        8           0.000398711    0.013082850    0.000000000
      2        1          -0.010358748   -0.006480146    0.019440108
      3        1          -0.010358748   -0.006480146   -0.019440108
      4        1           0.020757164   -0.007168899    0.000000000
      5        8          -0.034123282    0.012247925    0.000000000
      6        8           0.007601695   -0.006220383    0.017789154
      7        8           0.007601695   -0.006220383   -0.017789154
      8        1           0.011458432   -0.011422344    0.000000000
      9        1           0.015977668    0.001688440    0.000000000
     10        1          -0.000927439    0.004024037   -0.006818219
     11        1          -0.003549854    0.004462506   -0.005568585
     12        1          -0.000927439    0.004024037    0.006818219
     13        1          -0.003549854    0.004462506    0.005568585
 -------------------------------------------------------------------
 Cartesian Forces:  Max     0.034123282 RMS     0.010886724

 GradGradGradGradGradGradGradGradGradGradGradGradGradGradGradGradGradGrad
 Berny optimization.
 Internal  Forces:  Max     0.019436267 RMS     0.006372521
 Search for a local minimum.
 Step number   1 out of a maximum of   52
 All quantities printed in internal units (Hartrees-Bohrs-Radians)
 Mixed Optimization -- RFO/linear search
 Second derivative matrix not updated -- first step.
     Eigenvalues ---    0.00230   0.00230   0.00230   0.00230   0.00230
     Eigenvalues ---    0.00230   0.00230   0.00230   0.00230   0.00230
     Eigenvalues ---    0.02696   0.05174   0.05183   0.06593   0.06593
     Eigenvalues ---    0.06593   0.11840   0.11871   0.16000   0.16000
     Eigenvalues ---    0.16000   0.16000   0.16000   0.16000   0.51616
     Eigenvalues ---    0.51616   0.51713   0.55473   0.55473   0.55473
     Eigenvalues ---    0.55473   0.55473   0.554731000.000001000.00000
     Eigenvalues --- 1000.000001000.000001000.000001000.000001000.00000
     Eigenvalues --- 1000.000001000.00000
 RFO step:  Lambda=-8.08220380D-03 EMin= 2.30000000D-03
 Linear search not attempted -- first point.
 Iteration  1 RMS(Cart)=  0.03218399 RMS(Int)=  0.00082942
 Iteration  2 RMS(Cart)=  0.00099336 RMS(Int)=  0.00006442
 Iteration  3 RMS(Cart)=  0.00000043 RMS(Int)=  0.00006442
 ClnCor:  largest displacement from symmetrization is 1.93D-02 for atom    12.
 Variable       Old X    -DE/DX   Delta X   Delta X   Delta X     New X
                                 (Linear)    (Quad)   (Total)
    R1        1.84969   0.01627   0.00000   0.03104   0.03577   1.88546
    R2        1.84969   0.01627   0.00000   0.03104   0.03577   1.88546
    R3        1.84875   0.01481   0.00000   0.02819   0.02819   1.87694
    R4        3.32592  -0.00663   0.00000  -0.08965  -0.09898   3.22694
    R5        3.32592  -0.00663   0.00000  -0.08965  -0.09898   3.22694
    R6        3.32592  -0.00715   0.00000  -0.09660  -0.09666   3.22926
    R7        1.81414   0.00132   0.00000   0.00234   0.00234   1.81647
    R8        1.81414   0.00123   0.00000   0.00218   0.00218   1.81631
    R9        1.81414   0.00568   0.00000   0.01010   0.01010   1.82424
   R10        1.81414   0.00575   0.00000   0.01022   0.01022   1.82436
   R11        1.81414   0.00568   0.00000   0.01010   0.01010   1.82424
   R12        1.81414   0.00575   0.00000   0.01022   0.01022   1.82436
    A1        1.90320   0.00108   0.00000   0.01462   0.01592   1.91912
    A2        1.90740  -0.00006   0.00000   0.00517   0.00553   1.91292
    A3        1.90740  -0.00006   0.00000   0.00517   0.00553   1.91292
    A4        2.09440   0.00980   0.00000   0.05831   0.05832   2.15271
    A5        2.09440   0.00964   0.00000   0.05732   0.05732   2.15171
    A6        2.09440  -0.01944   0.00000  -0.11564  -0.11563   1.97876
    A7        1.91063   0.00248   0.00000   0.00396   0.00318   1.91382
    A8        1.91063   0.00257   0.00000   0.00451   0.00361   1.91425
    A9        1.91063  -0.00555   0.00000  -0.05458  -0.05477   1.85587
   A10        1.91063   0.00248   0.00000   0.00396   0.00318   1.91382
   A11        1.91063   0.00257   0.00000   0.00451   0.00361   1.91425
   A12        1.91063  -0.00555   0.00000  -0.05458  -0.05477   1.85587
   A13        3.14159  -0.00074   0.00000  -0.02622  -0.02674   3.11485
   A14        3.14159  -0.00074   0.00000  -0.02622  -0.02674   3.11485
   A15        3.14159  -0.00005   0.00000   0.01242   0.00595   3.14754
   A16        3.14159  -0.00058   0.00000  -0.02462  -0.02961   3.11198
   A17        3.14159   0.00058   0.00000   0.02462   0.02961   3.17120
   A18        3.14159  -0.00005   0.00000   0.01226   0.01852   3.16011
    D1       -2.10089   0.00061   0.00000   0.01438   0.01553  -2.08536
    D2        1.04070   0.00061   0.00000   0.01438   0.01553   1.05623
    D3        2.10089  -0.00061   0.00000  -0.01438  -0.01553   2.08536
    D4       -1.04070  -0.00061   0.00000  -0.01438  -0.01553  -1.05623
    D5       -2.94086  -0.00197   0.00000  -0.03682  -0.03678  -2.97765
    D6        1.24793   0.00157   0.00000   0.01869   0.01885   1.26678
    D7       -0.85686  -0.00168   0.00000  -0.02864  -0.02795  -0.88481
    D8       -2.95125   0.00186   0.00000   0.02688   0.02768  -2.92357
    D9        2.94086   0.00197   0.00000   0.03682   0.03678   2.97765
   D10       -1.24793  -0.00157   0.00000  -0.01869  -0.01885  -1.26678
   D11        0.85686   0.00168   0.00000   0.02864   0.02795   0.88481
   D12        2.95125  -0.00186   0.00000  -0.02688  -0.02768   2.92357
         Item               Value     Threshold  Converged?
 Maximum Force            0.019436     0.000450     NO 
 RMS     Force            0.006373     0.000300     NO 
 Maximum Displacement     0.078456     0.001800     NO 
 RMS     Displacement     0.032170     0.001200     NO 
 Predicted change in Energy=-4.302353D-03
 GradGradGradGradGradGradGradGradGradGradGradGradGradGradGradGradGradGrad

                          Input orientation:                          
 ---------------------------------------------------------------------
 Center     Atomic      Atomic             Coordinates (Angstroms)
 Number     Number       Type             X           Y           Z
 ---------------------------------------------------------------------
      1          8           0        0.004920    0.484025    0.000000
      2          1           0       -0.466852    0.159548    0.817090
      3          1           0       -0.466852    0.159548   -0.817090
      4          1           0        0.939990    0.149119    0.000000
      5          8           0        2.555679   -0.407409    0.000000
      6          8           0       -1.287377   -0.441339   -2.188822
      7          8           0       -1.287377   -0.441339    2.188822
      8          1           0        3.316720    0.179780    0.000000
      9          1           0        2.792719   -1.338873    0.000000
     10          1           0       -0.767064   -0.263320   -2.982216
     11          1           0       -2.122506    0.029956   -2.300420
     12          1           0       -0.767064   -0.263320    2.982216
     13          1           0       -2.122506    0.029956    2.300420
 ---------------------------------------------------------------------
                    Distance matrix (angstroms):
                    1          2          3          4          5
     1  O    0.000000
     2  H    0.997742   0.000000
     3  H    0.997742   1.634179   0.000000
     4  H    0.993236   1.626945   1.626945   0.000000
     5  O    2.702041   3.181944   3.181944   1.708852   0.000000
     6  O    2.705045   3.173299   1.707623   3.178167   4.422801
     7  O    2.705045   1.707623   3.173299   3.178167   4.422801
     8  H    3.325746   3.870848   3.870848   2.376928   0.961237
     9  H    3.330883   3.679363   3.679363   2.376284   0.961152
    10  H    3.169874   3.834537   2.226369   3.460889   4.467102
    11  H    3.166078   3.532258   2.226713   3.832103   5.231504
    12  H    3.169874   2.226369   3.834537   3.460889   4.467102
    13  H    3.166078   2.226713   3.532258   3.832103   5.231504
                    6          7          8          9         10
     6  O    0.000000
     7  O    4.377644   0.000000
     8  H    5.135605   5.135605   0.000000
     9  H    4.716322   4.716322   1.606514   0.000000
    10  H    0.965345   5.200197   5.076145   4.766811   0.000000
    11  H    0.965409   4.590517   5.907585   5.596880   1.545342
    12  H    5.200197   0.965345   5.076145   4.766811   5.964433
    13  H    4.590517   0.965409   5.907585   5.596880   5.461637
                   11         12         13
    11  H    0.000000
    12  H    5.461637   0.000000
    13  H    4.600839   1.545342   0.000000
 Stoichiometry    H9O4(1+)
 Framework group  CS[SG(H3O2),X(H6O2)]
 Deg. of freedom    19
 Full point group                 CS      NOp   2
 Largest Abelian subgroup         CS      NOp   2
 Largest concise Abelian subgroup CS      NOp   2
                         Standard orientation:                         
 ---------------------------------------------------------------------
 Center     Atomic      Atomic             Coordinates (Angstroms)
 Number     Number       Type             X           Y           Z
 ---------------------------------------------------------------------
      1          8           0       -0.544676    0.389373    0.000000
      2          1           0       -0.555523   -0.183110    0.817090
      3          1           0       -0.555523   -0.183110   -0.817090
      4          1           0        0.272011    0.954651    0.000000
      5          8           0        1.665140    1.944280    0.000000
      6          8           0       -0.544676   -1.200070   -2.188822
      7          8           0       -0.544676   -1.200070    2.188822
      8          1           0        1.630800    2.904903    0.000000
      9          1           0        2.560471    1.594713    0.000000
     10          1           0       -0.386492   -0.673389   -2.982216
     11          1           0       -1.414071   -1.604687   -2.300420
     12          1           0       -0.386492   -0.673389    2.982216
     13          1           0       -1.414071   -1.604687    2.300420
 ---------------------------------------------------------------------
 Rotational constants (GHZ):      2.5894030      2.5267190      1.3613184
 Standard basis: 6-31+G(d,p) (6D, 7F)
 There are    74 symmetry adapted basis functions of A'  symmetry.
 There are    47 symmetry adapted basis functions of A"  symmetry.
 Integral buffers will be    262144 words long.
 Raffenetti 2 integral format.
 Two-electron integral symmetry is turned on.
   121 basis functions,   191 primitive gaussians,   121 cartesian basis functions
    20 alpha electrons       20 beta electrons
       nuclear repulsion energy       139.7710218621 Hartrees.
 NAtoms=   13 NActive=   13 NUniq=    9 SFac= 1.56D+00 NAtFMM=   80 NAOKFM=F Big=F
 ------------------------------------------------------------------------------
 Polarizable Continuum Model (PCM)
 =================================
 Model                : PCM.
 Atomic radii         : SMD-Coulomb.
 Polarization charges : Total charges.
 Charge compensation  : None.
 Solution method      : Matrix inversion.
 Cavity type          : VdW (van der Waals Surface) (Alpha=1.000).
 Cavity algorithm     : GePol (No added spheres)
                        Default sphere list used, NSphG=   13.
                        Lebedev-Laikov grids with approx.  5.0 points / Ang**2.
                        Smoothing algorithm: Karplus/York (Gamma=1.0000).
                        Polarization charges: spherical gaussians, with
                                              point-specific exponents (IZeta= 3).
                        Self-potential: point-specific (ISelfS= 7).
                        Self-field    : sphere-specific E.n sum rule (ISelfD= 2).
 1st derivatives      : Analytical E(r).r(x)/FMM algorithm (CHGder, D1EAlg=3).
                        Cavity 1st derivative terms included.
 Solvent              : Water, Eps=  78.355300 Eps(inf)=   1.777849
 ------------------------------------------------------------------------------
 Spheres list:
 ISph  on   Nord    Re0     Alpha      Xe            Ye            Ze
    1   O      1    1.520   1.000     -0.544676      0.389373      0.000000
    2   H      2    1.200   1.000     -0.555523     -0.183110      0.817090
    3   H      3    1.200   1.000     -0.555523     -0.183110     -0.817090
    4   H      4    1.200   1.000      0.272011      0.954651      0.000000
    5   O      5    1.520   1.000      1.665140      1.944280      0.000000
    6   O      6    1.520   1.000     -0.544676     -1.200070     -2.188822
    7   O      7    1.520   1.000     -0.544676     -1.200070      2.188822
    8   H      8    1.200   1.000      1.630800      2.904903      0.000000
    9   H      9    1.200   1.000      2.560471      1.594713      0.000000
   10   H     10    1.200   1.000     -0.386492     -0.673389     -2.982216
   11   H     11    1.200   1.000     -1.414071     -1.604687     -2.300420
   12   H     12    1.200   1.000     -0.386492     -0.673389      2.982216
   13   H     13    1.200   1.000     -1.414071     -1.604687      2.300420
 ------------------------------------------------------------------------------
 ------------------------------------------------------------------------------
 Atomic radii for non-electrostatic terms: SMD-CDS.
 ------------------------------------------------------------------------------
 Nuclear repulsion after PCM non-electrostatic terms =      139.7788795267 Hartrees.
 One-electron integrals computed using PRISM.
 NBasis=   121 RedAO= T  NBF=    74    47
 NBsUse=   121 1.00D-06 NBFU=    74    47
 Initial guess read from the read-write file.
 B after Tr=     0.000000    0.000000    0.000000
         Rot=    1.000000    0.000000    0.000000    0.000000 Ang=   0.00 deg.
 Initial guess orbital symmetries:
       Occupied  (A') (A") (A') (A') (A') (A") (A') (A') (A') (A")
                 (A') (A') (A") (A') (A") (A') (A') (A') (A") (A")
       Virtual   (A') (A') (A") (A') (A') (A") (A') (A') (A") (A")
                 (A') (A') (A") (A') (A") (A') (A') (A") (A') (A")
                 (A') (A') (A') (A") (A') (A') (A") (A') (A') (A")
                 (A') (A') (A") (A') (A') (A') (A") (A') (A') (A")
                 (A') (A") (A") (A') (A") (A') (A') (A") (A') (A')
                 (A") (A') (A") (A") (A') (A") (A') (A") (A') (A')
                 (A") (A") (A') (A') (A") (A') (A') (A") (A") (A')
                 (A') (A') (A") (A") (A') (A") (A') (A') (A") (A')
                 (A") (A") (A') (A') (A") (A') (A") (A') (A') (A")
                 (A') (A') (A') (A") (A') (A") (A') (A') (A") (A')
                 (A')
 Harris functional with IExCor= 1009 diagonalized for initial guess.
 ExpMin= 8.45D-02 ExpMax= 5.48D+03 ExpMxC= 8.25D+02 IAcc=2 IRadAn=         0 AccDes= 0.00D+00
 HarFok:  IExCor= 1009 AccDes= 0.00D+00 IRadAn=         0 IDoV= 1
 ScaDFX=  1.000000  1.000000  1.000000  1.000000
 FoFCou: FMM=F IPFlag=           0 FMFlag=      100000 FMFlg1=           0
         NFxFlg=           0 DoJE=T BraDBF=F KetDBF=T FulRan=T
         Omega=  0.000000  0.000000  1.000000  0.000000  0.000000 ICntrl=     500 IOpCl=  0
         NMat0=    1 NMatS0=    1 NMatT0=    0 NMatD0=    1 NMtDS0=    0 NMtDT0=    0
         I1Cent=           4 NGrid=           0.
 Petite list used in FoFCou.
 Requested convergence on RMS density matrix=1.00D-08 within 128 cycles.
 Requested convergence on MAX density matrix=1.00D-06.
 Requested convergence on             energy=1.00D-06.
 No special actions if energy rises.
 Keep R1 ints in memory in canonical form, NReq=31318092.
 Error on total polarization charges =  0.03860
 SCF Done:  E(RM062X) =  -306.091299637     A.U. after   10 cycles
             Convg  =    0.1438D-08             -V/T =  2.0091
 SMD-CDS (non-electrostatic) energy             (kcal/mol) =       4.93
 (included in total energy above)
 D1PCM: PCM CHGder 1st derivatives, ID1Alg=3 FixD1E=F DoIter=F DoCFld=F I1PDM=0.
 Calling FoFJK, ICntrl=      2127 FMM=F ISym2X=1 I1Cent= 0 IOpClX= 0 NMat=1 NMatS=1 NMatT=0.
 ***** Axes restored to original set *****
 -------------------------------------------------------------------
 Center     Atomic                   Forces (Hartrees/Bohr)
 Number     Number              X              Y              Z
 -------------------------------------------------------------------
      1        8          -0.000089112    0.003102894    0.000000000
      2        1          -0.004657473   -0.003472959    0.007760110
      3        1          -0.004657473   -0.003472959   -0.007760110
      4        1           0.008969361   -0.003538539    0.000000000
      5        8          -0.021203352    0.007596779    0.000000000
      6        8           0.004565340    0.000312687    0.008841774
      7        8           0.004565340    0.000312687   -0.008841774
      8        1           0.006713498   -0.005365885    0.000000000
      9        1           0.008479231    0.000000191    0.000000000
     10        1          -0.000269029    0.001077563   -0.001933746
     11        1          -0.001073651    0.001184989   -0.001556993
     12        1          -0.000269029    0.001077563    0.001933746
     13        1          -0.001073651    0.001184989    0.001556993
 -------------------------------------------------------------------
 Cartesian Forces:  Max     0.021203352 RMS     0.005457878

 GradGradGradGradGradGradGradGradGradGradGradGradGradGradGradGradGradGrad
 Berny optimization.
 Using GEDIIS/GDIIS optimizer.
 Internal  Forces:  Max     0.010026635 RMS     0.002841182
 Search for a local minimum.
 Step number   2 out of a maximum of   52
 All quantities printed in internal units (Hartrees-Bohrs-Radians)
 Mixed Optimization -- RFO/linear search
 Update second derivatives using D2CorX and points    1    2
 DE= -6.37D-03 DEPred=-4.30D-03 R= 1.48D+00
 SS=  1.41D+00  RLast= 2.65D-01 DXNew= 5.0454D-01 7.9468D-01
 Trust test= 1.48D+00 RLast= 2.65D-01 DXMaxT set to 5.05D-01
 Use linear search instead of GDIIS.
     Eigenvalues ---    0.00229   0.00230   0.00230   0.00230   0.00230
     Eigenvalues ---    0.00230   0.00230   0.00230   0.00230   0.00232
     Eigenvalues ---    0.02593   0.03255   0.05326   0.05719   0.06593
     Eigenvalues ---    0.06602   0.11799   0.12037   0.14008   0.16000
     Eigenvalues ---    0.16000   0.16000   0.16000   0.16252   0.51499
     Eigenvalues ---    0.51615   0.52869   0.55193   0.55473   0.55473
     Eigenvalues ---    0.55473   0.55473   0.564821000.000001000.00000
     Eigenvalues --- 1000.000001000.000001000.000001000.000001000.00000
     Eigenvalues --- 1000.000001000.00000
 RFO step:  Lambda=-3.10921961D-03 EMin= 2.29345703D-03
 Quartic linear search produced a step of  1.06975.
 Iteration  1 RMS(Cart)=  0.11135395 RMS(Int)=  0.01234599
 Iteration  2 RMS(Cart)=  0.02234049 RMS(Int)=  0.00011843
 Iteration  3 RMS(Cart)=  0.00008328 RMS(Int)=  0.00010974
 Iteration  4 RMS(Cart)=  0.00000001 RMS(Int)=  0.00010974
 ClnCor:  largest displacement from symmetrization is 8.81D-02 for atom    12.
 Variable       Old X    -DE/DX   Delta X   Delta X   Delta X     New X
                                 (Linear)    (Quad)   (Total)
    R1        1.88546   0.00296   0.03827  -0.00901   0.05035   1.93581
    R2        1.88546   0.00296   0.03827  -0.00901   0.05035   1.93581
    R3        1.87694   0.00321   0.03016  -0.00760   0.02251   1.89946
    R4        3.22694  -0.00674  -0.10588  -0.13035  -0.27897   2.94797
    R5        3.22694  -0.00674  -0.10588  -0.13035  -0.27897   2.94797
    R6        3.22926  -0.00642  -0.10340  -0.11223  -0.21680   3.01246
    R7        1.81647   0.00205   0.00250   0.00584   0.00832   1.82479
    R8        1.81631   0.00207   0.00233   0.00604   0.00822   1.82453
    R9        1.82424   0.00164   0.01080  -0.00121   0.00959   1.83383
   R10        1.82436   0.00168   0.01094  -0.00116   0.00978   1.83414
   R11        1.82424   0.00164   0.01080  -0.00121   0.00959   1.83383
   R12        1.82436   0.00168   0.01094  -0.00116   0.00978   1.83414
    A1        1.91912   0.00003   0.01703  -0.01070   0.01171   1.93083
    A2        1.91292   0.00002   0.00591  -0.00396   0.00446   1.91738
    A3        1.91292   0.00003   0.00591  -0.00394   0.00446   1.91738
    A4        2.15271   0.00511   0.06238   0.02044   0.08291   2.23563
    A5        2.15171   0.00492   0.06132   0.01886   0.08004   2.23175
    A6        1.97876  -0.01003  -0.12370  -0.03929  -0.16296   1.81581
    A7        1.91382   0.00075   0.00341   0.00157   0.00284   1.91666
    A8        1.91425   0.00083   0.00387   0.00208   0.00146   1.91571
    A9        1.85587  -0.00150  -0.05859   0.01311  -0.04572   1.81015
   A10        1.91382   0.00075   0.00341   0.00157   0.00284   1.91666
   A11        1.91425   0.00083   0.00387   0.00208   0.00146   1.91571
   A12        1.85587  -0.00150  -0.05859   0.01311  -0.04572   1.81015
   A13        3.11485   0.00006  -0.02861   0.10282   0.07417   3.18902
   A14        3.11485   0.00006  -0.02861   0.10282   0.07417   3.18902
   A15        3.14754   0.00021   0.00637   0.05340   0.02751   3.17505
   A16        3.11198   0.00003  -0.03168   0.07977   0.02253   3.13452
   A17        3.17120  -0.00003   0.03168  -0.07977  -0.02253   3.14867
   A18        3.16011   0.00022   0.01981   0.05486   0.10134   3.26145
    D1       -2.08536   0.00007   0.01661   0.00143   0.02292  -2.06243
    D2        1.05623   0.00007   0.01661   0.00143   0.02292   1.07916
    D3        2.08536  -0.00007  -0.01661  -0.00143  -0.02292   2.06243
    D4       -1.05623  -0.00007  -0.01661  -0.00143  -0.02292  -1.07916
    D5       -2.97765  -0.00052  -0.03935  -0.01695  -0.05622  -3.03387
    D6        1.26678   0.00036   0.02016  -0.01135   0.00981   1.27658
    D7       -0.88481  -0.00043  -0.02990   0.00536  -0.02197  -0.90678
    D8       -2.92357   0.00045   0.02961   0.01096   0.04406  -2.87951
    D9        2.97765   0.00052   0.03935   0.01696   0.05622   3.03387
   D10       -1.26678  -0.00035  -0.02016   0.01136  -0.00981  -1.27658
   D11        0.88481   0.00042   0.02990  -0.00536   0.02197   0.90678
   D12        2.92357  -0.00045  -0.02961  -0.01096  -0.04406   2.87951
         Item               Value     Threshold  Converged?
 Maximum Force            0.010027     0.000450     NO 
 RMS     Force            0.002841     0.000300     NO 
 Maximum Displacement     0.222166     0.001800     NO 
 RMS     Displacement     0.121495     0.001200     NO 
 Predicted change in Energy=-3.833583D-03
 GradGradGradGradGradGradGradGradGradGradGradGradGradGradGradGradGradGrad

                          Input orientation:                          
 ---------------------------------------------------------------------
 Center     Atomic      Atomic             Coordinates (Angstroms)
 Number     Number       Type             X           Y           Z
 ---------------------------------------------------------------------
      1          8           0       -0.048002    0.370512    0.000000
      2          1           0       -0.532131    0.045775    0.842338
      3          1           0       -0.532131    0.045775   -0.842338
      4          1           0        0.899503    0.035013    0.000000
      5          8           0        2.438114   -0.382010    0.000000
      6          8           0       -1.214783   -0.419163   -2.165748
      7          8           0       -1.214783   -0.419163    2.165748
      8          1           0        3.211904    0.195660    0.000000
      9          1           0        2.810786   -1.272690    0.000000
     10          1           0       -0.664774   -0.169044   -2.925122
     11          1           0       -2.036825    0.078194   -2.303284
     12          1           0       -0.664774   -0.169044    2.925122
     13          1           0       -2.036825    0.078194    2.303284
 ---------------------------------------------------------------------
                    Distance matrix (angstroms):
                    1          2          3          4          5
     1  O    0.000000
     2  H    1.024387   0.000000
     3  H    1.024387   1.684676   0.000000
     4  H    1.005150   1.661092   1.661092   0.000000
     5  O    2.597511   3.116872   3.116872   1.594124   0.000000
     6  O    2.583685   3.119417   1.559998   3.060546   4.246822
     7  O    2.583685   1.559998   3.119417   3.060546   4.246822
     8  H    3.264592   3.840547   3.840547   2.317975   0.965637
     9  H    3.297390   3.690932   3.690932   2.315834   0.965502
    10  H    3.037740   3.775910   2.098030   3.323393   4.269614
    11  H    3.057120   3.487132   2.097503   3.732158   5.053908
    12  H    3.037740   2.098030   3.775910   3.323393   4.269614
    13  H    3.057120   2.097503   3.487132   3.732158   5.053908
                    6          7          8          9         10
     6  O    0.000000
     7  O    4.331496   0.000000
     8  H    4.966289   4.966289   0.000000
     9  H    4.650180   4.650180   1.522153   0.000000
    10  H    0.970422   5.126600   4.870111   4.674814   0.000000
    11  H    0.970584   4.571144   5.733068   5.534377   1.526543
    12  H    5.126600   0.970422   4.870111   4.674814   5.850244
    13  H    4.571144   0.970584   5.733068   5.534377   5.411088
                   11         12         13
    11  H    0.000000
    12  H    5.411088   0.000000
    13  H    4.606568   1.526543   0.000000
 Stoichiometry    H9O4(1+)
 Framework group  CS[SG(H3O2),X(H6O2)]
 Deg. of freedom    19
 Full point group                 CS      NOp   2
 Largest Abelian subgroup         CS      NOp   2
 Largest concise Abelian subgroup CS      NOp   2
                         Standard orientation:                         
 ---------------------------------------------------------------------
 Center     Atomic      Atomic             Coordinates (Angstroms)
 Number     Number       Type             X           Y           Z
 ---------------------------------------------------------------------
      1          8           0       -0.495842    0.273526    0.000000
      2          1           0       -0.498261   -0.309423    0.842338
      3          1           0       -0.498261   -0.309423   -0.842338
      4          1           0        0.313076    0.870163    0.000000
      5          8           0        1.520822    1.910636    0.000000
      6          8           0       -0.495842   -1.135362   -2.165748
      7          8           0       -0.495842   -1.135362    2.165748
      8          1           0        1.476126    2.875238    0.000000
      9          1           0        2.467326    1.720045    0.000000
     10          1           0       -0.394702   -0.539677   -2.925122
     11          1           0       -1.368483   -1.537376   -2.303284
     12          1           0       -0.394702   -0.539677    2.925122
     13          1           0       -1.368483   -1.537376    2.303284
 ---------------------------------------------------------------------
 Rotational constants (GHZ):      2.8038044      2.6836563      1.4407926
 Standard basis: 6-31+G(d,p) (6D, 7F)
 There are    74 symmetry adapted basis functions of A'  symmetry.
 There are    47 symmetry adapted basis functions of A"  symmetry.
 Integral buffers will be    262144 words long.
 Raffenetti 2 integral format.
 Two-electron integral symmetry is turned on.
   121 basis functions,   191 primitive gaussians,   121 cartesian basis functions
    20 alpha electrons       20 beta electrons
       nuclear repulsion energy       143.2491730639 Hartrees.
 NAtoms=   13 NActive=   13 NUniq=    9 SFac= 1.56D+00 NAtFMM=   80 NAOKFM=F Big=F
 ------------------------------------------------------------------------------
 Polarizable Continuum Model (PCM)
 =================================
 Model                : PCM.
 Atomic radii         : SMD-Coulomb.
 Polarization charges : Total charges.
 Charge compensation  : None.
 Solution method      : Matrix inversion.
 Cavity type          : VdW (van der Waals Surface) (Alpha=1.000).
 Cavity algorithm     : GePol (No added spheres)
                        Default sphere list used, NSphG=   13.
                        Lebedev-Laikov grids with approx.  5.0 points / Ang**2.
                        Smoothing algorithm: Karplus/York (Gamma=1.0000).
                        Polarization charges: spherical gaussians, with
                                              point-specific exponents (IZeta= 3).
                        Self-potential: point-specific (ISelfS= 7).
                        Self-field    : sphere-specific E.n sum rule (ISelfD= 2).
 1st derivatives      : Analytical E(r).r(x)/FMM algorithm (CHGder, D1EAlg=3).
                        Cavity 1st derivative terms included.
 Solvent              : Water, Eps=  78.355300 Eps(inf)=   1.777849
 ------------------------------------------------------------------------------
 Spheres list:
 ISph  on   Nord    Re0     Alpha      Xe            Ye            Ze
    1   O      1    1.520   1.000     -0.495842      0.273526      0.000000
    2   H      2    1.200   1.000     -0.498261     -0.309423      0.842338
    3   H      3    1.200   1.000     -0.498261     -0.309423     -0.842338
    4   H      4    1.200   1.000      0.313076      0.870163      0.000000
    5   O      5    1.520   1.000      1.520822      1.910636      0.000000
    6   O      6    1.520   1.000     -0.495842     -1.135362     -2.165748
    7   O      7    1.520   1.000     -0.495842     -1.135362      2.165748
    8   H      8    1.200   1.000      1.476126      2.875238      0.000000
    9   H      9    1.200   1.000      2.467326      1.720045      0.000000
   10   H     10    1.200   1.000     -0.394702     -0.539677     -2.925122
   11   H     11    1.200   1.000     -1.368483     -1.537376     -2.303284
   12   H     12    1.200   1.000     -0.394702     -0.539677      2.925122
   13   H     13    1.200   1.000     -1.368483     -1.537376      2.303284
 ------------------------------------------------------------------------------
 ------------------------------------------------------------------------------
 Atomic radii for non-electrostatic terms: SMD-CDS.
 ------------------------------------------------------------------------------
 Nuclear repulsion after PCM non-electrostatic terms =      143.2569815916 Hartrees.
 One-electron integrals computed using PRISM.
 NBasis=   121 RedAO= T  NBF=    74    47
 NBsUse=   121 1.00D-06 NBFU=    74    47
 Initial guess read from the read-write file.
 B after Tr=     0.000000    0.000000    0.000000
         Rot=    1.000000    0.000000    0.000000    0.000000 Ang=   0.00 deg.
 Initial guess orbital symmetries:
       Occupied  (A') (A") (A') (A') (A') (A") (A') (A') (A') (A")
                 (A') (A') (A") (A') (A") (A') (A') (A') (A") (A")
       Virtual   (A') (A') (A") (A') (A') (A") (A') (A') (A") (A")
                 (A') (A') (A") (A') (A") (A') (A') (A") (A') (A')
                 (A") (A') (A') (A") (A') (A') (A") (A') (A') (A")
                 (A') (A') (A") (A') (A') (A') (A") (A') (A') (A")
                 (A') (A") (A") (A') (A") (A') (A') (A") (A') (A')
                 (A") (A') (A") (A") (A') (A") (A') (A") (A') (A')
                 (A") (A") (A') (A') (A") (A') (A') (A") (A") (A')
                 (A') (A') (A") (A') (A") (A') (A") (A') (A") (A')
                 (A") (A") (A') (A') (A") (A') (A") (A') (A') (A")
                 (A') (A') (A') (A") (A') (A") (A') (A') (A") (A')
                 (A')
 Harris functional with IExCor= 1009 diagonalized for initial guess.
 ExpMin= 8.45D-02 ExpMax= 5.48D+03 ExpMxC= 8.25D+02 IAcc=2 IRadAn=         0 AccDes= 0.00D+00
 HarFok:  IExCor= 1009 AccDes= 0.00D+00 IRadAn=         0 IDoV= 1
 ScaDFX=  1.000000  1.000000  1.000000  1.000000
 FoFCou: FMM=F IPFlag=           0 FMFlag=      100000 FMFlg1=           0
         NFxFlg=           0 DoJE=T BraDBF=F KetDBF=T FulRan=T
         Omega=  0.000000  0.000000  1.000000  0.000000  0.000000 ICntrl=     500 IOpCl=  0
         NMat0=    1 NMatS0=    1 NMatT0=    0 NMatD0=    1 NMtDS0=    0 NMtDT0=    0
         I1Cent=           4 NGrid=           0.
 Petite list used in FoFCou.
 Requested convergence on RMS density matrix=1.00D-08 within 128 cycles.
 Requested convergence on MAX density matrix=1.00D-06.
 Requested convergence on             energy=1.00D-06.
 No special actions if energy rises.
 Keep R1 ints in memory in canonical form, NReq=31293989.
 Error on total polarization charges =  0.03723
 SCF Done:  E(RM062X) =  -306.095722130     A.U. after    9 cycles
             Convg  =    0.9369D-08             -V/T =  2.0091
 SMD-CDS (non-electrostatic) energy             (kcal/mol) =       4.90
 (included in total energy above)
 D1PCM: PCM CHGder 1st derivatives, ID1Alg=3 FixD1E=F DoIter=F DoCFld=F I1PDM=0.
 Calling FoFJK, ICntrl=      2127 FMM=F ISym2X=1 I1Cent= 0 IOpClX= 0 NMat=1 NMatS=1 NMatT=0.
 ***** Axes restored to original set *****
 -------------------------------------------------------------------
 Center     Atomic                   Forces (Hartrees/Bohr)
 Number     Number              X              Y              Z
 -------------------------------------------------------------------
      1        8          -0.004550335   -0.003307912    0.000000000
      2        1           0.001126890    0.000387897    0.001300563
      3        1           0.001126890    0.000387897   -0.001300563
      4        1           0.002566050    0.000460812    0.000000000
      5        8           0.003046854   -0.001628164    0.000000000
      6        8          -0.000099093    0.004809787   -0.000325217
      7        8          -0.000099093    0.004809787    0.000325217
      8        1          -0.002029576    0.004676355    0.000000000
      9        1          -0.003417444   -0.003050519    0.000000000
     10        1           0.000863630   -0.001863458    0.001849747
     11        1           0.000300800   -0.001909511    0.001936900
     12        1           0.000863630   -0.001863458   -0.001849747
     13        1           0.000300800   -0.001909511   -0.001936900
 -------------------------------------------------------------------
 Cartesian Forces:  Max     0.004809787 RMS     0.002150315

 GradGradGradGradGradGradGradGradGradGradGradGradGradGradGradGradGradGrad
 Berny optimization.
 Using GEDIIS/GDIIS optimizer.
 Internal  Forces:  Max     0.005650578 RMS     0.001814207
 Search for a local minimum.
 Step number   3 out of a maximum of   52
 All quantities printed in internal units (Hartrees-Bohrs-Radians)
 Mixed Optimization -- RFO/linear search
 Update second derivatives using D2CorX and points    2    3
 DE= -4.42D-03 DEPred=-3.83D-03 R= 1.15D+00
 SS=  1.41D+00  RLast= 5.38D-01 DXNew= 8.4853D-01 1.6141D+00
 Trust test= 1.15D+00 RLast= 5.38D-01 DXMaxT set to 8.49D-01
 Use linear search instead of GDIIS.
     Eigenvalues ---    0.00227   0.00230   0.00230   0.00230   0.00230
     Eigenvalues ---    0.00230   0.00230   0.00230   0.00231   0.00255
     Eigenvalues ---    0.02136   0.02564   0.05592   0.05959   0.06593
     Eigenvalues ---    0.06610   0.12165   0.12423   0.15877   0.16000
     Eigenvalues ---    0.16000   0.16000   0.16027   0.17723   0.49654
     Eigenvalues ---    0.51615   0.52493   0.55345   0.55473   0.55473
     Eigenvalues ---    0.55473   0.55474   0.567241000.000001000.00000
     Eigenvalues --- 1000.000001000.000001000.000001000.000001000.00000
     Eigenvalues --- 1000.000001000.00000
 RFO step:  Lambda=-2.45850986D-03 EMin= 2.26709838D-03
 Quartic linear search produced a step of  0.01184.
 Iteration  1 RMS(Cart)=  0.21203478 RMS(Int)=  0.03760266
 Iteration  2 RMS(Cart)=  0.18159051 RMS(Int)=  0.01016180
 Iteration  3 RMS(Cart)=  0.01318936 RMS(Int)=  0.00151947
 Iteration  4 RMS(Cart)=  0.00005517 RMS(Int)=  0.00151920
 Iteration  5 RMS(Cart)=  0.00000008 RMS(Int)=  0.00151920
 ClnCor:  largest displacement from symmetrization is 9.02D-02 for atom    12.
 Variable       Old X    -DE/DX   Delta X   Delta X   Delta X     New X
                                 (Linear)    (Quad)   (Total)
    R1        1.93581  -0.00328   0.00060   0.01029  -0.01604   1.91977
    R2        1.93581  -0.00326   0.00060   0.01031  -0.01604   1.91977
    R3        1.89946   0.00002   0.00027   0.00787   0.00809   1.90755
    R4        2.94797  -0.00372  -0.00330  -0.12867  -0.08470   2.86327
    R5        2.94797  -0.00372  -0.00330  -0.12867  -0.08470   2.86327
    R6        3.01246  -0.00231  -0.00257  -0.09103  -0.09528   2.91718
    R7        1.82479   0.00117   0.00010   0.00421   0.00428   1.82907
    R8        1.82453   0.00150   0.00010   0.00476   0.00465   1.82918
    R9        1.83383  -0.00144   0.00011   0.00056   0.00067   1.83450
   R10        1.83414  -0.00151   0.00012   0.00049   0.00061   1.83475
   R11        1.83383  -0.00144   0.00011   0.00056   0.00067   1.83450
   R12        1.83414  -0.00151   0.00012   0.00049   0.00061   1.83475
    A1        1.93083   0.00003   0.00014   0.00744   0.00006   1.93089
    A2        1.91738   0.00011   0.00005   0.00577   0.00788   1.92526
    A3        1.91738   0.00009   0.00005   0.00557   0.00788   1.92526
    A4        2.23563  -0.00339   0.00098   0.00332   0.00443   2.24006
    A5        2.23175  -0.00226   0.00095   0.00960   0.01036   2.24212
    A6        1.81581   0.00565  -0.00193  -0.01292  -0.01479   1.80101
    A7        1.91666  -0.00082   0.00003   0.00133   0.01065   1.92731
    A8        1.91571  -0.00038   0.00002   0.00345   0.00627   1.92198
    A9        1.81015   0.00205  -0.00054   0.00898   0.00796   1.81811
   A10        1.91666  -0.00082   0.00003   0.00133   0.01065   1.92731
   A11        1.91571  -0.00038   0.00002   0.00345   0.00627   1.92198
   A12        1.81015   0.00205  -0.00054   0.00898   0.00796   1.81811
   A13        3.18902  -0.00150   0.00088  -0.36443  -0.35436   2.83466
   A14        3.18902  -0.00150   0.00088  -0.36445  -0.35436   2.83466
   A15        3.17505  -0.00032   0.00033  -0.06561  -0.02850   3.14654
   A16        3.13452   0.00027   0.00027   0.02461   0.04637   3.18089
   A17        3.14867  -0.00027  -0.00027  -0.02459  -0.04637   3.10230
   A18        3.26145  -0.00041   0.00120  -0.07166  -0.10380   3.15765
    D1       -2.06243   0.00000   0.00027  -0.00464  -0.00791  -2.07035
    D2        1.07916   0.00000   0.00027  -0.00464  -0.00791   1.07125
    D3        2.06243   0.00000  -0.00027   0.00464   0.00791   2.07035
    D4       -1.07916   0.00000  -0.00027   0.00464   0.00791  -1.07125
    D5       -3.03387   0.00100  -0.00067   0.05425   0.05637  -2.97749
    D6        1.27658  -0.00100   0.00012  -0.01245  -0.01180   1.26479
    D7       -0.90678   0.00101  -0.00026   0.00998   0.00473  -0.90205
    D8       -2.87951  -0.00100   0.00052  -0.05672  -0.06344  -2.94295
    D9        3.03387  -0.00101   0.00067  -0.05430  -0.05637   2.97749
   D10       -1.27658   0.00100  -0.00012   0.01240   0.01180  -1.26479
   D11        0.90678  -0.00100   0.00026  -0.00993  -0.00473   0.90205
   D12        2.87951   0.00101  -0.00052   0.05677   0.06344   2.94295
         Item               Value     Threshold  Converged?
 Maximum Force            0.005651     0.000450     NO 
 RMS     Force            0.001814     0.000300     NO 
 Maximum Displacement     1.026186     0.001800     NO 
 RMS     Displacement     0.391143     0.001200     NO 
 Predicted change in Energy=-1.228203D-03
 GradGradGradGradGradGradGradGradGradGradGradGradGradGradGradGradGradGrad

                          Input orientation:                          
 ---------------------------------------------------------------------
 Center     Atomic      Atomic             Coordinates (Angstroms)
 Number     Number       Type             X           Y           Z
 ---------------------------------------------------------------------
      1          8           0        0.160829    0.484899    0.000000
      2          1           0       -0.324999    0.171582    0.835376
      3          1           0       -0.324999    0.171582   -0.835376
      4          1           0        1.111792    0.146347    0.000000
      5          8           0        2.571402   -0.356209    0.000000
      6          8           0       -1.356823   -0.437837   -1.762578
      7          8           0       -1.356823   -0.437837    1.762578
      8          1           0        3.386310    0.166052    0.000000
      9          1           0        2.893954   -1.268849    0.000000
     10          1           0       -1.049604   -0.400449   -2.682703
     11          1           0       -2.166144    0.098494   -1.760250
     12          1           0       -1.049604   -0.400449    2.682703
     13          1           0       -2.166144    0.098494    1.760250
 ---------------------------------------------------------------------
                    Distance matrix (angstroms):
                    1          2          3          4          5
     1  O    0.000000
     2  H    1.015898   0.000000
     3  H    1.015898   1.670752   0.000000
     4  H    1.009429   1.662184   1.662184   0.000000
     5  O    2.553101   3.060320   3.060320   1.543705   0.000000
     6  O    2.502277   2.861017   1.515175   3.089015   4.306309
     7  O    2.502277   1.515175   2.861017   3.089015   4.306309
     8  H    3.241202   3.804168   3.804168   2.274603   0.967900
     9  H    3.247399   3.624134   3.624134   2.275715   0.967962
    10  H    3.073416   3.637190   2.065161   3.488196   4.506722
    11  H    2.943228   3.183148   2.061686   3.720972   5.074405
    12  H    3.073416   2.065161   3.637190   3.488196   4.506722
    13  H    2.943228   2.061686   3.183148   3.720972   5.074405
                    6          7          8          9         10
     6  O    0.000000
     7  O    3.525156   0.000000
     8  H    5.095947   5.095947   0.000000
     9  H    4.676149   4.676149   1.517022   0.000000
    10  H    0.970778   4.456041   5.214897   4.847955   0.000000
    11  H    0.970905   3.654171   5.825186   5.529259   1.531838
    12  H    4.456041   0.970778   5.214897   4.847955   5.365405
    13  H    3.654171   0.970905   5.825186   5.529259   4.608192
                   11         12         13
    11  H    0.000000
    12  H    4.608192   0.000000
    13  H    3.520499   1.531838   0.000000
 Stoichiometry    H9O4(1+)
 Framework group  CS[SG(H3O2),X(H6O2)]
 Deg. of freedom    19
 Full point group                 CS      NOp   2
 Largest Abelian subgroup         CS      NOp   2
 Largest concise Abelian subgroup CS      NOp   2
                         Standard orientation:                         
 ---------------------------------------------------------------------
 Center     Atomic      Atomic             Coordinates (Angstroms)
 Number     Number       Type             X           Y           Z
 ---------------------------------------------------------------------
      1          8           0       -0.486501    0.470907    0.000000
      2          1           0       -0.471178   -0.106987    0.835376
      3          1           0       -0.471178   -0.106987   -0.835376
      4          1           0        0.296818    1.107586    0.000000
      5          8           0        1.484521    2.093682    0.000000
      6          8           0       -0.486501   -1.305243   -1.762578
      7          8           0       -0.486501   -1.305243    1.762578
      8          1           0        1.461625    3.061312    0.000000
      9          1           0        2.431907    1.895161    0.000000
     10          1           0       -0.358842   -1.023313   -2.682703
     11          1           0       -1.365229   -1.718145   -1.760250
     12          1           0       -0.358842   -1.023313    2.682703
     13          1           0       -1.365229   -1.718145    1.760250
 ---------------------------------------------------------------------
 Rotational constants (GHZ):      3.7966494      2.4086742      1.5803671
 Standard basis: 6-31+G(d,p) (6D, 7F)
 There are    74 symmetry adapted basis functions of A'  symmetry.
 There are    47 symmetry adapted basis functions of A"  symmetry.
 Integral buffers will be    262144 words long.
 Raffenetti 2 integral format.
 Two-electron integral symmetry is turned on.
   121 basis functions,   191 primitive gaussians,   121 cartesian basis functions
    20 alpha electrons       20 beta electrons
       nuclear repulsion energy       147.2026133059 Hartrees.
 NAtoms=   13 NActive=   13 NUniq=    9 SFac= 1.56D+00 NAtFMM=   80 NAOKFM=F Big=F
 ------------------------------------------------------------------------------
 Polarizable Continuum Model (PCM)
 =================================
 Model                : PCM.
 Atomic radii         : SMD-Coulomb.
 Polarization charges : Total charges.
 Charge compensation  : None.
 Solution method      : Matrix inversion.
 Cavity type          : VdW (van der Waals Surface) (Alpha=1.000).
 Cavity algorithm     : GePol (No added spheres)
                        Default sphere list used, NSphG=   13.
                        Lebedev-Laikov grids with approx.  5.0 points / Ang**2.
                        Smoothing algorithm: Karplus/York (Gamma=1.0000).
                        Polarization charges: spherical gaussians, with
                                              point-specific exponents (IZeta= 3).
                        Self-potential: point-specific (ISelfS= 7).
                        Self-field    : sphere-specific E.n sum rule (ISelfD= 2).
 1st derivatives      : Analytical E(r).r(x)/FMM algorithm (CHGder, D1EAlg=3).
                        Cavity 1st derivative terms included.
 Solvent              : Water, Eps=  78.355300 Eps(inf)=   1.777849
 ------------------------------------------------------------------------------
 Spheres list:
 ISph  on   Nord    Re0     Alpha      Xe            Ye            Ze
    1   O      1    1.520   1.000     -0.486501      0.470907      0.000000
    2   H      2    1.200   1.000     -0.471178     -0.106987      0.835376
    3   H      3    1.200   1.000     -0.471178     -0.106987     -0.835376
    4   H      4    1.200   1.000      0.296818      1.107586      0.000000
    5   O      5    1.520   1.000      1.484521      2.093682      0.000000
    6   O      6    1.520   1.000     -0.486501     -1.305243     -1.762578
    7   O      7    1.520   1.000     -0.486501     -1.305243      1.762578
    8   H      8    1.200   1.000      1.461625      3.061312      0.000000
    9   H      9    1.200   1.000      2.431907      1.895161      0.000000
   10   H     10    1.200   1.000     -0.358842     -1.023313     -2.682703
   11   H     11    1.200   1.000     -1.365229     -1.718145     -1.760250
   12   H     12    1.200   1.000     -0.358842     -1.023313      2.682703
   13   H     13    1.200   1.000     -1.365229     -1.718145      1.760250
 ------------------------------------------------------------------------------
 ------------------------------------------------------------------------------
 Atomic radii for non-electrostatic terms: SMD-CDS.
 ------------------------------------------------------------------------------
 Nuclear repulsion after PCM non-electrostatic terms =      147.2103720259 Hartrees.
 One-electron integrals computed using PRISM.
 NBasis=   121 RedAO= T  NBF=    74    47
 NBsUse=   121 1.00D-06 NBFU=    74    47
 Initial guess read from the read-write file.
 B after Tr=     0.000000    0.000000    0.000000
         Rot=    1.000000    0.000000    0.000000    0.000000 Ang=   0.00 deg.
 Initial guess orbital symmetries:
       Occupied  (A') (A") (A') (A') (A') (A") (A') (A') (A') (A")
                 (A') (A") (A') (A') (A") (A') (A') (A') (A") (A")
       Virtual   (A') (A') (A") (A') (A') (A") (A') (A') (A") (A")
                 (A') (A') (A") (A') (A") (A') (A') (A") (A') (A')
                 (A") (A') (A') (A') (A") (A') (A") (A') (A') (A')
                 (A") (A") (A') (A') (A') (A") (A') (A') (A") (A")
                 (A') (A") (A') (A') (A") (A') (A') (A") (A') (A')
                 (A") (A') (A") (A") (A") (A') (A') (A") (A') (A')
                 (A") (A") (A") (A') (A') (A') (A') (A") (A") (A')
                 (A') (A') (A") (A') (A') (A") (A") (A') (A") (A")
                 (A') (A") (A') (A') (A') (A") (A") (A') (A') (A")
                 (A') (A') (A") (A') (A') (A') (A") (A') (A") (A')
                 (A')
 Harris functional with IExCor= 1009 diagonalized for initial guess.
 ExpMin= 8.45D-02 ExpMax= 5.48D+03 ExpMxC= 8.25D+02 IAcc=2 IRadAn=         0 AccDes= 0.00D+00
 HarFok:  IExCor= 1009 AccDes= 0.00D+00 IRadAn=         0 IDoV= 1
 ScaDFX=  1.000000  1.000000  1.000000  1.000000
 FoFCou: FMM=F IPFlag=           0 FMFlag=      100000 FMFlg1=           0
         NFxFlg=           0 DoJE=T BraDBF=F KetDBF=T FulRan=T
         Omega=  0.000000  0.000000  1.000000  0.000000  0.000000 ICntrl=     500 IOpCl=  0
         NMat0=    1 NMatS0=    1 NMatT0=    0 NMatD0=    1 NMtDS0=    0 NMtDT0=    0
         I1Cent=           4 NGrid=           0.
 Petite list used in FoFCou.
 Requested convergence on RMS density matrix=1.00D-08 within 128 cycles.
 Requested convergence on MAX density matrix=1.00D-06.
 Requested convergence on             energy=1.00D-06.
 No special actions if energy rises.
 Keep R1 ints in memory in canonical form, NReq=31270876.
 Error on total polarization charges =  0.03681
 SCF Done:  E(RM062X) =  -306.093512575     A.U. after   11 cycles
             Convg  =    0.1704D-08             -V/T =  2.0088
 SMD-CDS (non-electrostatic) energy             (kcal/mol) =       4.87
 (included in total energy above)
 D1PCM: PCM CHGder 1st derivatives, ID1Alg=3 FixD1E=F DoIter=F DoCFld=F I1PDM=0.
 Calling FoFJK, ICntrl=      2127 FMM=F ISym2X=1 I1Cent= 0 IOpClX= 0 NMat=1 NMatS=1 NMatT=0.
 ***** Axes restored to original set *****
 -------------------------------------------------------------------
 Center     Atomic                   Forces (Hartrees/Bohr)
 Number     Number              X              Y              Z
 -------------------------------------------------------------------
      1        8           0.017580801    0.009764631    0.000000000
      2        1          -0.009762407   -0.004998244   -0.002107365
      3        1          -0.009762407   -0.004998244    0.002107365
      4        1           0.001423494    0.000290555    0.000000000
      5        8           0.009869188   -0.003325387    0.000000000
      6        8          -0.001074633    0.002941357   -0.008080829
      7        8          -0.001074633    0.002941357    0.008080829
      8        1          -0.003939009    0.004914207    0.000000000
      9        1          -0.005694047   -0.001483929    0.000000000
     10        1          -0.000233292   -0.001609649    0.001845962
     11        1           0.001450119   -0.001413503    0.001494186
     12        1          -0.000233292   -0.001609649   -0.001845962
     13        1           0.001450119   -0.001413503   -0.001494186
 -------------------------------------------------------------------
 Cartesian Forces:  Max     0.017580801 RMS     0.005098348

 GradGradGradGradGradGradGradGradGradGradGradGradGradGradGradGradGradGrad
 Berny optimization.
 Using GEDIIS/GDIIS optimizer.
 Internal  Forces:  Max     0.008657306 RMS     0.003240901
 Search for a local minimum.
 Step number   4 out of a maximum of   52
 All quantities printed in internal units (Hartrees-Bohrs-Radians)
 Mixed Optimization -- RFO/linear search
 Update second derivatives using D2CorX and points    2    4    3
 DE=  2.21D-03 DEPred=-1.23D-03 R=-1.80D+00
 Trust test=-1.80D+00 RLast= 5.54D-01 DXMaxT set to 4.24D-01
 Use linear search instead of GDIIS.
 Quartic linear search produced a step of -0.73161.
 Iteration  1 RMS(Cart)=  0.21135594 RMS(Int)=  0.02227842
 Iteration  2 RMS(Cart)=  0.08900806 RMS(Int)=  0.00295881
 Iteration  3 RMS(Cart)=  0.00482063 RMS(Int)=  0.00033639
 Iteration  4 RMS(Cart)=  0.00000455 RMS(Int)=  0.00033639
 Iteration  5 RMS(Cart)=  0.00000000 RMS(Int)=  0.00033639
[...]
    R1        1.93766  -0.00025   0.00025   0.00090   0.00116   1.93881
    R2        1.93677  -0.00015   0.00018   0.00135   0.00153   1.93830
    R3        1.94177  -0.00009   0.00009  -0.00068  -0.00059   1.94117
    R4        2.86368  -0.00004   0.00006  -0.00413  -0.00407   2.85961
    R5        2.86487  -0.00010   0.00017  -0.00341  -0.00324   2.86163
    R6        2.84156   0.00010  -0.00020   0.00165   0.00146   2.84302
    R7        1.82923  -0.00001  -0.00003  -0.00099  -0.00102   1.82821
    R8        1.82937  -0.00008  -0.00004  -0.00137  -0.00141   1.82796
    R9        1.82933   0.00003   0.00002  -0.00035  -0.00033   1.82901
   R10        1.82888   0.00018  -0.00001   0.00054   0.00054   1.82942
   R11        1.82954  -0.00011   0.00002   0.00000   0.00002   1.82956
   R12        1.82935   0.00000  -0.00004   0.00023   0.00019   1.82954
    A1        1.92265  -0.00006   0.00003   0.00017   0.00020   1.92285
    A2        1.92184  -0.00008   0.00002  -0.00222  -0.00221   1.91962
    A3        1.92027   0.00014   0.00015  -0.00170  -0.00154   1.91874
    A4        1.95460   0.00003   0.00098  -0.00141  -0.00041   1.95419
    A5        1.95704   0.00025   0.00068   0.00043   0.00114   1.95818
    A6        1.84712  -0.00022   0.00064  -0.01013  -0.00944   1.83768
    A7        1.95702  -0.00016  -0.00038   0.00170   0.00133   1.95836
    A8        1.94880   0.00013  -0.00032   0.00214   0.00183   1.95063
    A9        1.84141   0.00004  -0.00002  -0.00243  -0.00243   1.83898
   A10        1.95002  -0.00001  -0.00016  -0.00216  -0.00233   1.94769
   A11        1.94971   0.00006  -0.00024  -0.00035  -0.00058   1.94913
   A12        1.84234  -0.00001  -0.00007  -0.00088  -0.00095   1.84139
   A13        3.13568  -0.00006   0.00018   0.01031   0.01049   3.14618
   A14        3.13045  -0.00002   0.00087   0.00191   0.00278   3.13322
   A15        3.18893  -0.00004   0.00026   0.00173   0.00201   3.19094
   A16        3.15351  -0.00014  -0.00053   0.00481   0.00429   3.15780
   A17        3.13543  -0.00002  -0.00165   0.01676   0.01512   3.15054
   A18        3.15392   0.00003  -0.00088   0.01653   0.01565   3.16957
    D1       -1.57026   0.00010  -0.00179   0.01511   0.01334  -1.55692
    D2        0.51400   0.00000   0.00051   0.00059   0.00108   0.51508
    D3        2.57969   0.00013  -0.00183   0.01412   0.01230   2.59199
    D4       -1.61924   0.00003   0.00047  -0.00040   0.00005  -1.61920
    D5       -2.92069   0.00013  -0.00135   0.01528   0.01391  -2.90678
    D6        1.29878   0.00009  -0.00051   0.01409   0.01359   1.31236
    D7       -0.79962   0.00008  -0.00073   0.00864   0.00791  -0.79171
    D8       -2.86334   0.00004   0.00012   0.00746   0.00759  -2.85575
    D9        2.82855  -0.00003  -0.00078  -0.01138  -0.01217   2.81638
   D10       -1.39521   0.00001  -0.00111  -0.01674  -0.01786  -1.41306
   D11        0.70633  -0.00008  -0.00093  -0.01076  -0.01168   0.69465
   D12        2.76576  -0.00003  -0.00127  -0.01612  -0.01737   2.74839
         Item               Value     Threshold  Converged?
 Maximum Force            0.000251     0.000450     YES
 RMS     Force            0.000104     0.000300     YES
 Maximum Displacement     0.032809     0.001800     NO 
 RMS     Displacement     0.013645     0.001200     NO 
 Predicted change in Energy=-9.841415D-06
 Optimization stopped.
    -- Number of steps exceeded,  NStep=  52
    -- Flag reset to prevent archiving.
                           ----------------------------
                           ! Non-Optimized Parameters !
                           ! (Angstroms and Degrees)  !
 --------------------------                            --------------------------
 ! Name  Definition              Value          Derivative Info.                !
 --------------------------------------------------------------------------------
 ! R1    R(1,2)                  1.026          -DE/DX =   -0.0002              !
 ! R2    R(1,3)                  1.0257         -DE/DX =   -0.0002              !
 ! R3    R(1,4)                  1.0272         -DE/DX =   -0.0001              !
 ! R4    R(2,7)                  1.5132         -DE/DX =    0.0                 !
 ! R5    R(3,6)                  1.5143         -DE/DX =   -0.0001              !
 ! R6    R(4,5)                  1.5045         -DE/DX =    0.0001              !
 ! R7    R(5,8)                  0.9674         -DE/DX =    0.0                 !
 ! R8    R(5,9)                  0.9673         -DE/DX =   -0.0001              !
 ! R9    R(6,10)                 0.9679         -DE/DX =    0.0                 !
 ! R10   R(6,11)                 0.9681         -DE/DX =    0.0002              !
 ! R11   R(7,12)                 0.9682         -DE/DX =   -0.0001              !
 ! R12   R(7,13)                 0.9682         -DE/DX =    0.0                 !
 ! A1    A(2,1,3)              110.1713         -DE/DX =   -0.0001              !
 ! A2    A(2,1,4)              109.9863         -DE/DX =   -0.0001              !
 ! A3    A(3,1,4)              109.9354         -DE/DX =    0.0001              !
 ! A4    A(4,5,8)              111.9668         -DE/DX =    0.0                 !
 ! A5    A(4,5,9)              112.1954         -DE/DX =    0.0003              !
 ! A6    A(8,5,9)              105.2915         -DE/DX =   -0.0002              !
 ! A7    A(3,6,10)             112.2055         -DE/DX =   -0.0002              !
 ! A8    A(3,6,11)             111.7629         -DE/DX =    0.0001              !
 ! A9    A(10,6,11)            105.3656         -DE/DX =    0.0                 !
 ! A10   A(2,7,12)             111.5947         -DE/DX =    0.0                 !
 ! A11   A(2,7,13)             111.6769         -DE/DX =    0.0001              !
 ! A12   A(12,7,13)            105.5036         -DE/DX =    0.0                 !
 ! A13   L(1,2,7,3,-1)         180.2627         -DE/DX =   -0.0001              !
 ! A14   L(1,3,6,2,-1)         179.5204         -DE/DX =    0.0                 !
 ! A15   L(1,4,5,2,-1)         182.8273         -DE/DX =    0.0                 !
 ! A16   L(1,2,7,3,-2)         180.9286         -DE/DX =   -0.0001              !
 ! A17   L(1,3,6,2,-2)         180.5128         -DE/DX =    0.0                 !
 ! A18   L(1,4,5,2,-2)         181.6031         -DE/DX =    0.0                 !
 ! D1    D(2,1,5,8)            -89.2049         -DE/DX =    0.0001              !
 ! D2    D(2,1,5,9)             29.5118         -DE/DX =    0.0                 !
 ! D3    D(3,1,5,8)            148.5102         -DE/DX =    0.0001              !
 ! D4    D(3,1,5,9)            -92.7731         -DE/DX =    0.0                 !
 ! D5    D(2,1,6,10)          -166.5464         -DE/DX =    0.0001              !
 ! D6    D(2,1,6,11)            75.1927         -DE/DX =    0.0001              !
 ! D7    D(4,1,6,10)           -45.3615         -DE/DX =    0.0001              !
 ! D8    D(4,1,6,11)          -163.6224         -DE/DX =    0.0                 !
 ! D9    D(3,1,7,12)           161.3667         -DE/DX =    0.0                 !
 ! D10   D(3,1,7,13)           -80.9627         -DE/DX =    0.0                 !
 ! D11   D(4,1,7,12)            39.8004         -DE/DX =   -0.0001              !
 ! D12   D(4,1,7,13)           157.471          -DE/DX =    0.0                 !
 --------------------------------------------------------------------------------
 GradGradGradGradGradGradGradGradGradGradGradGradGradGradGradGradGradGrad

                          Input orientation:                          
 ---------------------------------------------------------------------
 Center     Atomic      Atomic             Coordinates (Angstroms)
 Number     Number       Type             X           Y           Z
 ---------------------------------------------------------------------
      1          8           0        0.007582    0.407684   -0.054310
      2          1           0       -0.458749    0.075023    0.796128
      3          1           0       -0.499149    0.084471   -0.884473
      4          1           0        0.977649    0.069870   -0.080548
      5          8           0        2.408437   -0.382628   -0.176334
      6          8           0       -1.262934   -0.396873   -2.102369
      7          8           0       -1.159915   -0.412006    2.048162
      8          1           0        3.015711    0.244560    0.241817
      9          1           0        2.553936   -1.229002    0.270455
     10          1           0       -0.759073   -0.275986   -2.920058
     11          1           0       -2.083866    0.099921   -2.228499
     12          1           0       -0.580054   -0.371632    2.822400
     13          1           0       -1.924839    0.139217    2.267629
 ---------------------------------------------------------------------
                    Distance matrix (angstroms):
                    1          2          3          4          5
     1  O    0.000000
     2  H    1.025364   0.000000
     3  H    1.024897   1.681112   0.000000
     4  H    1.027540   1.682804   1.681500   0.000000
     5  O    2.530531   3.062006   3.028811   1.503689   0.000000
     6  O    2.540879   3.044779   1.516024   3.053821   4.145934
     7  O    2.540734   1.515395   3.046875   3.054962   4.205042
     8  H    3.027068   3.522481   3.694373   2.070780   0.967986
     9  H    3.044361   3.324618   3.518579   2.072426   0.968060
    10  H    3.044286   3.744788   2.083530   3.346436   4.191958
    11  H    3.032486   3.433655   2.077973   3.739983   4.962360
    12  H    3.037780   2.078460   3.735703   3.323924   4.233628
    13  H    3.032775   2.078186   3.459961   3.734057   5.002255
                    6          7          8          9         10
     6  O    0.000000
     7  O    4.151837   0.000000
     8  H    4.920715   4.596717   0.000000
     9  H    4.570692   4.197667   1.544487   0.000000
    10  H    0.968041   4.986219   4.951506   4.697195   0.000000
    11  H    0.967804   4.405177   5.668250   5.433232   1.540986
    12  H    4.971952   0.968149   4.468627   4.131513   5.746044
    13  H    4.452235   0.968051   5.340791   5.091183   5.333244
                   11         12         13
    11  H    0.000000
    12  H    5.291067   0.000000
    13  H    4.499111   1.541812   0.000000
 Stoichiometry    H9O4(1+)
 Framework group  C1[X(H9O4)]
 Deg. of freedom    33
 Full point group                 C1      NOp   1
 Largest Abelian subgroup         C1      NOp   1
 Largest concise Abelian subgroup C1      NOp   1
                         Standard orientation:                         
 ---------------------------------------------------------------------
 Center     Atomic      Atomic             Coordinates (Angstroms)
 Number     Number       Type             X           Y           Z
 ---------------------------------------------------------------------
      1          8           0       -0.012472   -0.003849    0.588895
      2          1           0        0.494046   -0.828823    0.250917
      3          1           0       -0.979733   -0.020048    0.250433
      4          1           0        0.456930    0.853442    0.271794
      5          8           0        1.099194    2.145830   -0.150473
      6          8           0       -2.408879   -0.061324   -0.253716
      7          8           0        1.232372   -2.056056   -0.244256
      8          1           0        1.755932    2.451037    0.491820
      9          1           0        1.571644    2.060679   -0.991116
     10          1           0       -2.864975    0.783005   -0.126480
     11          1           0       -2.937645   -0.715671    0.224698
     12          1           0        2.192334   -1.944071   -0.187300
     13          1           0        1.029744   -2.836365    0.291638
 ---------------------------------------------------------------------
 Rotational constants (GHZ):      2.8794667      2.8721244      1.5199810

 **********************************************************************

            Population analysis using the SCF density.

 **********************************************************************

 Orbital symmetries:
       Occupied  (A) (A) (A) (A) (A) (A) (A) (A) (A) (A) (A) (A)
                 (A) (A) (A) (A) (A) (A) (A) (A)
       Virtual   (A) (A) (A) (A) (A) (A) (A) (A) (A) (A) (A) (A)
                 (A) (A) (A) (A) (A) (A) (A) (A) (A) (A) (A) (A)
                 (A) (A) (A) (A) (A) (A) (A) (A) (A) (A) (A) (A)
                 (A) (A) (A) (A) (A) (A) (A) (A) (A) (A) (A) (A)
                 (A) (A) (A) (A) (A) (A) (A) (A) (A) (A) (A) (A)
                 (A) (A) (A) (A) (A) (A) (A) (A) (A) (A) (A) (A)
                 (A) (A) (A) (A) (A) (A) (A) (A) (A) (A) (A) (A)
                 (A) (A) (A) (A) (A) (A) (A) (A) (A) (A) (A) (A)
                 (A) (A) (A) (A) (A)
 The electronic state is 1-A.
 Alpha  occ. eigenvalues --  -19.69049 -19.67712 -19.67634 -19.67613  -1.19926
 Alpha  occ. eigenvalues --   -1.16055  -1.15992  -1.14964  -0.66057  -0.65900
 Alpha  occ. eigenvalues --   -0.62798  -0.62613  -0.62582  -0.53372  -0.49609
 Alpha  occ. eigenvalues --   -0.49263  -0.46451  -0.43689  -0.42503  -0.42208
 Alpha virt. eigenvalues --    0.05009   0.08073   0.08498   0.12482   0.13116
 Alpha virt. eigenvalues --    0.14095   0.15219   0.16865   0.17754   0.20706
 Alpha virt. eigenvalues --    0.21517   0.22418   0.23740   0.24311   0.25596
 Alpha virt. eigenvalues --    0.26429   0.28912   0.29131   0.30768   0.33465
 Alpha virt. eigenvalues --    0.34358   0.36385   0.37423   0.38872   0.39020
 Alpha virt. eigenvalues --    0.96945   0.98485   1.00982   1.04287   1.05557
 Alpha virt. eigenvalues --    1.07284   1.07699   1.09393   1.09756   1.11639
 Alpha virt. eigenvalues --    1.13631   1.13966   1.16245   1.18673   1.19534
 Alpha virt. eigenvalues --    1.20485   1.21383   1.21614   1.25350   1.28908
 Alpha virt. eigenvalues --    1.29238   1.40206   1.45213   1.46376   1.51748
 Alpha virt. eigenvalues --    1.52593   1.53649   1.55534   1.56242   1.56710
 Alpha virt. eigenvalues --    1.57804   1.60409   1.63074   1.73069   1.77462
 Alpha virt. eigenvalues --    1.77594   2.10861   2.23847   2.24027   2.24176
 Alpha virt. eigenvalues --    2.24531   2.27958   2.31573   2.41449   2.42190
 Alpha virt. eigenvalues --    2.54922   2.55257   2.56654   2.57626   2.61124
 Alpha virt. eigenvalues --    2.63755   2.64062   2.69170   2.70365   2.72069
 Alpha virt. eigenvalues --    2.83212   2.83690   2.85336   3.02379   3.04373
 Alpha virt. eigenvalues --    3.05195   3.09294   3.09795   3.29586   3.33631
 Alpha virt. eigenvalues --    3.34789   3.53393   3.53592   3.54057   3.61127
 Alpha virt. eigenvalues --    3.74414   3.75713   4.14694   4.21400   4.22230
 Alpha virt. eigenvalues --    4.56517
          Condensed to atoms (all electrons):
              1          2          3          4          5          6
     1  O    8.388958   0.219959   0.217972   0.218778  -0.071551  -0.079875
     2  H    0.219959   0.199353  -0.006735  -0.006450   0.002982   0.004635
     3  H    0.217972  -0.006735   0.200668  -0.006309   0.003560   0.038474
     4  H    0.218778  -0.006450  -0.006309   0.198777   0.034606   0.004495
     5  O   -0.071551   0.002982   0.003560   0.034606   8.306709   0.000468
     6  O   -0.079875   0.004635   0.038474   0.004495   0.000468   8.308369
     7  O   -0.079052   0.037511   0.004293   0.004250  -0.001450   0.000530
     8  H    0.002526  -0.000048  -0.000008  -0.002782   0.287479  -0.000015
     9  H    0.002164  -0.000107  -0.000064  -0.002925   0.289890  -0.000050
    10  H    0.002901  -0.000021  -0.003046  -0.000175  -0.000039   0.288125
    11  H    0.003070  -0.000143  -0.003135  -0.000021  -0.000037   0.287801
    12  H    0.002907  -0.003006  -0.000016  -0.000177   0.000095  -0.000026
    13  H    0.003060  -0.003027  -0.000115  -0.000014  -0.000001  -0.000032
              7          8          9         10         11         12
     1  O   -0.079052   0.002526   0.002164   0.002901   0.003070   0.002907
     2  H    0.037511  -0.000048  -0.000107  -0.000021  -0.000143  -0.003006
     3  H    0.004293  -0.000008  -0.000064  -0.003046  -0.003135  -0.000016
     4  H    0.004250  -0.002782  -0.002925  -0.000175  -0.000021  -0.000177
     5  O   -0.001450   0.287479   0.289890  -0.000039  -0.000037   0.000095
     6  O    0.000530  -0.000015  -0.000050   0.288125   0.287801  -0.000026
     7  O    8.310245   0.000029   0.000143  -0.000027  -0.000033   0.287749
     8  H    0.000029   0.273766  -0.015829   0.000000   0.000000  -0.000001
     9  H    0.000143  -0.015829   0.272754   0.000001   0.000000  -0.000010
    10  H   -0.000027   0.000000   0.000001   0.274622  -0.015736   0.000000
    11  H   -0.000033   0.000000   0.000000  -0.015736   0.275409   0.000000
    12  H    0.287749  -0.000001  -0.000010   0.000000   0.000000   0.274981
    13  H    0.287510   0.000000   0.000000   0.000000   0.000001  -0.015688
             13
     1  O    0.003060
     2  H   -0.003027
     3  H   -0.000115
     4  H   -0.000014
     5  O   -0.000001
     6  O   -0.000032
     7  O    0.287510
     8  H    0.000000
     9  H    0.000000
    10  H    0.000000
    11  H    0.000001
    12  H   -0.015688
    13  H    0.275006
 Mulliken atomic charges:
              1
     1  O   -0.831816
     2  H    0.555096
     3  H    0.554461
     4  H    0.557947
     5  O   -0.852713
     6  O   -0.852899
     7  O   -0.851699
     8  H    0.454883
     9  H    0.454031
    10  H    0.453394
    11  H    0.452823
    12  H    0.453191
    13  H    0.453300
 Sum of Mulliken atomic charges =   1.00000
 Mulliken charges with hydrogens summed into heavy atoms:
              1
     1  O    0.835688
     5  O    0.056201
     6  O    0.053318
     7  O    0.054792
 Sum of Mulliken charges with hydrogens summed into heavy atoms =   1.00000
 Electronic spatial extent (au):  <R**2>=            731.3380
 Charge=              1.0000 electrons
 Dipole moment (field-independent basis, Debye):
    X=              2.0374    Y=             -0.5215    Z=              1.6611  Tot=              2.6800
 Quadrupole moment (field-independent basis, Debye-Ang):
   XX=              5.3323   YY=             -7.5353   ZZ=            -26.7264
   XY=              1.0485   XZ=             -3.3844   YZ=             -4.6402
 Traceless Quadrupole moment (field-independent basis, Debye-Ang):
   XX=             14.9754   YY=              2.1078   ZZ=            -17.0832
   XY=              1.0485   XZ=             -3.3844   YZ=             -4.6402
 Octapole moment (field-independent basis, Debye-Ang**2):
  XXX=            -18.3581  YYY=            -22.9559  ZZZ=             -1.5268  XYY=             27.9178
  XXY=              5.2184  XXZ=              9.0917  XZZ=              6.3132  YZZ=              7.3563
  YYZ=             11.8009  XYZ=             -1.2590
 Hexadecapole moment (field-independent basis, Debye-Ang**3):
 XXXX=           -135.7656 YYYY=           -265.2828 ZZZZ=            -44.4119 XXXY=             -5.7082
 XXXZ=            -31.4584 YYYX=              2.0567 YYYZ=            -22.0733 ZZZX=             -5.8891
 ZZZY=             -7.9332 XXYY=            -30.1159 XXZZ=            -69.3653 YYZZ=            -61.3826
 XXYZ=             -9.8028 YYXZ=              9.0632 ZZXY=             11.5938
 N-N= 1.457495764235D+02 E-N=-1.005134199740D+03  KE= 3.033917048179D+02


 MAN IS A SINGULAR CREATURE.  HE HAS A SET OF GIFTS
 WHICH MAKE HIM UNIQUE AMONG THE ANIMALS: SO THAT, 
 UNLIKE THEM, HE IS NOT A FIGURE IN THE LANDSCAPE --
 HE IS A SHAPER OF THE LANDSCAPE.

                       -- JACOB BRONOWSKI
 Error termination request processed by link 9999.
 Error termination via Lnk1e in C:\G09W\l9999.exe at Tue Jan 19 20:13:01 2021.
 Job cpu time:  0 days  0 hours 14 minutes 51.0 seconds.
 File lengths (MBytes):  RWF=     39 Int=      0 D2E=      0 Chk=      3 Scr=      1
