 Entering Link 1 = C:\G09W\l1.exe PID=      1800.
  
 Copyright (c) 1988,1990,1992,1993,1995,1998,2003,2009, Gaussian, Inc.
                  All Rights Reserved.
  
 This is part of the Gaussian(R) 09 program.  It is based on
 the Gaussian(R) 03 system (copyright 2003, Gaussian, Inc.),
 the Gaussian(R) 98 system (copyright 1998, Gaussian, Inc.),
 the Gaussian(R) 94 system (copyright 1995, Gaussian, Inc.),
 the Gaussian 92(TM) system (copyright 1992, Gaussian, Inc.),
 the Gaussian 90(TM) system (copyright 1990, Gaussian, Inc.),
 the Gaussian 88(TM) system (copyright 1988, Gaussian, Inc.),
 the Gaussian 86(TM) system (copyright 1986, Carnegie Mellon
 University), and the Gaussian 82(TM) system (copyright 1983,
 Carnegie Mellon University). Gaussian is a federally registered
 trademark of Gaussian, Inc.
  
 This software contains proprietary and confidential information,
 including trade secrets, belonging to Gaussian, Inc.
  
 This software is provided under written license and may be
 used, copied, transmitted, or stored only in accord with that
 written license.
  
 The following legend is applicable only to US Government
 contracts under FAR:
  
                    RESTRICTED RIGHTS LEGEND
  
 Use, reproduction and disclosure by the US Government is
 subject to restrictions as set forth in subparagraphs (a)
 and (c) of the Commercial Computer Software - Restricted
 Rights clause in FAR 52.227-19.
  
 Gaussian, Inc.
 340 Quinnipiac St., Bldg. 40, Wallingford CT 06492
  
  
 ---------------------------------------------------------------
 Warning -- This program may not be used in any manner that
 competes with the business of Gaussian, Inc. or will provide
 assistance to any competitor of Gaussian, Inc.  The licensee
 of this program is prohibited from giving any competitor of
 Gaussian, Inc. access to this program.  By using this program,
 the user acknowledges that Gaussian, Inc. is engaged in the
 business of creating and licensing software in the field of
 computational chemistry and represents and warrants to the
 licensee that it is not a competitor of Gaussian, Inc. and that
 it will not use this program in any manner prohibited above.
 ---------------------------------------------------------------
  

 Cite this work as:
 Gaussian 09, Revision A.02,
 M. J. Frisch, G. W. Trucks, H. B. Schlegel, G. E. Scuseria, 
 M. A. Robb, J. R. Cheeseman, G. Scalmani, V. Barone, B. Mennucci, 
 G. A. Petersson, H. Nakatsuji, M. Caricato, X. Li, H. P. Hratchian, 
 A. F. Izmaylov, J. Bloino, G. Zheng, J. L. Sonnenberg, M. Hada, 
 M. Ehara, K. Toyota, R. Fukuda, J. Hasegawa, M. Ishida, T. Nakajima, 
 Y. Honda, O. Kitao, H. Nakai, T. Vreven, J. A. Montgomery, Jr., 
 J. E. Peralta, F. Ogliaro, M. Bearpark, J. J. Heyd, E. Brothers, 
 K. N. Kudin, V. N. Staroverov, R. Kobayashi, J. Normand, 
 K. Raghavachari, A. Rendell, J. C. Burant, S. S. Iyengar, J. Tomasi, 
 M. Cossi, N. Rega, J. M. Millam, M. Klene, J. E. Knox, J. B. Cross, 
 V. Bakken, C. Adamo, J. Jaramillo, R. Gomperts, R. E. Stratmann, 
 O. Yazyev, A. J. Austin, R. Cammi, C. Pomelli, J. W. Ochterski, 
 R. L. Martin, K. Morokuma, V. G. Zakrzewski, G. A. Voth, 
 P. Salvador, J. J. Dannenberg, S. Dapprich, A. D. Daniels, 
 O. Farkas, J. B. Foresman, J. V. Ortiz, J. Cioslowski, 
 and D. J. Fox, Gaussian, Inc., Wallingford CT, 2009.
 
 ******************************************
 Gaussian 09:  IA32W-G09RevA.02 11-Jun-2009
                24-Jan-2021 
 ******************************************
 %chk=D:\Documents\rayGit\FQ\quimicaComputacional\p4Pka\reactivos\propaneateM062x
 .chk
 %mem=1500MB
 %nprocshared=4
 Will use up to    4 processors via shared memory.
 -------------------------------------
 # opt freq 6-31+g(d,p) scrf=smd m062x
 -------------------------------------
 1/14=-1,18=20,19=15,26=3,38=1/1,3;
 2/9=110,12=2,17=6,18=5,40=1/2;
 3/5=1,6=6,7=111,11=2,16=1,25=1,30=1,70=32201,71=1,72=1,74=-55/1,2,3;
 4//1;
 5/5=2,38=5/2;
 6/7=2,8=2,9=2,10=2,28=1/1;
 7//1,2,3,16;
 1/14=-1,18=20,19=15/3(2);
 2/9=110/2;
 99//99;
 2/9=110/2;
 3/5=1,6=6,7=111,11=2,16=1,25=1,30=1,70=32205,71=1,74=-55/1,2,3;
 4/5=5,16=3/1;
 5/5=2,38=5/2;
 7//1,2,3,16;
 1/14=-1,18=20,19=15/3(-5);
 2/9=110/2;
 6/7=2,8=2,9=2,10=2,19=2,28=1/1;
 99/9=1/99;
 ----------------
 propaneate m062x
 ----------------
 Symbolic Z-matrix:
 Charge = -1 Multiplicity = 1
 C                    -0.05876   0.11752   0. 
 O                     0.41791   0.11752   1.34822 
 O                    -1.48876   0.11754   0. 
 C                     0.45457   0.11752  -1.45193 
 H                     0.09805  -0.75623  -1.95627 
 H                     0.09776   0.99107  -1.95638 
 C                     1.99457   0.11778  -1.45193 
 H                     2.35139  -0.75483  -0.94583 
 H                     2.35124   0.11588  -2.46073 
 H                     2.35109   0.99247  -0.94922 
 

 GradGradGradGradGradGradGradGradGradGradGradGradGradGradGradGradGradGrad
 Berny optimization.
 Initialization pass.
                           ----------------------------
                           !    Initial Parameters    !
                           ! (Angstroms and Degrees)  !
 --------------------------                            --------------------------
 ! Name  Definition              Value          Derivative Info.                !
 --------------------------------------------------------------------------------
 ! R1    R(1,2)                  1.43           estimate D2E/DX2                !
 ! R2    R(1,3)                  1.43           estimate D2E/DX2                !
 ! R3    R(1,4)                  1.54           estimate D2E/DX2                !
 ! R4    R(4,5)                  1.07           estimate D2E/DX2                !
 ! R5    R(4,6)                  1.07           estimate D2E/DX2                !
 ! R6    R(4,7)                  1.54           estimate D2E/DX2                !
 ! R7    R(7,8)                  1.07           estimate D2E/DX2                !
 ! R8    R(7,9)                  1.07           estimate D2E/DX2                !
 ! R9    R(7,10)                 1.07           estimate D2E/DX2                !
 ! A1    A(2,1,3)              109.4712         estimate D2E/DX2                !
 ! A2    A(2,1,4)              141.0576         estimate D2E/DX2                !
 ! A3    A(3,1,4)              109.4712         estimate D2E/DX2                !
 ! A4    A(1,4,5)              109.4712         estimate D2E/DX2                !
 ! A5    A(1,4,6)              109.4712         estimate D2E/DX2                !
 ! A6    A(1,4,7)              109.4712         estimate D2E/DX2                !
 ! A7    A(5,4,6)              109.4713         estimate D2E/DX2                !
 ! A8    A(5,4,7)              109.4712         estimate D2E/DX2                !
 ! A9    A(6,4,7)              109.4712         estimate D2E/DX2                !
 ! A10   A(4,7,8)              109.4712         estimate D2E/DX2                !
 ! A11   A(4,7,9)              109.4712         estimate D2E/DX2                !
 ! A12   A(4,7,10)             109.4712         estimate D2E/DX2                !
 ! A13   A(8,7,9)              109.4713         estimate D2E/DX2                !
 ! A14   A(8,7,10)             109.4712         estimate D2E/DX2                !
 ! A15   A(9,7,10)             109.4712         estimate D2E/DX2                !
 ! D1    D(2,1,4,5)            119.9889         estimate D2E/DX2                !
 ! D2    D(2,1,4,6)           -120.0111         estimate D2E/DX2                !
 ! D3    D(2,1,4,7)             -0.0111         estimate D2E/DX2                !
 ! D4    D(3,1,4,5)            -60.0111         estimate D2E/DX2                !
 ! D5    D(3,1,4,6)             59.9889         estimate D2E/DX2                !
 ! D6    D(3,1,4,7)            179.9889         estimate D2E/DX2                !
 ! D7    D(1,4,7,8)             59.8926         estimate D2E/DX2                !
 ! D8    D(1,4,7,9)            179.8926         estimate D2E/DX2                !
 ! D9    D(1,4,7,10)           -60.1074         estimate D2E/DX2                !
 ! D10   D(5,4,7,8)            -60.1074         estimate D2E/DX2                !
 ! D11   D(5,4,7,9)             59.8926         estimate D2E/DX2                !
 ! D12   D(5,4,7,10)           179.8926         estimate D2E/DX2                !
 ! D13   D(6,4,7,8)            179.8926         estimate D2E/DX2                !
 ! D14   D(6,4,7,9)            -60.1074         estimate D2E/DX2                !
 ! D15   D(6,4,7,10)            59.8926         estimate D2E/DX2                !
 --------------------------------------------------------------------------------
 Trust Radius=3.00D-01 FncErr=1.00D-07 GrdErr=1.00D-06
 Number of steps in this run=  49 maximum allowed number of steps= 100.
 GradGradGradGradGradGradGradGradGradGradGradGradGradGradGradGradGradGrad

                          Input orientation:                          
 ---------------------------------------------------------------------
 Center     Atomic      Atomic             Coordinates (Angstroms)
 Number     Number       Type             X           Y           Z
 ---------------------------------------------------------------------
      1          6           0       -0.058761    0.117521    0.000000
      2          8           0        0.417906    0.117515    1.348217
      3          8           0       -1.488761    0.117539    0.000000
      4          6           0        0.454573    0.117515   -1.451926
      5          1           0        0.098055   -0.756230   -1.956272
      6          1           0        0.097757    0.991073   -1.956385
      7          6           0        1.994573    0.117778   -1.451926
      8          1           0        2.351388   -0.754833   -0.945830
      9          1           0        2.351239    0.115882   -2.460730
     10          1           0        2.351090    0.992466   -0.949219
 ---------------------------------------------------------------------
                    Distance matrix (angstroms):
                    1          2          3          4          5
     1  C    0.000000
     2  O    1.430000   0.000000
     3  O    1.430000   2.335180   0.000000
     4  C    1.540000   2.800383   2.425826   0.000000
     5  H    2.148263   3.432984   2.666169   1.070000   0.000000
     6  H    2.148263   3.433073   2.665997   1.070000   1.747303
     7  C    2.514810   3.213515   3.773818   1.540000   2.148263
     8  H    2.732108   3.124419   4.049984   2.148263   2.469515
     9  H    3.444313   4.271517   4.560789   2.148263   2.468177
    10  H    2.733848   3.127451   4.051046   2.148263   3.024610
                    6          7          8          9         10
     6  H    0.000000
     7  C    2.148263   0.000000
     8  H    3.024609   1.070000   0.000000
     9  H    2.469515   1.070000   1.747303   0.000000
    10  H    2.468177   1.070000   1.747303   1.747303   0.000000
 Stoichiometry    C3H5O2(1-)
 Framework group  C1[X(C3H5O2)]
 Deg. of freedom    24
 Full point group                 C1      NOp   1
 Largest Abelian subgroup         C1      NOp   1
 Largest concise Abelian subgroup C1      NOp   1
                         Standard orientation:                         
 ---------------------------------------------------------------------
 Center     Atomic      Atomic             Coordinates (Angstroms)
 Number     Number       Type             X           Y           Z
 ---------------------------------------------------------------------
      1          6           0        0.546953    0.034063   -0.000028
      2          8           0        1.063757    1.367410   -0.000031
      3          8           0        1.631776   -0.897634    0.000076
      4          6           0       -0.788453   -0.732939   -0.000099
      5          1           0       -0.846539   -1.347847   -0.873834
      6          1           0       -0.846492   -1.348090    0.873469
      7          6           0       -1.956724    0.270427    0.000072
      8          1           0       -1.897617    0.886820   -0.872549
      9          1           0       -2.884570   -0.262489   -0.001869
     10          1           0       -1.899706    0.884092    0.874750
 ---------------------------------------------------------------------
 Rotational constants (GHZ):      8.6385154      3.6911706      2.6702229
 Standard basis: 6-31+G(d,p) (6D, 7F)
 There are   120 symmetry adapted basis functions of A   symmetry.
 Integral buffers will be    262144 words long.
 Raffenetti 2 integral format.
 Two-electron integral symmetry is turned on.
   120 basis functions,   195 primitive gaussians,   120 cartesian basis functions
    20 alpha electrons       20 beta electrons
       nuclear repulsion energy       159.7273360116 Hartrees.
 NAtoms=   10 NActive=   10 NUniq=   10 SFac= 7.50D-01 NAtFMM=   80 NAOKFM=F Big=F
 ------------------------------------------------------------------------------
 Polarizable Continuum Model (PCM)
 =================================
 Model                : PCM.
 Atomic radii         : SMD-Coulomb.
 Polarization charges : Total charges.
 Charge compensation  : None.
 Solution method      : Matrix inversion.
 Cavity type          : VdW (van der Waals Surface) (Alpha=1.000).
 Cavity algorithm     : GePol (No added spheres)
                        Default sphere list used, NSphG=   10.
                        Lebedev-Laikov grids with approx.  5.0 points / Ang**2.
                        Smoothing algorithm: Karplus/York (Gamma=1.0000).
                        Polarization charges: spherical gaussians, with
                                              point-specific exponents (IZeta= 3).
                        Self-potential: point-specific (ISelfS= 7).
                        Self-field    : sphere-specific E.n sum rule (ISelfD= 2).
 1st derivatives      : Analytical E(r).r(x)/FMM algorithm (CHGder, D1EAlg=3).
                        Cavity 1st derivative terms included.
 Solvent              : Water, Eps=  78.355300 Eps(inf)=   1.777849
 ------------------------------------------------------------------------------
 Spheres list:
 ISph  on   Nord    Re0     Alpha      Xe            Ye            Ze
    1   C      1    1.850   1.000      0.546953      0.034063     -0.000028
    2   O      2    1.520   1.000      1.063757      1.367410     -0.000031
    3   O      3    1.520   1.000      1.631776     -0.897634      0.000076
    4   C      4    1.850   1.000     -0.788453     -0.732939     -0.000099
    5   H      5    1.200   1.000     -0.846539     -1.347847     -0.873834
    6   H      6    1.200   1.000     -0.846492     -1.348090      0.873469
    7   C      7    1.850   1.000     -1.956724      0.270427      0.000072
    8   H      8    1.200   1.000     -1.897617      0.886820     -0.872549
    9   H      9    1.200   1.000     -2.884570     -0.262489     -0.001869
   10   H     10    1.200   1.000     -1.899706      0.884092      0.874750
 ------------------------------------------------------------------------------
 ------------------------------------------------------------------------------
 Atomic radii for non-electrostatic terms: SMD-CDS.
 ------------------------------------------------------------------------------
 Nuclear repulsion after PCM non-electrostatic terms =      159.7308062542 Hartrees.
 One-electron integrals computed using PRISM.
 NBasis=   120 RedAO= T  NBF=   120
 NBsUse=   120 1.00D-06 NBFU=   120
 Harris functional with IExCor= 1009 diagonalized for initial guess.
 ExpMin= 4.38D-02 ExpMax= 5.48D+03 ExpMxC= 8.25D+02 IAcc=2 IRadAn=         0 AccDes= 0.00D+00
 HarFok:  IExCor= 1009 AccDes= 0.00D+00 IRadAn=         0 IDoV= 1
 ScaDFX=  1.000000  1.000000  1.000000  1.000000
 FoFCou: FMM=F IPFlag=           0 FMFlag=      100000 FMFlg1=           0
         NFxFlg=           0 DoJE=T BraDBF=F KetDBF=T FulRan=T
         Omega=  0.000000  0.000000  1.000000  0.000000  0.000000 ICntrl=     500 IOpCl=  0
         NMat0=    1 NMatS0=    1 NMatT0=    0 NMatD0=    1 NMtDS0=    0 NMtDT0=    0
         I1Cent=           4 NGrid=           0.
 Petite list used in FoFCou.
 Initial guess orbital symmetries:
       Occupied  (A) (A) (A) (A) (A) (A) (A) (A) (A) (A) (A) (A)
                 (A) (A) (A) (A) (A) (A) (A) (A)
       Virtual   (A) (A) (A) (A) (A) (A) (A) (A) (A) (A) (A) (A)
                 (A) (A) (A) (A) (A) (A) (A) (A) (A) (A) (A) (A)
                 (A) (A) (A) (A) (A) (A) (A) (A) (A) (A) (A) (A)
                 (A) (A) (A) (A) (A) (A) (A) (A) (A) (A) (A) (A)
                 (A) (A) (A) (A) (A) (A) (A) (A) (A) (A) (A) (A)
                 (A) (A) (A) (A) (A) (A) (A) (A) (A) (A) (A) (A)
                 (A) (A) (A) (A) (A) (A) (A) (A) (A) (A) (A) (A)
                 (A) (A) (A) (A) (A) (A) (A) (A) (A) (A) (A) (A)
                 (A) (A) (A) (A)
 The electronic state of the initial guess is 1-A.
 Requested convergence on RMS density matrix=1.00D-08 within 128 cycles.
 Requested convergence on MAX density matrix=1.00D-06.
 Requested convergence on             energy=1.00D-06.
 No special actions if energy rises.
 Keep R1 ints in memory in canonical form, NReq=30252595.
 Error on total polarization charges =  0.06190
 SCF Done:  E(RM062X) =  -267.778247052     A.U. after   13 cycles
             Convg  =    0.3214D-08             -V/T =  2.0109
 SMD-CDS (non-electrostatic) energy             (kcal/mol) =       2.18
 (included in total energy above)

 **********************************************************************

            Population analysis using the SCF density.

 **********************************************************************

 Orbital symmetries:
       Occupied  (A) (A) (A) (A) (A) (A) (A) (A) (A) (A) (A) (A)
                 (A) (A) (A) (A) (A) (A) (A) (A)
       Virtual   (A) (A) (A) (A) (A) (A) (A) (A) (A) (A) (A) (A)
                 (A) (A) (A) (A) (A) (A) (A) (A) (A) (A) (A) (A)
                 (A) (A) (A) (A) (A) (A) (A) (A) (A) (A) (A) (A)
                 (A) (A) (A) (A) (A) (A) (A) (A) (A) (A) (A) (A)
                 (A) (A) (A) (A) (A) (A) (A) (A) (A) (A) (A) (A)
                 (A) (A) (A) (A) (A) (A) (A) (A) (A) (A) (A) (A)
                 (A) (A) (A) (A) (A) (A) (A) (A) (A) (A) (A) (A)
                 (A) (A) (A) (A) (A) (A) (A) (A) (A) (A) (A) (A)
                 (A) (A) (A) (A)
 The electronic state is 1-A.
 Alpha  occ. eigenvalues --  -19.62152 -19.60053 -10.68717 -10.55717 -10.52335
 Alpha  occ. eigenvalues --   -1.08598  -1.00048  -0.87257  -0.73055  -0.60620
 Alpha  occ. eigenvalues --   -0.53082  -0.50913  -0.47633  -0.43637  -0.43220
 Alpha  occ. eigenvalues --   -0.41525  -0.39896  -0.33741  -0.31676  -0.30657
 Alpha virt. eigenvalues --    0.02024   0.03093   0.04858   0.05453   0.06953
 Alpha virt. eigenvalues --    0.08430   0.09799   0.09930   0.10683   0.10926
 Alpha virt. eigenvalues --    0.13297   0.15383   0.16472   0.19891   0.23298
 Alpha virt. eigenvalues --    0.24460   0.25255   0.25969   0.26025   0.28541
 Alpha virt. eigenvalues --    0.29270   0.30771   0.32269   0.32675   0.33665
 Alpha virt. eigenvalues --    0.35566   0.37934   0.38712   0.41482   0.44145
 Alpha virt. eigenvalues --    0.67802   0.68169   0.71355   0.72399   0.72940
 Alpha virt. eigenvalues --    0.79771   0.83234   0.88811   0.91498   1.00220
 Alpha virt. eigenvalues --    1.05118   1.05149   1.08661   1.15608   1.19905
 Alpha virt. eigenvalues --    1.21727   1.26223   1.30869   1.33325   1.39469
 Alpha virt. eigenvalues --    1.39640   1.40916   1.41508   1.48763   1.52177
 Alpha virt. eigenvalues --    1.57298   1.60051   1.70787   1.73232   1.76258
 Alpha virt. eigenvalues --    1.79042   1.86781   1.91344   1.91783   1.91898
 Alpha virt. eigenvalues --    1.94758   1.99697   2.05753   2.09359   2.10948
 Alpha virt. eigenvalues --    2.18794   2.19399   2.20762   2.24461   2.28341
 Alpha virt. eigenvalues --    2.34265   2.34754   2.44367   2.47108   2.50558
 Alpha virt. eigenvalues --    2.56153   2.64351   2.75030   2.77142   2.82464
 Alpha virt. eigenvalues --    2.88468   2.95104   2.95395   2.97179   3.14927
 Alpha virt. eigenvalues --    3.31803   3.39055   3.42853   3.51687   3.57672
 Alpha virt. eigenvalues --    4.11430   4.29100   4.33217   4.50750   4.70024
          Condensed to atoms (all electrons):
              1          2          3          4          5          6
     1  C    4.949882   0.299551   0.379126   0.056671  -0.024667  -0.024693
     2  O    0.299551   8.702145  -0.152477  -0.082027   0.001092   0.001092
     3  O    0.379126  -0.152477   8.794049  -0.202329  -0.007030  -0.007022
     4  C    0.056671  -0.082027  -0.202329   5.593068   0.399328   0.399341
     5  H   -0.024667   0.001092  -0.007030   0.399328   0.465799  -0.020163
     6  H   -0.024693   0.001092  -0.007022   0.399341  -0.020163   0.465809
     7  C   -0.051381   0.026860   0.029796   0.167184  -0.033938  -0.033938
     8  H   -0.008301  -0.000370   0.000089  -0.045054  -0.004297   0.003846
     9  H    0.012126  -0.000068  -0.000507  -0.043905  -0.002607  -0.002581
    10  H   -0.008227  -0.000384   0.000084  -0.045072   0.003845  -0.004326
              7          8          9         10
     1  C   -0.051381  -0.008301   0.012126  -0.008227
     2  O    0.026860  -0.000370  -0.000068  -0.000384
     3  O    0.029796   0.000089  -0.000507   0.000084
     4  C    0.167184  -0.045054  -0.043905  -0.045072
     5  H   -0.033938  -0.004297  -0.002607   0.003845
     6  H   -0.033938   0.003846  -0.002581  -0.004326
     7  C    5.228608   0.417610   0.400205   0.417609
     8  H    0.417610   0.511436  -0.024331  -0.028054
     9  H    0.400205  -0.024331   0.511084  -0.024321
    10  H    0.417609  -0.028054  -0.024321   0.511354
 Mulliken atomic charges:
              1
     1  C    0.419912
     2  O   -0.795414
     3  O   -0.833779
     4  C   -0.197205
     5  H    0.222639
     6  H    0.222635
     7  C   -0.568614
     8  H    0.177427
     9  H    0.174906
    10  H    0.177493
 Sum of Mulliken atomic charges =  -1.00000
 Mulliken charges with hydrogens summed into heavy atoms:
              1
     1  C    0.419912
     2  O   -0.795414
     3  O   -0.833779
     4  C    0.248069
     7  C   -0.038787
 Sum of Mulliken charges with hydrogens summed into heavy atoms =  -1.00000
 Electronic spatial extent (au):  <R**2>=            480.9069
 Charge=             -1.0000 electrons
 Dipole moment (field-independent basis, Debye):
    X=            -10.4069    Y=             -2.3193    Z=             -0.0004  Tot=             10.6622
 Quadrupole moment (field-independent basis, Debye-Ang):
   XX=            -47.2934   YY=            -43.2391   ZZ=            -31.7318
   XY=              2.0540   XZ=             -0.0003   YZ=              0.0005
 Traceless Quadrupole moment (field-independent basis, Debye-Ang):
   XX=             -6.5386   YY=             -2.4844   ZZ=              9.0230
   XY=              2.0540   XZ=             -0.0003   YZ=              0.0005
 Octapole moment (field-independent basis, Debye-Ang**2):
  XXX=            -29.4423  YYY=             -9.1139  ZZZ=              0.0030  XYY=            -15.7090
  XXY=              2.2482  XXZ=             -0.0026  XZZ=             -2.3994  YZZ=             -1.1252
  YYZ=             -0.0022  XYZ=             -0.0011
 Hexadecapole moment (field-independent basis, Debye-Ang**3):
 XXXX=           -458.8443 YYYY=           -207.7311 ZZZZ=            -46.0021 XXXY=             16.7334
 XXXZ=              0.0097 YYYX=              1.2254 YYYZ=             -0.0037 ZZZX=             -0.0080
 ZZZY=              0.0031 XXYY=           -116.9104 XXZZ=            -78.5677 YYZZ=            -37.6129
 XXYZ=              0.0081 YYXZ=              0.0032 ZZXY=              0.9564
 N-N= 1.597308062542D+02 E-N=-9.545310766680D+02  KE= 2.648838180437D+02
 D1PCM: PCM CHGder 1st derivatives, ID1Alg=3 FixD1E=F DoIter=F DoCFld=F I1PDM=0.
 Calling FoFJK, ICntrl=      2127 FMM=F ISym2X=0 I1Cent= 0 IOpClX= 0 NMat=1 NMatS=1 NMatT=0.
 ***** Axes restored to original set *****
 -------------------------------------------------------------------
 Center     Atomic                   Forces (Hartrees/Bohr)
 Number     Number              X              Y              Z
 -------------------------------------------------------------------
      1        6          -0.138117324    0.000007480    0.115706136
      2        8          -0.006185907   -0.000000761   -0.141559578
      3        8           0.114584775   -0.000001183   -0.009160149
      4        6           0.050687781    0.000005334    0.044116270
      5        1          -0.010901835   -0.012620696   -0.002317578
      6        1          -0.010906456    0.012608463   -0.002328473
      7        6          -0.022893313   -0.000005358   -0.004104355
      8        1           0.007911317   -0.012497234    0.006949240
      9        1           0.007913237   -0.000021442   -0.014211599
     10        1           0.007907724    0.012525396    0.006910086
 -------------------------------------------------------------------
 Cartesian Forces:  Max     0.141559578 RMS     0.049050103

 GradGradGradGradGradGradGradGradGradGradGradGradGradGradGradGradGradGrad
 Berny optimization.
 Internal  Forces:  Max     0.135579005 RMS     0.032284332
 Search for a local minimum.
 Step number   1 out of a maximum of   49
 All quantities printed in internal units (Hartrees-Bohrs-Radians)
 Mixed Optimization -- RFO/linear search
 Second derivative matrix not updated -- first step.
     Eigenvalues ---    0.00237   0.00237   0.00237   0.04356   0.05410
     Eigenvalues ---    0.05720   0.05720   0.08669   0.12376   0.16000
     Eigenvalues ---    0.16000   0.16000   0.21983   0.25000   0.25000
     Eigenvalues ---    0.28519   0.28519   0.37230   0.37230   0.37230
     Eigenvalues ---    0.37230   0.37230   0.40989   0.409891000.00000
     Eigenvalues --- 1000.000001000.000001000.000001000.000001000.00000
     Eigenvalues --- 1000.000001000.000001000.000001000.000001000.00000
     Eigenvalues --- 1000.000001000.000001000.000001000.00000
 RFO step:  Lambda=-8.95201648D-02 EMin= 2.36824076D-03
 Linear search not attempted -- first point.
 Maximum step size (   0.300) exceeded in Quadratic search.
    -- Step size scaled by   0.663
 Iteration  1 RMS(Cart)=  0.05543130 RMS(Int)=  0.00264742
 Iteration  2 RMS(Cart)=  0.00279430 RMS(Int)=  0.00018624
 Iteration  3 RMS(Cart)=  0.00001333 RMS(Int)=  0.00018600
 Iteration  4 RMS(Cart)=  0.00000000 RMS(Int)=  0.00018600
 Variable       Old X    -DE/DX   Delta X   Delta X   Delta X     New X
                                 (Linear)    (Quad)   (Total)
    R1        2.70231  -0.13558   0.00000  -0.17994  -0.17994   2.52237
    R2        2.70231  -0.11454   0.00000  -0.15202  -0.15202   2.55029
    R3        2.91018  -0.02320   0.00000  -0.04103  -0.04103   2.86915
    R4        2.02201   0.01503   0.00000   0.02157   0.02157   2.04358
    R5        2.02201   0.01503   0.00000   0.02157   0.02157   2.04358
    R6        2.91018   0.00092   0.00000   0.00163   0.00163   2.91181
    R7        2.02201   0.01615   0.00000   0.02318   0.02318   2.04518
    R8        2.02201   0.01600   0.00000   0.02296   0.02296   2.04496
    R9        2.02201   0.01615   0.00000   0.02318   0.02318   2.04519
    A1        1.91063   0.04551   0.00000   0.08885   0.08885   1.99948
    A2        2.46192  -0.06599   0.00000  -0.12882  -0.12882   2.33309
    A3        1.91063   0.02048   0.00000   0.03997   0.03997   1.95061
    A4        1.91063  -0.00898   0.00000  -0.02610  -0.02647   1.88416
    A5        1.91063  -0.00898   0.00000  -0.02610  -0.02647   1.88416
    A6        1.91063   0.01522   0.00000   0.03354   0.03359   1.94422
    A7        1.91063   0.00161   0.00000  -0.00010  -0.00066   1.90998
    A8        1.91063   0.00057   0.00000   0.00938   0.00960   1.92023
    A9        1.91063   0.00057   0.00000   0.00938   0.00959   1.92023
   A10        1.91063   0.00270   0.00000   0.00721   0.00719   1.91782
   A11        1.91063   0.00285   0.00000   0.00750   0.00747   1.91810
   A12        1.91063   0.00270   0.00000   0.00721   0.00719   1.91782
   A13        1.91063  -0.00283   0.00000  -0.00759  -0.00761   1.90302
   A14        1.91063  -0.00260   0.00000  -0.00675  -0.00678   1.90385
   A15        1.91063  -0.00283   0.00000  -0.00759  -0.00761   1.90302
    D1        2.09420   0.00451   0.00000   0.01603   0.01564   2.10984
    D2       -2.09459  -0.00452   0.00000  -0.01605  -0.01566  -2.11025
    D3       -0.00019   0.00000   0.00000  -0.00001  -0.00001  -0.00020
    D4       -1.04739   0.00451   0.00000   0.01604   0.01565  -1.03174
    D5        1.04700  -0.00451   0.00000  -0.01604  -0.01565   1.03135
    D6        3.14140   0.00000   0.00000   0.00000   0.00000   3.14140
    D7        1.04532   0.00007   0.00000   0.00031   0.00031   1.04563
    D8        3.13972   0.00000   0.00000   0.00002   0.00002   3.13974
    D9       -1.04907  -0.00006   0.00000  -0.00026  -0.00026  -1.04933
   D10       -1.04907   0.00140   0.00000   0.00599   0.00591  -1.04317
   D11        1.04532   0.00134   0.00000   0.00571   0.00562   1.05095
   D12        3.13972   0.00127   0.00000   0.00542   0.00534  -3.13813
   D13        3.13972  -0.00127   0.00000  -0.00538  -0.00529   3.13442
   D14       -1.04907  -0.00133   0.00000  -0.00566  -0.00558  -1.05465
   D15        1.04532  -0.00139   0.00000  -0.00594  -0.00586   1.03946
         Item               Value     Threshold  Converged?
 Maximum Force            0.135579     0.000450     NO 
 RMS     Force            0.032284     0.000300     NO 
 Maximum Displacement     0.285255     0.001800     NO 
 RMS     Displacement     0.055436     0.001200     NO 
 Predicted change in Energy=-4.369417D-02
 GradGradGradGradGradGradGradGradGradGradGradGradGradGradGradGradGradGrad

                          Input orientation:                          
 ---------------------------------------------------------------------
 Center     Atomic      Atomic             Coordinates (Angstroms)
 Number     Number       Type             X           Y           Z
 ---------------------------------------------------------------------
      1          6           0       -0.102562    0.117528   -0.011827
      2          8           0        0.462889    0.117521    1.197267
      3          8           0       -1.452067    0.117543   -0.000008
      4          6           0        0.447963    0.117513   -1.426789
      5          1           0        0.076682   -0.765356   -1.928938
      6          1           0        0.076383    1.000179   -1.929071
      7          6           0        1.988823    0.117777   -1.430449
      8          1           0        2.358262   -0.762719   -0.921002
      9          1           0        2.354732    0.115879   -2.448856
     10          1           0        2.357953    1.000363   -0.924399
 ---------------------------------------------------------------------
                    Distance matrix (angstroms):
                    1          2          3          4          5
     1  C    0.000000
     2  O    1.334782   0.000000
     3  O    1.349557   2.258434   0.000000
     4  C    1.518287   2.624098   2.376093   0.000000
     5  H    2.118237   3.271358   2.614834   1.081416   0.000000
     6  H    2.118235   3.271462   2.614668   1.081415   1.765535
     7  C    2.527128   3.038645   3.726377   1.540864   2.164416
     8  H    2.767144   2.975621   4.017673   2.163301   2.494303
     9  H    3.460838   4.107710   4.526431   2.163421   2.497278
    10  H    2.768812   2.978614   4.018721   2.163303   3.054678
                    6          7          8          9         10
     6  H    0.000000
     7  C    2.164413   0.000000
     8  H    3.054666   1.082264   0.000000
     9  H    2.498606   1.082148   1.762466   0.000000
    10  H    2.492976   1.082267   1.763085   1.762467   0.000000
 Stoichiometry    C3H5O2(1-)
 Framework group  C1[X(C3H5O2)]
 Deg. of freedom    24
 Full point group                 C1      NOp   1
 Largest Abelian subgroup         C1      NOp   1
 Largest concise Abelian subgroup C1      NOp   1
                         Standard orientation:                         
 ---------------------------------------------------------------------
 Center     Atomic      Atomic             Coordinates (Angstroms)
 Number     Number       Type             X           Y           Z
 ---------------------------------------------------------------------
      1          6           0        0.591716    0.038215   -0.000021
      2          8           0        0.886412    1.340058   -0.000035
      3          8           0        1.665009   -0.779920    0.000077
      4          6           0       -0.710781   -0.741976   -0.000100
      5          1           0       -0.725333   -1.366325   -0.882957
      6          1           0       -0.725286   -1.366579    0.882578
      7          6           0       -1.930233    0.199937    0.000071
      8          1           0       -1.909642    0.828887   -0.880436
      9          1           0       -2.843736   -0.380194   -0.001871
     10          1           0       -1.911589    0.826049    0.882646
 ---------------------------------------------------------------------
 Rotational constants (GHZ):      9.3668841      3.8665910      2.8331035
 Standard basis: 6-31+G(d,p) (6D, 7F)
 There are   120 symmetry adapted basis functions of A   symmetry.
 Integral buffers will be    262144 words long.
 Raffenetti 2 integral format.
 Two-electron integral symmetry is turned on.
   120 basis functions,   195 primitive gaussians,   120 cartesian basis functions
    20 alpha electrons       20 beta electrons
       nuclear repulsion energy       164.1993446602 Hartrees.
 NAtoms=   10 NActive=   10 NUniq=   10 SFac= 7.50D-01 NAtFMM=   80 NAOKFM=F Big=F
 ------------------------------------------------------------------------------
 Polarizable Continuum Model (PCM)
 =================================
 Model                : PCM.
 Atomic radii         : SMD-Coulomb.
 Polarization charges : Total charges.
 Charge compensation  : None.
 Solution method      : Matrix inversion.
 Cavity type          : VdW (van der Waals Surface) (Alpha=1.000).
 Cavity algorithm     : GePol (No added spheres)
                        Default sphere list used, NSphG=   10.
                        Lebedev-Laikov grids with approx.  5.0 points / Ang**2.
                        Smoothing algorithm: Karplus/York (Gamma=1.0000).
                        Polarization charges: spherical gaussians, with
                                              point-specific exponents (IZeta= 3).
                        Self-potential: point-specific (ISelfS= 7).
                        Self-field    : sphere-specific E.n sum rule (ISelfD= 2).
 1st derivatives      : Analytical E(r).r(x)/FMM algorithm (CHGder, D1EAlg=3).
                        Cavity 1st derivative terms included.
 Solvent              : Water, Eps=  78.355300 Eps(inf)=   1.777849
 ------------------------------------------------------------------------------
 Spheres list:
 ISph  on   Nord    Re0     Alpha      Xe            Ye            Ze
    1   C      1    1.850   1.000      0.591716      0.038215     -0.000021
    2   O      2    1.520   1.000      0.886412      1.340058     -0.000035
    3   O      3    1.520   1.000      1.665009     -0.779920      0.000077
    4   C      4    1.850   1.000     -0.710781     -0.741976     -0.000100
    5   H      5    1.200   1.000     -0.725333     -1.366325     -0.882957
    6   H      6    1.200   1.000     -0.725286     -1.366579      0.882578
    7   C      7    1.850   1.000     -1.930233      0.199937      0.000071
    8   H      8    1.200   1.000     -1.909642      0.828887     -0.880436
    9   H      9    1.200   1.000     -2.843736     -0.380194     -0.001871
   10   H     10    1.200   1.000     -1.911589      0.826049      0.882646
 ------------------------------------------------------------------------------
 ------------------------------------------------------------------------------
 Atomic radii for non-electrostatic terms: SMD-CDS.
 ------------------------------------------------------------------------------
 Nuclear repulsion after PCM non-electrostatic terms =      164.2044991359 Hartrees.
 One-electron integrals computed using PRISM.
 NBasis=   120 RedAO= T  NBF=   120
 NBsUse=   120 1.00D-06 NBFU=   120
 Initial guess read from the read-write file.
 B after Tr=     0.000000    0.000000    0.000000
         Rot=    1.000000    0.000000    0.000000    0.000000 Ang=   0.00 deg.
 Initial guess orbital symmetries:
       Occupied  (A) (A) (A) (A) (A) (A) (A) (A) (A) (A) (A) (A)
                 (A) (A) (A) (A) (A) (A) (A) (A)
       Virtual   (A) (A) (A) (A) (A) (A) (A) (A) (A) (A) (A) (A)
                 (A) (A) (A) (A) (A) (A) (A) (A) (A) (A) (A) (A)
                 (A) (A) (A) (A) (A) (A) (A) (A) (A) (A) (A) (A)
                 (A) (A) (A) (A) (A) (A) (A) (A) (A) (A) (A) (A)
                 (A) (A) (A) (A) (A) (A) (A) (A) (A) (A) (A) (A)
                 (A) (A) (A) (A) (A) (A) (A) (A) (A) (A) (A) (A)
                 (A) (A) (A) (A) (A) (A) (A) (A) (A) (A) (A) (A)
                 (A) (A) (A) (A) (A) (A) (A) (A) (A) (A) (A) (A)
                 (A) (A) (A) (A)
 Harris functional with IExCor= 1009 diagonalized for initial guess.
 ExpMin= 4.38D-02 ExpMax= 5.48D+03 ExpMxC= 8.25D+02 IAcc=2 IRadAn=         0 AccDes= 0.00D+00
 HarFok:  IExCor= 1009 AccDes= 0.00D+00 IRadAn=         0 IDoV= 1
 ScaDFX=  1.000000  1.000000  1.000000  1.000000
 FoFCou: FMM=F IPFlag=           0 FMFlag=      100000 FMFlg1=           0
         NFxFlg=           0 DoJE=T BraDBF=F KetDBF=T FulRan=T
         Omega=  0.000000  0.000000  1.000000  0.000000  0.000000 ICntrl=     500 IOpCl=  0
         NMat0=    1 NMatS0=    1 NMatT0=    0 NMatD0=    1 NMtDS0=    0 NMtDT0=    0
         I1Cent=           4 NGrid=           0.
 Petite list used in FoFCou.
 Requested convergence on RMS density matrix=1.00D-08 within 128 cycles.
 Requested convergence on MAX density matrix=1.00D-06.
 Requested convergence on             energy=1.00D-06.
 No special actions if energy rises.
 Keep R1 ints in memory in canonical form, NReq=30244537.
 Error on total polarization charges =  0.06125
 SCF Done:  E(RM062X) =  -267.825982071     A.U. after   12 cycles
             Convg  =    0.6331D-08             -V/T =  2.0100
 SMD-CDS (non-electrostatic) energy             (kcal/mol) =       3.23
 (included in total energy above)
 D1PCM: PCM CHGder 1st derivatives, ID1Alg=3 FixD1E=F DoIter=F DoCFld=F I1PDM=0.
 Calling FoFJK, ICntrl=      2127 FMM=F ISym2X=0 I1Cent= 0 IOpClX= 0 NMat=1 NMatS=1 NMatT=0.
 ***** Axes restored to original set *****
 -------------------------------------------------------------------
 Center     Atomic                   Forces (Hartrees/Bohr)
 Number     Number              X              Y              Z
 -------------------------------------------------------------------
      1        6          -0.085170533    0.000007246    0.075292989
      2        8          -0.000286743    0.000000121   -0.084262343
      3        8           0.060709701   -0.000000854   -0.008337765
      4        6           0.039985582    0.000002892    0.025273919
      5        1          -0.005999250   -0.005169393   -0.002304138
      6        1          -0.006001451    0.005160195   -0.002313237
      7        6          -0.016271546   -0.000003571   -0.003132826
      8        1           0.004354810   -0.005527598    0.003080722
      9        1           0.004324891   -0.000003842   -0.006365212
     10        1           0.004354539    0.005534805    0.003067890
 -------------------------------------------------------------------
 Cartesian Forces:  Max     0.085170533 RMS     0.029779141

 GradGradGradGradGradGradGradGradGradGradGradGradGradGradGradGradGradGrad
 Berny optimization.
 Using GEDIIS/GDIIS optimizer.
 Internal  Forces:  Max     0.076534361 RMS     0.019222605
 Search for a local minimum.
 Step number   2 out of a maximum of   49
 All quantities printed in internal units (Hartrees-Bohrs-Radians)
 Mixed Optimization -- RFO/linear search
 Update second derivatives using D2CorX and points    1    2
 DE= -4.77D-02 DEPred=-4.37D-02 R= 1.09D+00
 SS=  1.41D+00  RLast= 3.00D-01 DXNew= 5.0454D-01 8.9998D-01
 Trust test= 1.09D+00 RLast= 3.00D-01 DXMaxT set to 5.05D-01
 Use linear search instead of GDIIS.
     Eigenvalues ---    0.00237   0.00237   0.00237   0.04153   0.05279
     Eigenvalues ---    0.05642   0.05643   0.09131   0.12592   0.15948
     Eigenvalues ---    0.16000   0.16000   0.18442   0.22117   0.25000
     Eigenvalues ---    0.28499   0.28892   0.37226   0.37230   0.37230
     Eigenvalues ---    0.37230   0.37393   0.40120   0.419921000.00000
     Eigenvalues --- 1000.000001000.000001000.000001000.000001000.00000
     Eigenvalues --- 1000.000001000.000001000.000001000.000001000.00000
     Eigenvalues --- 1000.000001000.000001000.000001000.00000
 RFO step:  Lambda=-7.67418773D-03 EMin= 2.36824076D-03
 Quartic linear search produced a step of  1.28623.
 Iteration  1 RMS(Cart)=  0.07466230 RMS(Int)=  0.01554831
 Iteration  2 RMS(Cart)=  0.02376197 RMS(Int)=  0.00061623
 Iteration  3 RMS(Cart)=  0.00060329 RMS(Int)=  0.00032837
 Iteration  4 RMS(Cart)=  0.00000057 RMS(Int)=  0.00032837
 Variable       Old X    -DE/DX   Delta X   Delta X   Delta X     New X
                                 (Linear)    (Quad)   (Total)
    R1        2.52237  -0.07653  -0.23144  -0.00043  -0.23187   2.29051
    R2        2.55029  -0.06072  -0.19553   0.02117  -0.17436   2.37594
    R3        2.86915  -0.00728  -0.05278   0.04751  -0.00526   2.86388
    R4        2.04358   0.00735   0.02775  -0.00704   0.02071   2.06429
    R5        2.04358   0.00735   0.02775  -0.00704   0.02071   2.06428
    R6        2.91181  -0.00311   0.00210  -0.02838  -0.02628   2.88554
    R7        2.04518   0.00748   0.02981  -0.01008   0.01973   2.06492
    R8        2.04496   0.00739   0.02953  -0.01008   0.01945   2.06441
    R9        2.04519   0.00748   0.02982  -0.01009   0.01973   2.06491
    A1        1.99948   0.03646   0.11428   0.08809   0.20238   2.20186
    A2        2.33309  -0.05262  -0.16570  -0.12558  -0.29128   2.04181
    A3        1.95061   0.01616   0.05141   0.03749   0.08890   2.03951
    A4        1.88416  -0.00463  -0.03405   0.02579  -0.00914   1.87503
    A5        1.88416  -0.00463  -0.03405   0.02573  -0.00919   1.87497
    A6        1.94422   0.00872   0.04321   0.00487   0.04777   1.99199
    A7        1.90998  -0.00018  -0.00084  -0.03142  -0.03314   1.87683
    A8        1.92023   0.00023   0.01234  -0.01223   0.00019   1.92042
    A9        1.92023   0.00023   0.01234  -0.01222   0.00021   1.92043
   A10        1.91782   0.00189   0.00924   0.00333   0.01245   1.93027
   A11        1.91810   0.00212   0.00961   0.00650   0.01596   1.93406
   A12        1.91782   0.00190   0.00924   0.00337   0.01249   1.93031
   A13        1.90302  -0.00202  -0.00979  -0.00332  -0.01325   1.88977
   A14        1.90385  -0.00195  -0.00872  -0.00673  -0.01555   1.88831
   A15        1.90302  -0.00203  -0.00979  -0.00336  -0.01330   1.88972
    D1        2.10984   0.00261   0.02012   0.00480   0.02433   2.13417
    D2       -2.11025  -0.00261  -0.02014  -0.00445  -0.02399  -2.13424
    D3       -0.00020   0.00000  -0.00001   0.00017   0.00015  -0.00005
    D4       -1.03174   0.00261   0.02013   0.00473   0.02426  -1.00748
    D5        1.03135  -0.00261  -0.02013  -0.00452  -0.02406   1.00730
    D6        3.14140   0.00000   0.00000   0.00009   0.00009   3.14148
    D7        1.04563  -0.00001   0.00040  -0.00168  -0.00129   1.04434
    D8        3.13974   0.00001   0.00003   0.00039   0.00043   3.14017
    D9       -1.04933   0.00002  -0.00033   0.00243   0.00211  -1.04722
   D10       -1.04317   0.00002   0.00760  -0.02903  -0.02166  -1.06482
   D11        1.05095   0.00004   0.00723  -0.02696  -0.01994   1.03101
   D12       -3.13813   0.00006   0.00687  -0.02492  -0.01825   3.12681
   D13        3.13442  -0.00005  -0.00681   0.02561   0.01900  -3.12976
   D14       -1.05465  -0.00003  -0.00717   0.02768   0.02072  -1.03393
   D15        1.03946  -0.00002  -0.00754   0.02972   0.02241   1.06187
         Item               Value     Threshold  Converged?
 Maximum Force            0.076534     0.000450     NO 
 RMS     Force            0.019223     0.000300     NO 
 Maximum Displacement     0.499040     0.001800     NO 
 RMS     Displacement     0.095941     0.001200     NO 
 Predicted change in Energy=-3.109414D-02
 GradGradGradGradGradGradGradGradGradGradGradGradGradGradGradGradGradGrad

                          Input orientation:                          
 ---------------------------------------------------------------------
 Center     Atomic      Atomic             Coordinates (Angstroms)
 Number     Number       Type             X           Y           Z
 ---------------------------------------------------------------------
      1          6           0       -0.181030    0.117588   -0.011992
      2          8           0        0.577775    0.117837    0.933186
      3          8           0       -1.437026    0.117490    0.045057
      4          6           0        0.441525    0.117464   -1.393719
      5          1           0        0.068616   -0.763814   -1.920571
      6          1           0        0.068284    0.998454   -1.920809
      7          6           0        1.968482    0.117746   -1.390475
      8          1           0        2.351945   -0.766454   -0.875545
      9          1           0        2.358824    0.116188   -2.410796
     10          1           0        2.351662    1.003728   -0.878409
 ---------------------------------------------------------------------
                    Distance matrix (angstroms):
                    1          2          3          4          5
     1  C    0.000000
     2  O    1.212084   0.000000
     3  O    1.257291   2.201862   0.000000
     4  C    1.515501   2.330890   2.366227   0.000000
     5  H    2.117042   3.029931   2.628183   1.092376   0.000000
     6  H    2.116994   3.029910   2.628058   1.092372   1.762269
     7  C    2.553550   2.708037   3.695705   1.526960   2.160472
     8  H    2.818371   2.683497   3.998146   2.167838   2.511111
     9  H    3.493583   3.788714   4.521028   2.170365   2.501955
    10  H    2.819654   2.685769   3.999046   2.167864   3.069627
                    6          7          8          9         10
     6  H    0.000000
     7  C    2.160474   0.000000
     8  H    3.069623   1.092707   0.000000
     9  H    2.503009   1.092440   1.770905   0.000000
    10  H    2.510068   1.092705   1.770185   1.770873   0.000000
 Stoichiometry    C3H5O2(1-)
 Framework group  C1[X(C3H5O2)]
 Deg. of freedom    24
 Full point group                 C1      NOp   1
 Largest Abelian subgroup         C1      NOp   1
 Largest concise Abelian subgroup C1      NOp   1
                         Standard orientation:                         
 ---------------------------------------------------------------------
 Center     Atomic      Atomic             Coordinates (Angstroms)
 Number     Number       Type             X           Y           Z
 ---------------------------------------------------------------------
      1          6           0        0.676795    0.063645   -0.000027
      2          8           0        0.557055    1.269800   -0.000014
      3          8           0        1.760248   -0.574251    0.000039
      4          6           0       -0.599132   -0.754127   -0.000042
      5          1           0       -0.574293   -1.399292   -0.881195
      6          1           0       -0.574212   -1.399334    0.881073
      7          6           0       -1.876687    0.082211    0.000031
      8          1           0       -1.916810    0.722810   -0.884294
      9          1           0       -2.760756   -0.559540   -0.001437
     10          1           0       -1.918204    0.720596    0.885889
 ---------------------------------------------------------------------
 Rotational constants (GHZ):     10.8867480      4.0530706      3.0661751
 Standard basis: 6-31+G(d,p) (6D, 7F)
 There are   120 symmetry adapted basis functions of A   symmetry.
 Integral buffers will be    262144 words long.
 Raffenetti 2 integral format.
 Two-electron integral symmetry is turned on.
   120 basis functions,   195 primitive gaussians,   120 cartesian basis functions
    20 alpha electrons       20 beta electrons
       nuclear repulsion energy       170.6816484025 Hartrees.
 NAtoms=   10 NActive=   10 NUniq=   10 SFac= 7.50D-01 NAtFMM=   80 NAOKFM=F Big=F
 ------------------------------------------------------------------------------
 Polarizable Continuum Model (PCM)
 =================================
 Model                : PCM.
 Atomic radii         : SMD-Coulomb.
 Polarization charges : Total charges.
 Charge compensation  : None.
 Solution method      : Matrix inversion.
 Cavity type          : VdW (van der Waals Surface) (Alpha=1.000).
 Cavity algorithm     : GePol (No added spheres)
                        Default sphere list used, NSphG=   10.
                        Lebedev-Laikov grids with approx.  5.0 points / Ang**2.
                        Smoothing algorithm: Karplus/York (Gamma=1.0000).
                        Polarization charges: spherical gaussians, with
                                              point-specific exponents (IZeta= 3).
                        Self-potential: point-specific (ISelfS= 7).
                        Self-field    : sphere-specific E.n sum rule (ISelfD= 2).
 1st derivatives      : Analytical E(r).r(x)/FMM algorithm (CHGder, D1EAlg=3).
                        Cavity 1st derivative terms included.
 Solvent              : Water, Eps=  78.355300 Eps(inf)=   1.777849
 ------------------------------------------------------------------------------
 Spheres list:
 ISph  on   Nord    Re0     Alpha      Xe            Ye            Ze
    1   C      1    1.850   1.000      0.676795      0.063645     -0.000027
    2   O      2    1.520   1.000      0.557055      1.269800     -0.000014
    3   O      3    1.520   1.000      1.760248     -0.574251      0.000039
    4   C      4    1.850   1.000     -0.599132     -0.754127     -0.000042
    5   H      5    1.200   1.000     -0.574293     -1.399292     -0.881195
    6   H      6    1.200   1.000     -0.574212     -1.399334      0.881073
    7   C      7    1.850   1.000     -1.876687      0.082211      0.000031
    8   H      8    1.200   1.000     -1.916810      0.722810     -0.884294
    9   H      9    1.200   1.000     -2.760756     -0.559540     -0.001437
   10   H     10    1.200   1.000     -1.918204      0.720596      0.885889
 ------------------------------------------------------------------------------
 ------------------------------------------------------------------------------
 Atomic radii for non-electrostatic terms: SMD-CDS.
 ------------------------------------------------------------------------------
 Nuclear repulsion after PCM non-electrostatic terms =      170.6881069937 Hartrees.
 One-electron integrals computed using PRISM.
 NBasis=   120 RedAO= T  NBF=   120
 NBsUse=   120 1.00D-06 NBFU=   120
 Initial guess read from the read-write file.
 B after Tr=     0.000000    0.000000    0.000000
         Rot=    1.000000    0.000000    0.000000    0.000000 Ang=   0.00 deg.
 Initial guess orbital symmetries:
       Occupied  (A) (A) (A) (A) (A) (A) (A) (A) (A) (A) (A) (A)
                 (A) (A) (A) (A) (A) (A) (A) (A)
       Virtual   (A) (A) (A) (A) (A) (A) (A) (A) (A) (A) (A) (A)
                 (A) (A) (A) (A) (A) (A) (A) (A) (A) (A) (A) (A)
                 (A) (A) (A) (A) (A) (A) (A) (A) (A) (A) (A) (A)
                 (A) (A) (A) (A) (A) (A) (A) (A) (A) (A) (A) (A)
                 (A) (A) (A) (A) (A) (A) (A) (A) (A) (A) (A) (A)
                 (A) (A) (A) (A) (A) (A) (A) (A) (A) (A) (A) (A)
                 (A) (A) (A) (A) (A) (A) (A) (A) (A) (A) (A) (A)
                 (A) (A) (A) (A) (A) (A) (A) (A) (A) (A) (A) (A)
                 (A) (A) (A) (A)
 Harris functional with IExCor= 1009 diagonalized for initial guess.
 ExpMin= 4.38D-02 ExpMax= 5.48D+03 ExpMxC= 8.25D+02 IAcc=2 IRadAn=         0 AccDes= 0.00D+00
 HarFok:  IExCor= 1009 AccDes= 0.00D+00 IRadAn=         0 IDoV= 1
 ScaDFX=  1.000000  1.000000  1.000000  1.000000
 FoFCou: FMM=F IPFlag=           0 FMFlag=      100000 FMFlg1=           0
         NFxFlg=           0 DoJE=T BraDBF=F KetDBF=T FulRan=T
         Omega=  0.000000  0.000000  1.000000  0.000000  0.000000 ICntrl=     500 IOpCl=  0
         NMat0=    1 NMatS0=    1 NMatT0=    0 NMatD0=    1 NMtDS0=    0 NMtDT0=    0
         I1Cent=           4 NGrid=           0.
 Petite list used in FoFCou.
 Requested convergence on RMS density matrix=1.00D-08 within 128 cycles.
 Requested convergence on MAX density matrix=1.00D-06.
 Requested convergence on             energy=1.00D-06.
 No special actions if energy rises.
 Keep R1 ints in memory in canonical form, NReq=30229996.
 Error on total polarization charges =  0.06050
 SCF Done:  E(RM062X) =  -267.844876724     A.U. after   13 cycles
             Convg  =    0.5463D-08             -V/T =  2.0077
 SMD-CDS (non-electrostatic) energy             (kcal/mol) =       4.05
 (included in total energy above)
 D1PCM: PCM CHGder 1st derivatives, ID1Alg=3 FixD1E=F DoIter=F DoCFld=F I1PDM=0.
 Calling FoFJK, ICntrl=      2127 FMM=F ISym2X=0 I1Cent= 0 IOpClX= 0 NMat=1 NMatS=1 NMatT=0.
 ***** Axes restored to original set *****
 -------------------------------------------------------------------
 Center     Atomic                   Forces (Hartrees/Bohr)
 Number     Number              X              Y              Z
 -------------------------------------------------------------------
      1        6          -0.016003166    0.000000782   -0.050056711
      2        8           0.038359336    0.000013454    0.063553335
      3        8          -0.024797047   -0.000005398    0.002460736
      4        6           0.007552487   -0.000005249   -0.009038617
      5        1          -0.002151917   -0.000591883   -0.002715987
      6        1          -0.002151031    0.000587348   -0.002726279
      7        6          -0.003563612   -0.000004472   -0.000643357
      8        1           0.001124515   -0.000157800    0.000062881
      9        1           0.000502322    0.000004906   -0.000974614
     10        1           0.001128113    0.000158312    0.000078613
 -------------------------------------------------------------------
 Cartesian Forces:  Max     0.063553335 RMS     0.017391187

 GradGradGradGradGradGradGradGradGradGradGradGradGradGradGradGradGradGrad
 Berny optimization.
 Using GEDIIS/GDIIS optimizer.
 Internal  Forces:  Max     0.073587865 RMS     0.013036121
 Search for a local minimum.
 Step number   3 out of a maximum of   49
 All quantities printed in internal units (Hartrees-Bohrs-Radians)
 Mixed Optimization -- RFO/linear search
 Update second derivatives using D2CorX and points    2    3
 DE= -1.89D-02 DEPred=-3.11D-02 R= 6.08D-01
 SS=  1.41D+00  RLast= 4.80D-01 DXNew= 8.4853D-01 1.4392D+00
 Trust test= 6.08D-01 RLast= 4.80D-01 DXMaxT set to 8.49D-01
 Use linear search instead of GDIIS.
     Eigenvalues ---    0.00237   0.00237   0.00237   0.03800   0.05151
     Eigenvalues ---    0.05483   0.05513   0.09603   0.12925   0.15936
     Eigenvalues ---    0.16000   0.16002   0.21032   0.22946   0.25007
     Eigenvalues ---    0.28525   0.28917   0.37220   0.37230   0.37230
     Eigenvalues ---    0.37230   0.37485   0.41173   0.607471000.00000
     Eigenvalues --- 1000.000001000.000001000.000001000.000001000.00000
     Eigenvalues --- 1000.000001000.000001000.000001000.000001000.00000
     Eigenvalues --- 1000.000001000.000001000.000001000.00000
 RFO step:  Lambda=-4.01744750D-03 EMin= 2.36824077D-03
 Quartic linear search produced a step of -0.25597.
 Iteration  1 RMS(Cart)=  0.03389496 RMS(Int)=  0.00041234
 Iteration  2 RMS(Cart)=  0.00059525 RMS(Int)=  0.00008008
 Iteration  3 RMS(Cart)=  0.00000044 RMS(Int)=  0.00008008
 Variable       Old X    -DE/DX   Delta X   Delta X   Delta X     New X
                                 (Linear)    (Quad)   (Total)
    R1        2.29051   0.07359   0.05935   0.05226   0.11161   2.40211
    R2        2.37594   0.02487   0.04463  -0.01861   0.02602   2.40196
    R3        2.86388   0.01557   0.00135   0.02964   0.03098   2.89487
    R4        2.06429   0.00252  -0.00530   0.01345   0.00815   2.07244
    R5        2.06428   0.00252  -0.00530   0.01345   0.00815   2.07244
    R6        2.88554  -0.00083   0.00673  -0.00758  -0.00085   2.88469
    R7        2.06492   0.00054  -0.00505   0.00968   0.00463   2.06955
    R8        2.06441   0.00110  -0.00498   0.01067   0.00569   2.07011
    R9        2.06491   0.00055  -0.00505   0.00970   0.00465   2.06956
    A1        2.20186  -0.00860  -0.05180   0.04331  -0.00850   2.19337
    A2        2.04181   0.01398   0.07456  -0.05788   0.01668   2.05849
    A3        2.03951  -0.00538  -0.02276   0.01457  -0.00818   2.03133
    A4        1.87503  -0.00127   0.00234  -0.00986  -0.00778   1.86725
    A5        1.87497  -0.00127   0.00235  -0.00991  -0.00781   1.86716
    A6        1.99199   0.00416  -0.01223   0.04298   0.03056   2.02255
    A7        1.87683  -0.00101   0.00848  -0.04506  -0.03661   1.84022
    A8        1.92042  -0.00046  -0.00005   0.00794   0.00786   1.92828
    A9        1.92043  -0.00046  -0.00005   0.00792   0.00784   1.92827
   A10        1.93027   0.00123  -0.00319   0.01152   0.00833   1.93860
   A11        1.93406  -0.00038  -0.00408   0.00460   0.00054   1.93461
   A12        1.93031   0.00123  -0.00320   0.01154   0.00834   1.93864
   A13        1.88977  -0.00056   0.00339  -0.00924  -0.00582   1.88394
   A14        1.88831  -0.00104   0.00398  -0.01035  -0.00640   1.88191
   A15        1.88972  -0.00056   0.00340  -0.00926  -0.00583   1.88389
    D1        2.13417   0.00122  -0.00623   0.03163   0.02532   2.15949
    D2       -2.13424  -0.00122   0.00614  -0.03046  -0.02424  -2.15848
    D3       -0.00005   0.00000  -0.00004   0.00055   0.00051   0.00046
    D4       -1.00748   0.00122  -0.00621   0.03179   0.02550  -0.98199
    D5        1.00730  -0.00121   0.00616  -0.03031  -0.02406   0.98323
    D6        3.14148   0.00000  -0.00002   0.00071   0.00069  -3.14101
    D7        1.04434   0.00015   0.00033   0.00336   0.00370   1.04804
    D8        3.14017   0.00000  -0.00011   0.00235   0.00224  -3.14078
    D9       -1.04722  -0.00014  -0.00054   0.00133   0.00077  -1.04645
   D10       -1.06482  -0.00075   0.00554  -0.01949  -0.01401  -1.07884
   D11        1.03101  -0.00090   0.00510  -0.02050  -0.01548   1.01553
   D12        3.12681  -0.00105   0.00467  -0.02152  -0.01695   3.10986
   D13       -3.12976   0.00105  -0.00486   0.02613   0.02137  -3.10839
   D14       -1.03393   0.00091  -0.00530   0.02512   0.01990  -1.01403
   D15        1.06187   0.00076  -0.00574   0.02410   0.01843   1.08030
         Item               Value     Threshold  Converged?
 Maximum Force            0.073588     0.000450     NO 
 RMS     Force            0.013036     0.000300     NO 
 Maximum Displacement     0.157717     0.001800     NO 
 RMS     Displacement     0.034174     0.001200     NO 
 Predicted change in Energy=-5.516059D-03
 GradGradGradGradGradGradGradGradGradGradGradGradGradGradGradGradGradGrad

                          Input orientation:                          
 ---------------------------------------------------------------------
 Center     Atomic      Atomic             Coordinates (Angstroms)
 Number     Number       Type             X           Y           Z
 ---------------------------------------------------------------------
      1          6           0       -0.200336    0.118077   -0.001407
      2          8           0        0.560829    0.119494    1.016646
      3          8           0       -1.471156    0.117139    0.023299
      4          6           0        0.453674    0.117249   -1.386679
      5          1           0        0.064362   -0.755786   -1.924242
      6          1           0        0.063972    0.989414   -1.925365
      7          6           0        1.980096    0.117591   -1.402959
      8          1           0        2.379505   -0.767390   -0.896354
      9          1           0        2.358958    0.117787   -2.430811
     10          1           0        2.379155    1.002651   -0.896200
 ---------------------------------------------------------------------
                    Distance matrix (angstroms):
                    1          2          3          4          5
     1  C    0.000000
     2  O    1.271144   0.000000
     3  O    1.271060   2.261793   0.000000
     4  C    1.531897   2.405714   2.386002   0.000000
     5  H    2.128614   3.108282   2.629207   1.096690   0.000000
     6  H    2.128545   3.107903   2.629596   1.096687   1.745200
     7  C    2.592033   2.805140   3.734348   1.526510   2.169001
     8  H    2.870639   2.784550   4.056568   2.175277   2.533096
     9  H    3.528739   3.888217   4.548894   2.172630   2.506974
    10  H    2.870001   2.783030   4.056416   2.175313   3.083382
                    6          7          8          9         10
     6  H    0.000000
     7  C    2.168990   0.000000
     8  H    3.083329   1.095156   0.000000
     9  H    2.506426   1.095453   1.771587   0.000000
    10  H    2.533660   1.095164   1.770041   1.771560   0.000000
 Stoichiometry    C3H5O2(1-)
 Framework group  C1[X(C3H5O2)]
 Deg. of freedom    24
 Full point group                 C1      NOp   1
 Largest Abelian subgroup         C1      NOp   1
 Largest concise Abelian subgroup C1      NOp   1
                         Standard orientation:                         
 ---------------------------------------------------------------------
 Center     Atomic      Atomic             Coordinates (Angstroms)
 Number     Number       Type             X           Y           Z
 ---------------------------------------------------------------------
      1          6           0       -0.685548    0.051705   -0.000076
      2          8           0       -0.613114    1.320783   -0.000097
      3          8           0       -1.758693   -0.629436    0.000213
      4          6           0        0.624648   -0.742080   -0.000252
      5          1           0        0.596996   -1.406195    0.872052
      6          1           0        0.597122   -1.405418   -0.873148
      7          6           0        1.906242    0.087228    0.000199
      8          1           0        1.959577    0.729164    0.885885
      9          1           0        2.789678   -0.560504   -0.000799
     10          1           0        1.959029    0.731057   -0.884155
 ---------------------------------------------------------------------
 Rotational constants (GHZ):     10.2291012      3.9485770      2.9525142
 Standard basis: 6-31+G(d,p) (6D, 7F)
 There are   120 symmetry adapted basis functions of A   symmetry.
 Integral buffers will be    262144 words long.
 Raffenetti 2 integral format.
 Two-electron integral symmetry is turned on.
   120 basis functions,   195 primitive gaussians,   120 cartesian basis functions
    20 alpha electrons       20 beta electrons
       nuclear repulsion energy       167.6316020125 Hartrees.
 NAtoms=   10 NActive=   10 NUniq=   10 SFac= 7.50D-01 NAtFMM=   80 NAOKFM=F Big=F
 ------------------------------------------------------------------------------
 Polarizable Continuum Model (PCM)
 =================================
 Model                : PCM.
 Atomic radii         : SMD-Coulomb.
 Polarization charges : Total charges.
 Charge compensation  : None.
 Solution method      : Matrix inversion.
 Cavity type          : VdW (van der Waals Surface) (Alpha=1.000).
 Cavity algorithm     : GePol (No added spheres)
                        Default sphere list used, NSphG=   10.
                        Lebedev-Laikov grids with approx.  5.0 points / Ang**2.
                        Smoothing algorithm: Karplus/York (Gamma=1.0000).
                        Polarization charges: spherical gaussians, with
                                              point-specific exponents (IZeta= 3).
                        Self-potential: point-specific (ISelfS= 7).
                        Self-field    : sphere-specific E.n sum rule (ISelfD= 2).
 1st derivatives      : Analytical E(r).r(x)/FMM algorithm (CHGder, D1EAlg=3).
                        Cavity 1st derivative terms included.
 Solvent              : Water, Eps=  78.355300 Eps(inf)=   1.777849
 ------------------------------------------------------------------------------
 Spheres list:
 ISph  on   Nord    Re0     Alpha      Xe            Ye            Ze
    1   C      1    1.850   1.000     -0.685548      0.051705     -0.000076
    2   O      2    1.520   1.000     -0.613114      1.320783     -0.000097
    3   O      3    1.520   1.000     -1.758693     -0.629436      0.000213
    4   C      4    1.850   1.000      0.624648     -0.742080     -0.000252
    5   H      5    1.200   1.000      0.596996     -1.406195      0.872052
    6   H      6    1.200   1.000      0.597122     -1.405418     -0.873148
    7   C      7    1.850   1.000      1.906242      0.087228      0.000199
    8   H      8    1.200   1.000      1.959577      0.729164      0.885885
    9   H      9    1.200   1.000      2.789678     -0.560504     -0.000799
   10   H     10    1.200   1.000      1.959029      0.731057     -0.884155
 ------------------------------------------------------------------------------
 ------------------------------------------------------------------------------
 Atomic radii for non-electrostatic terms: SMD-CDS.
 ------------------------------------------------------------------------------
 Nuclear repulsion after PCM non-electrostatic terms =      167.6378150703 Hartrees.
 One-electron integrals computed using PRISM.
 NBasis=   120 RedAO= T  NBF=   120
 NBsUse=   120 1.00D-06 NBFU=   120
 Initial guess read from the read-write file.
 B after Tr=     0.000000    0.000000    0.000000
         Rot=    1.000000    0.000000    0.000000    0.000000 Ang=   0.00 deg.
 Initial guess orbital symmetries:
       Occupied  (A) (A) (A) (A) (A) (A) (A) (A) (A) (A) (A) (A)
                 (A) (A) (A) (A) (A) (A) (A) (A)
       Virtual   (A) (A) (A) (A) (A) (A) (A) (A) (A) (A) (A) (A)
                 (A) (A) (A) (A) (A) (A) (A) (A) (A) (A) (A) (A)
                 (A) (A) (A) (A) (A) (A) (A) (A) (A) (A) (A) (A)
                 (A) (A) (A) (A) (A) (A) (A) (A) (A) (A) (A) (A)
                 (A) (A) (A) (A) (A) (A) (A) (A) (A) (A) (A) (A)
                 (A) (A) (A) (A) (A) (A) (A) (A) (A) (A) (A) (A)
                 (A) (A) (A) (A) (A) (A) (A) (A) (A) (A) (A) (A)
                 (A) (A) (A) (A) (A) (A) (A) (A) (A) (A) (A) (A)
                 (A) (A) (A) (A)
 Harris functional with IExCor= 1009 diagonalized for initial guess.
 ExpMin= 4.38D-02 ExpMax= 5.48D+03 ExpMxC= 8.25D+02 IAcc=2 IRadAn=         0 AccDes= 0.00D+00
 HarFok:  IExCor= 1009 AccDes= 0.00D+00 IRadAn=         0 IDoV= 1
 ScaDFX=  1.000000  1.000000  1.000000  1.000000
 FoFCou: FMM=F IPFlag=           0 FMFlag=      100000 FMFlg1=           0
         NFxFlg=           0 DoJE=T BraDBF=F KetDBF=T FulRan=T
         Omega=  0.000000  0.000000  1.000000  0.000000  0.000000 ICntrl=     500 IOpCl=  0
         NMat0=    1 NMatS0=    1 NMatT0=    0 NMatD0=    1 NMtDS0=    0 NMtDT0=    0
         I1Cent=           4 NGrid=           0.
 Petite list used in FoFCou.
 Requested convergence on RMS density matrix=1.00D-08 within 128 cycles.
 Requested convergence on MAX density matrix=1.00D-06.
 Requested convergence on             energy=1.00D-06.
 No special actions if energy rises.
 Keep R1 ints in memory in canonical form, NReq=30230791.
 Error on total polarization charges =  0.06071
 SCF Done:  E(RM062X) =  -267.848958011     A.U. after   13 cycles
             Convg  =    0.7088D-08             -V/T =  2.0090
 SMD-CDS (non-electrostatic) energy             (kcal/mol) =       3.90
 (included in total energy above)
 D1PCM: PCM CHGder 1st derivatives, ID1Alg=3 FixD1E=F DoIter=F DoCFld=F I1PDM=0.
 Calling FoFJK, ICntrl=      2127 FMM=F ISym2X=0 I1Cent= 0 IOpClX= 0 NMat=1 NMatS=1 NMatT=0.
 ***** Axes restored to original set *****
 -------------------------------------------------------------------
 Center     Atomic                   Forces (Hartrees/Bohr)
 Number     Number              X              Y              Z
 -------------------------------------------------------------------
      1        6           0.006853932   -0.000027263    0.000849506
      2        8          -0.011105359   -0.000004336   -0.004905992
      3        8           0.006734583    0.000019036    0.003928391
      4        6           0.000348530    0.000007724   -0.002276706
      5        1           0.000055497   -0.000151768    0.000495703
      6        1           0.000055285    0.000158361    0.000490776
      7        6          -0.001555632    0.000008659    0.001479861
      8        1          -0.000224206    0.000707477   -0.000434784
      9        1          -0.000931996   -0.000007351    0.000819655
     10        1          -0.000230633   -0.000710540   -0.000446410
 -------------------------------------------------------------------
 Cartesian Forces:  Max     0.011105359 RMS     0.002996538

 GradGradGradGradGradGradGradGradGradGradGradGradGradGradGradGradGradGrad
 Berny optimization.
 Using GEDIIS/GDIIS optimizer.
 Internal  Forces:  Max     0.010574745 RMS     0.002681033
 Search for a local minimum.
 Step number   4 out of a maximum of   49
 All quantities printed in internal units (Hartrees-Bohrs-Radians)
 Mixed Optimization -- RFO/linear search
 Update second derivatives using D2CorX and points    2    3    4
 DE= -4.08D-03 DEPred=-5.52D-03 R= 7.40D-01
 SS=  1.41D+00  RLast= 1.48D-01 DXNew= 1.4270D+00 4.4376D-01
 Trust test= 7.40D-01 RLast= 1.48D-01 DXMaxT set to 8.49D-01
 Use linear search instead of GDIIS.
     Eigenvalues ---    0.00237   0.00237   0.00237   0.03545   0.04835
     Eigenvalues ---    0.05427   0.05447   0.09875   0.13151   0.15805
     Eigenvalues ---    0.16000   0.16011   0.21191   0.23381   0.25191
     Eigenvalues ---    0.28470   0.28773   0.37130   0.37230   0.37230
     Eigenvalues ---    0.37230   0.37621   0.40130   0.791421000.00000
     Eigenvalues --- 1000.000001000.000001000.000001000.000001000.00000
     Eigenvalues --- 1000.000001000.000001000.000001000.000001000.00000
     Eigenvalues --- 1000.000001000.000001000.000001000.00000
 RFO step:  Lambda=-5.53728314D-04 EMin= 2.36820651D-03
 Quartic linear search produced a step of -0.13623.
 Iteration  1 RMS(Cart)=  0.01018663 RMS(Int)=  0.00010290
 Iteration  2 RMS(Cart)=  0.00012148 RMS(Int)=  0.00001223
 Iteration  3 RMS(Cart)=  0.00000001 RMS(Int)=  0.00001223
 Variable       Old X    -DE/DX   Delta X   Delta X   Delta X     New X
                                 (Linear)    (Quad)   (Total)
    R1        2.40211  -0.01057  -0.01520   0.00012  -0.01509   2.38703
    R2        2.40196  -0.00666  -0.00354  -0.00335  -0.00689   2.39506
    R3        2.89487  -0.00117  -0.00422   0.00148  -0.00274   2.89213
    R4        2.07244  -0.00014  -0.00111  -0.00034  -0.00145   2.07099
    R5        2.07244  -0.00013  -0.00111  -0.00032  -0.00143   2.07101
    R6        2.88469  -0.00296   0.00012  -0.00806  -0.00794   2.87674
    R7        2.06955  -0.00086  -0.00063  -0.00230  -0.00293   2.06662
    R8        2.07011  -0.00109  -0.00078  -0.00266  -0.00344   2.06667
    R9        2.06956  -0.00087  -0.00063  -0.00231  -0.00295   2.06661
    A1        2.19337  -0.00802   0.00116  -0.03228  -0.03112   2.16224
    A2        2.05849   0.00628  -0.00227   0.03026   0.02799   2.08648
    A3        2.03133   0.00174   0.00111   0.00201   0.00312   2.03445
    A4        1.86725   0.00026   0.00106  -0.00173  -0.00066   1.86659
    A5        1.86716   0.00027   0.00106  -0.00163  -0.00055   1.86661
    A6        2.02255  -0.00140  -0.00416  -0.00787  -0.01204   2.01052
    A7        1.84022   0.00006   0.00499   0.01041   0.01540   1.85562
    A8        1.92828   0.00046  -0.00107   0.00121   0.00011   1.92839
    A9        1.92827   0.00046  -0.00107   0.00122   0.00012   1.92839
   A10        1.93860   0.00028  -0.00114   0.00178   0.00064   1.93925
   A11        1.93461  -0.00096  -0.00007  -0.00604  -0.00612   1.92848
   A12        1.93864   0.00028  -0.00114   0.00176   0.00062   1.93927
   A13        1.88394   0.00026   0.00079   0.00083   0.00162   1.88556
   A14        1.88191  -0.00010   0.00087   0.00097   0.00184   1.88375
   A15        1.88389   0.00027   0.00079   0.00085   0.00164   1.88553
    D1        2.15949  -0.00015  -0.00345  -0.00589  -0.00931   2.15018
    D2       -2.15848   0.00016   0.00330   0.00445   0.00773  -2.15075
    D3        0.00046   0.00001  -0.00007  -0.00067  -0.00074  -0.00028
    D4       -0.98199  -0.00017  -0.00347  -0.00967  -0.01311  -0.99510
    D5        0.98323   0.00015   0.00328   0.00067   0.00393   0.98716
    D6       -3.14101  -0.00001  -0.00009  -0.00445  -0.00454   3.13763
    D7        1.04804   0.00011  -0.00050  -0.00703  -0.00753   1.04051
    D8       -3.14078  -0.00001  -0.00031  -0.00882  -0.00913   3.13328
    D9       -1.04645  -0.00012  -0.00011  -0.01061  -0.01071  -1.05716
   D10       -1.07884   0.00043   0.00191   0.00015   0.00207  -1.07677
   D11        1.01553   0.00031   0.00211  -0.00165   0.00047   1.01600
   D12        3.10986   0.00019   0.00231  -0.00343  -0.00111   3.10875
   D13       -3.10839  -0.00020  -0.00291  -0.01406  -0.01698  -3.12538
   D14       -1.01403  -0.00032  -0.00271  -0.01586  -0.01858  -1.03261
   D15        1.08030  -0.00043  -0.00251  -0.01764  -0.02016   1.06014
         Item               Value     Threshold  Converged?
 Maximum Force            0.010575     0.000450     NO 
 RMS     Force            0.002681     0.000300     NO 
 Maximum Displacement     0.029275     0.001800     NO 
 RMS     Displacement     0.010185     0.001200     NO 
 Predicted change in Energy=-3.387566D-04
 GradGradGradGradGradGradGradGradGradGradGradGradGradGradGradGradGradGrad

                          Input orientation:                          
 ---------------------------------------------------------------------
 Center     Atomic      Atomic             Coordinates (Angstroms)
 Number     Number       Type             X           Y           Z
 ---------------------------------------------------------------------
      1          6           0       -0.189390    0.115286   -0.006131
      2          8           0        0.545337    0.113381    1.021363
      3          8           0       -1.456250    0.119417    0.031025
      4          6           0        0.454646    0.117827   -1.394470
      5          1           0        0.068393   -0.758430   -1.927415
      6          1           0        0.067978    0.995725   -1.924417
      7          6           0        1.976930    0.118196   -1.402657
      8          1           0        2.373790   -0.762693   -0.890295
      9          1           0        2.354309    0.111535   -2.429096
     10          1           0        2.373317    1.005985   -0.901978
 ---------------------------------------------------------------------
                    Distance matrix (angstroms):
                    1          2          3          4          5
     1  C    0.000000
     2  O    1.263160   0.000000
     3  O    1.267412   2.233195   0.000000
     4  C    1.530448   2.417539   2.384022   0.000000
     5  H    2.126302   3.111723   2.632610   1.095923   0.000000
     6  H    2.126319   3.111916   2.629627   1.095929   1.754158
     7  C    2.577447   2.815200   3.720506   1.522306   2.164800
     8  H    2.849997   2.786608   4.036850   2.170857   2.527942
     9  H    3.513001   3.895901   4.535704   2.163148   2.496785
    10  H    2.857158   2.799552   4.040060   2.170869   3.078531
                    6          7          8          9         10
     6  H    0.000000
     7  C    2.164806   0.000000
     8  H    3.078670   1.093608   0.000000
     9  H    2.502758   1.093635   1.769905   0.000000
    10  H    2.521919   1.093604   1.768716   1.769884   0.000000
 Stoichiometry    C3H5O2(1-)
 Framework group  C1[X(C3H5O2)]
 Deg. of freedom    24
 Full point group                 C1      NOp   1
 Largest Abelian subgroup         C1      NOp   1
 Largest concise Abelian subgroup C1      NOp   1
                         Standard orientation:                         
 ---------------------------------------------------------------------
 Center     Atomic      Atomic             Coordinates (Angstroms)
 Number     Number       Type             X           Y           Z
 ---------------------------------------------------------------------
      1          6           0        0.674821    0.045425   -0.001415
      2          8           0        0.643252    1.308190   -0.000236
      3          8           0        1.744271   -0.634724    0.001323
      4          6           0       -0.637320   -0.742329   -0.001137
      5          1           0       -0.616450   -1.398053   -0.878996
      6          1           0       -0.614871   -1.400100    0.875159
      7          6           0       -1.901933    0.105117    0.000986
      8          1           0       -1.942686    0.754059   -0.878327
      9          1           0       -2.790278   -0.532699   -0.007462
     10          1           0       -1.949301    0.739793    0.890319
 ---------------------------------------------------------------------
 Rotational constants (GHZ):     10.3092808      3.9618405      2.9670709
 Standard basis: 6-31+G(d,p) (6D, 7F)
 There are   120 symmetry adapted basis functions of A   symmetry.
 Integral buffers will be    262144 words long.
 Raffenetti 2 integral format.
 Two-electron integral symmetry is turned on.
   120 basis functions,   195 primitive gaussians,   120 cartesian basis functions
    20 alpha electrons       20 beta electrons
       nuclear repulsion energy       168.0972231559 Hartrees.
 NAtoms=   10 NActive=   10 NUniq=   10 SFac= 7.50D-01 NAtFMM=   80 NAOKFM=F Big=F
 ------------------------------------------------------------------------------
 Polarizable Continuum Model (PCM)
 =================================
 Model                : PCM.
 Atomic radii         : SMD-Coulomb.
 Polarization charges : Total charges.
 Charge compensation  : None.
 Solution method      : Matrix inversion.
 Cavity type          : VdW (van der Waals Surface) (Alpha=1.000).
 Cavity algorithm     : GePol (No added spheres)
                        Default sphere list used, NSphG=   10.
                        Lebedev-Laikov grids with approx.  5.0 points / Ang**2.
                        Smoothing algorithm: Karplus/York (Gamma=1.0000).
                        Polarization charges: spherical gaussians, with
                                              point-specific exponents (IZeta= 3).
                        Self-potential: point-specific (ISelfS= 7).
                        Self-field    : sphere-specific E.n sum rule (ISelfD= 2).
 1st derivatives      : Analytical E(r).r(x)/FMM algorithm (CHGder, D1EAlg=3).
                        Cavity 1st derivative terms included.
 Solvent              : Water, Eps=  78.355300 Eps(inf)=   1.777849
 ------------------------------------------------------------------------------
 Spheres list:
 ISph  on   Nord    Re0     Alpha      Xe            Ye            Ze
    1   C      1    1.850   1.000      0.674821      0.045425     -0.001415
[...]
                      KCal/Mol        Cal/Mol-Kelvin    Cal/Mol-Kelvin
 Total                   52.372             17.455             73.711
 Electronic               0.000              0.000              0.000
 Translational            0.889              2.981             38.781
 Rotational               0.889              2.981             25.385
 Vibrational             50.594             11.493              9.545
 Vibration     1          0.597              1.971              4.276
 Vibration     2          0.678              1.715              1.549
 Vibration     3          0.681              1.708              1.526
 Vibration     4          0.864              1.231              0.637
 Vibration     5          0.931              1.085              0.494
                       Q            Log10(Q)             Ln(Q)
 Total Bot       0.193339D-22        -22.713681        -52.300184
 Total V=0       0.167924D+14         13.225114         30.451949
 Vib (Bot)       0.100089D-34        -34.999612        -80.589586
 Vib (Bot)    1  0.313802D+01          0.496655          1.143591
 Vib (Bot)    2  0.693724D+00         -0.158813         -0.365681
 Vib (Bot)    3  0.682984D+00         -0.165590         -0.381284
 Vib (Bot)    4  0.320794D+00         -0.493774         -1.136956
 Vib (Bot)    5  0.266238D+00         -0.574730         -1.323364
 Vib (V=0)       0.869326D+01          0.939183          2.162548
 Vib (V=0)    1  0.367760D+01          0.565565          1.302260
 Vib (V=0)    2  0.135513D+01          0.131982          0.303900
 Vib (V=0)    3  0.134644D+01          0.129188          0.297467
 Vib (V=0)    4  0.109406D+01          0.039042          0.089897
 Vib (V=0)    5  0.106647D+01          0.027947          0.064350
 Electronic      0.100000D+01          0.000000          0.000000
 Translational   0.245300D+08          7.389698         17.015408
 Rotational      0.787468D+05          4.896233         11.273993
 ***** Axes restored to original set *****
 -------------------------------------------------------------------
 Center     Atomic                   Forces (Hartrees/Bohr)
 Number     Number              X              Y              Z
 -------------------------------------------------------------------
      1        6           0.000025772   -0.000001048   -0.000000369
      2        8           0.000005495   -0.000000069   -0.000000042
      3        8          -0.000010544   -0.000000031    0.000014237
      4        6           0.000001947    0.000000851    0.000005311
      5        1          -0.000007210   -0.000001048    0.000003625
      6        1          -0.000008137    0.000002593    0.000003250
      7        6          -0.000011797    0.000000297   -0.000007054
      8        1           0.000004806   -0.000002297   -0.000005187
      9        1          -0.000003899   -0.000000683   -0.000005323
     10        1           0.000003568    0.000001435   -0.000008448
 -------------------------------------------------------------------
 Cartesian Forces:  Max     0.000025772 RMS     0.000007226

 GradGradGradGradGradGradGradGradGradGradGradGradGradGradGradGradGradGrad
 Berny optimization.
 Internal  Forces:  Max     0.000015521 RMS     0.000003289
 Search for a local minimum.
 Step number   1 out of a maximum of    2
 All quantities printed in internal units (Hartrees-Bohrs-Radians)
 Second derivative matrix not updated -- analytic derivatives used.
     Eigenvalues ---   -0.00010   0.00306   0.03311   0.04071   0.04507
     Eigenvalues ---    0.04519   0.07418   0.07910   0.11033   0.12150
     Eigenvalues ---    0.14404   0.15868   0.21617   0.23209   0.24777
     Eigenvalues ---    0.31684   0.33814   0.34280   0.34434   0.34472
     Eigenvalues ---    0.35233   0.37531   0.48647   0.743761000.00000
     Eigenvalues --- 1000.000001000.000001000.000001000.000001000.00000
     Eigenvalues --- 1000.000001000.000001000.000001000.000001000.00000
     Eigenvalues --- 1000.000001000.000001000.000001000.00000
 Eigenvalue     1 is  -9.86D-05 should be greater than     0.000000 Eigenvector:
                          D1        D2        D3        D4        D5
   1                    0.44094   0.44093   0.41147   0.38987   0.38987
                          D6        D11       D14       D10       D13
   1                    0.36041  -0.03649  -0.03649  -0.03174  -0.03173
 Angle between quadratic step and forces=  81.35 degrees.
 Linear search not attempted -- first point.
 Iteration  1 RMS(Cart)=  0.00016064 RMS(Int)=  0.00000002
 Iteration  2 RMS(Cart)=  0.00000002 RMS(Int)=  0.00000000
 Variable       Old X    -DE/DX   Delta X   Delta X   Delta X     New X
                                 (Linear)    (Quad)   (Total)
    R1        2.38663   0.00000   0.00000  -0.00001  -0.00001   2.38662
    R2        2.39787   0.00002   0.00000   0.00003   0.00003   2.39790
    R3        2.88928   0.00000   0.00000  -0.00002  -0.00002   2.88926
    R4        2.07141   0.00000   0.00000   0.00001   0.00001   2.07142
    R5        2.07141   0.00000   0.00000   0.00001   0.00001   2.07141
    R6        2.87554   0.00000   0.00000  -0.00001  -0.00001   2.87553
    R7        2.06701   0.00000   0.00000   0.00001   0.00001   2.06702
    R8        2.06736   0.00000   0.00000   0.00000   0.00000   2.06736
    R9        2.06701   0.00000   0.00000   0.00001   0.00001   2.06702
    A1        2.16835   0.00000   0.00000  -0.00002  -0.00002   2.16833
    A2        2.08022   0.00000   0.00000   0.00002   0.00002   2.08023
    A3        2.03462   0.00000   0.00000   0.00000   0.00000   2.03462
    A4        1.86531   0.00000   0.00000  -0.00003  -0.00003   1.86527
    A5        1.86530   0.00000   0.00000   0.00001   0.00001   1.86531
    A6        2.01157   0.00000   0.00000  -0.00001  -0.00001   2.01156
    A7        1.84861   0.00000   0.00000  -0.00001  -0.00001   1.84860
    A8        1.93217   0.00000   0.00000   0.00001   0.00001   1.93218
    A9        1.93216   0.00000   0.00000   0.00003   0.00003   1.93219
   A10        1.94064   0.00000   0.00000   0.00002   0.00002   1.94066
   A11        1.93007   0.00000   0.00000   0.00003   0.00003   1.93010
   A12        1.94064   0.00000   0.00000   0.00002   0.00002   1.94066
   A13        1.88380   0.00000   0.00000  -0.00002  -0.00002   1.88378
   A14        1.88265   0.00000   0.00000  -0.00002  -0.00002   1.88263
   A15        1.88381   0.00000   0.00000  -0.00003  -0.00003   1.88377
    D1        2.15503   0.00000   0.00000  -0.00029  -0.00029   2.15474
    D2       -2.15511   0.00000   0.00000  -0.00031  -0.00031  -2.15542
    D3       -0.00005   0.00000   0.00000  -0.00027  -0.00027  -0.00032
    D4       -0.98656   0.00000   0.00000  -0.00025  -0.00025  -0.98681
    D5        0.98649   0.00000   0.00000  -0.00027  -0.00027   0.98621
    D6        3.14155   0.00000   0.00000  -0.00023  -0.00023   3.14132
    D7        1.04926   0.00000   0.00000  -0.00021  -0.00021   1.04905
    D8       -3.14141   0.00000   0.00000  -0.00020  -0.00020   3.14157
    D9       -1.04888   0.00000   0.00000  -0.00021  -0.00021  -1.04909
   D10       -1.07004   0.00000   0.00000  -0.00017  -0.00017  -1.07020
   D11        1.02248   0.00000   0.00000  -0.00016  -0.00016   1.02232
   D12        3.11501   0.00000   0.00000  -0.00017  -0.00017   3.11484
   D13       -3.11465   0.00000   0.00000  -0.00018  -0.00018  -3.11483
   D14       -1.02213   0.00000   0.00000  -0.00017  -0.00017  -1.02230
   D15        1.07040   0.00000   0.00000  -0.00018  -0.00018   1.07021
         Item               Value     Threshold  Converged?
 Maximum Force            0.000016     0.000450     YES
 RMS     Force            0.000003     0.000300     YES
 Maximum Displacement     0.000655     0.001800     YES
 RMS     Displacement     0.000161     0.001200     YES
 Predicted change in Energy=-1.387912D-09
 Optimization completed.
    -- Stationary point found.
                           ----------------------------
                           !   Optimized Parameters   !
                           ! (Angstroms and Degrees)  !
 --------------------------                            --------------------------
 ! Name  Definition              Value          Derivative Info.                !
 --------------------------------------------------------------------------------
 ! R1    R(1,2)                  1.2629         -DE/DX =    0.0                 !
 ! R2    R(1,3)                  1.2689         -DE/DX =    0.0                 !
 ! R3    R(1,4)                  1.5289         -DE/DX =    0.0                 !
 ! R4    R(4,5)                  1.0961         -DE/DX =    0.0                 !
 ! R5    R(4,6)                  1.0961         -DE/DX =    0.0                 !
 ! R6    R(4,7)                  1.5217         -DE/DX =    0.0                 !
 ! R7    R(7,8)                  1.0938         -DE/DX =    0.0                 !
 ! R8    R(7,9)                  1.094          -DE/DX =    0.0                 !
 ! R9    R(7,10)                 1.0938         -DE/DX =    0.0                 !
 ! A1    A(2,1,3)              124.2373         -DE/DX =    0.0                 !
 ! A2    A(2,1,4)              119.1878         -DE/DX =    0.0                 !
 ! A3    A(3,1,4)              116.5749         -DE/DX =    0.0                 !
 ! A4    A(1,4,5)              106.8742         -DE/DX =    0.0                 !
 ! A5    A(1,4,6)              106.8739         -DE/DX =    0.0                 !
 ! A6    A(1,4,7)              115.2546         -DE/DX =    0.0                 !
 ! A7    A(5,4,6)              105.9173         -DE/DX =    0.0                 !
 ! A8    A(5,4,7)              110.705          -DE/DX =    0.0                 !
 ! A9    A(6,4,7)              110.7046         -DE/DX =    0.0                 !
 ! A10   A(4,7,8)              111.1903         -DE/DX =    0.0                 !
 ! A11   A(4,7,9)              110.5849         -DE/DX =    0.0                 !
 ! A12   A(4,7,10)             111.1906         -DE/DX =    0.0                 !
 ! A13   A(8,7,9)              107.9338         -DE/DX =    0.0                 !
 ! A14   A(8,7,10)             107.868          -DE/DX =    0.0                 !
 ! A15   A(9,7,10)             107.9341         -DE/DX =    0.0                 !
 ! D1    D(2,1,4,5)            123.4739         -DE/DX =    0.0                 !
 ! D2    D(2,1,4,6)           -123.4788         -DE/DX =    0.0                 !
 ! D3    D(2,1,4,7)             -0.0028         -DE/DX =    0.0                 !
 ! D4    D(3,1,4,5)            -56.5259         -DE/DX =    0.0                 !
 ! D5    D(3,1,4,6)             56.5214         -DE/DX =    0.0                 !
 ! D6    D(3,1,4,7)            179.9974         -DE/DX =    0.0                 !
 ! D7    D(1,4,7,8)             60.1179         -DE/DX =    0.0                 !
 ! D8    D(1,4,7,9)            180.0105         -DE/DX =    0.0                 !
 ! D9    D(1,4,7,10)           -60.0966         -DE/DX =    0.0                 !
 ! D10   D(5,4,7,8)            -61.3086         -DE/DX =    0.0                 !
 ! D11   D(5,4,7,9)             58.584          -DE/DX =    0.0                 !
 ! D12   D(5,4,7,10)           178.4769         -DE/DX =    0.0                 !
 ! D13   D(6,4,7,8)           -178.4562         -DE/DX =    0.0                 !
 ! D14   D(6,4,7,9)            -58.5637         -DE/DX =    0.0                 !
 ! D15   D(6,4,7,10)            61.3293         -DE/DX =    0.0                 !
 --------------------------------------------------------------------------------
 GradGradGradGradGradGradGradGradGradGradGradGradGradGradGradGradGradGrad

 1|1|UNPC-DESKTOP-319GPER|Freq|RM062X|6-31+G(d,p)|C3H5O2(1-)|SAGAD|24-J
 an-2021|0||#N Geom=AllCheck Guess=TCheck SCRF=Check GenChk RM062X/6-31
 +G(d,p) Freq||propaneate m062x||-1,1|C,-0.1897543635,0.1179139112,-0.0
 067705813|O,0.550205021,0.118678443,1.0167026145|O,-1.4581392131,0.117
 6331336,0.0293047763|C,0.4550917335,0.1172652006,-1.3930743905|H,0.064
 9110777,-0.7581002237,-1.9250753721|H,0.0644313388,0.9917831595,-1.926
 1106971|C,1.9767414473,0.1176841573,-1.4012765772|H,2.3750985833,-0.76
 61701051,-0.8947787019|H,2.3558607012,0.1173635409,-2.427487663|H,2.37
 46126538,1.0021762027,-0.8955048677||Version=IA32W-G09RevA.02|State=1-
 A|HF=-267.8492692|RMSD=7.110e-010|RMSF=7.226e-006|ZeroPoint=0.0781334|
 Thermal=0.0834595|Dipole=1.9504936,-0.0010306,-2.6328907|DipoleDeriv=3
 .1026491,0.0009794,0.5717201,0.0009687,0.3309012,0.0012166,0.5519245,0
 .0012024,2.1957783,-1.5980063,-0.0004728,-0.4503818,-0.0007394,-0.6935
 225,-0.0007847,-0.916274,-0.0008959,-1.8776665,-2.5243214,-0.0005566,-
 0.2318472,-0.0002989,-0.7494633,-0.0002363,0.2095024,-0.0001229,-1.056
 7898,0.1083178,0.0000469,0.1000123,0.0000809,0.1818257,-0.0003012,0.16
 81404,-0.0002637,-0.3505834,-0.0270248,-0.0897602,-0.0129477,-0.09156,
 -0.0492764,-0.1192316,-0.0245915,-0.0709601,0.0332603,-0.0271276,0.089
 7589,-0.0131088,0.0915435,-0.048959,0.119324,-0.024739,0.0710433,0.033
 0318,-0.014529,-0.0000379,0.0065492,-0.0000241,0.1234364,-0.0000112,0.
 0398895,-0.0000012,0.1076129,-0.0061148,0.058595,-0.0329189,0.0955137,
 -0.0961413,0.099904,-0.066266,0.1084737,0.0420734,-0.0078265,0.0000248
 ,0.0957391,0.0000277,0.0975942,-0.0000835,0.1285464,-0.0000821,-0.1689
 814,-0.0060166,-0.0585776,-0.0328163,-0.0955121,-0.0963951,-0.099796,-
 0.0661326,-0.1083935,0.0422645|Polar=71.4438606,0.0079674,49.9540149,4
 .8685458,0.0098902,64.8290534|PG=C01 [X(C3H5O2)]|NImag=0||0.73635039,0
 .00015921,0.24443301,0.07160859,0.00025593,0.65964149,-0.19457233,-0.0
 0013502,-0.18426901,0.29595727,-0.00010712,-0.07268013,-0.00022013,0.0
 0020469,0.02303692,-0.13495951,-0.00020774,-0.37759231,0.24158218,0.00
 028953,0.42579356,-0.43623539,-0.00004648,0.06729202,-0.10733319,-0.00
 008040,-0.08506470,0.58630228,-0.00007169,-0.07784658,0.00000131,-0.00
 007030,0.02587947,-0.00003046,0.00013045,0.02817681,0.02347378,-0.0000
 0923,-0.10427408,-0.06708550,-0.00002606,0.00814196,-0.00388313,0.0000
 4149,0.10281181,-0.09527151,0.00002424,0.04143886,0.00629553,-0.000019
 06,-0.02381730,-0.03627606,0.00001016,0.04026770,0.53551686,0.00002246
 ,-0.09462849,-0.00002500,-0.00000539,0.02529278,-0.00004557,-0.0000066
 3,0.01988605,-0.00000329,0.00001124,0.56363155,0.03968338,-0.00002699,
 -0.15622035,-0.00048282,-0.00004037,-0.04470278,0.01122098,-0.00001009
 ,-0.00272104,0.03712220,-0.00002945,0.49954880,0.00257041,0.01166793,0
 .00289224,0.00065407,-0.00138165,0.00160867,-0.00123470,-0.00091904,0.
 00142133,-0.07728504,-0.07413192,-0.04305142,0.08789601,-0.00134591,0.
 00068741,0.00252903,0.00052869,-0.00062690,0.00006279,0.00091216,0.000
 84027,0.00012223,-0.07454350,-0.21859688,-0.10656438,0.08243155,0.2343
 2917,-0.01121917,-0.02809250,-0.01320547,0.00138643,0.00393547,-0.0063
 5487,-0.00005827,0.00368001,0.00135328,-0.04361282,-0.10943535,-0.1079
 0577,0.04680794,0.11493610,0.11609533,0.00257579,-0.01166342,0.0029073
 3,0.00065382,0.00138418,0.00160730,-0.00123451,0.00091941,0.00142044,-
 0.07736665,0.07415924,-0.04319892,0.00334270,-0.00843321,0.00571704,0.
 08798646,0.00133379,0.00071207,-0.00254393,-0.00052635,-0.00063105,-0.
 00006872,-0.00091340,0.00083582,-0.00012099,0.07456955,-0.21826046,0.1
 0667229,0.00845286,-0.02038707,0.01317988,-0.08245811,0.23396696,-0.01
 123616,0.02807004,-0.01323587,0.00138922,-0.00394124,-0.00635109,-0.00
 005560,-0.00367925,0.00135796,-0.04376226,0.10954324,-0.10816196,0.005
 71416,-0.01314264,0.00836875,0.04696877,-0.11505084,0.11636851,-0.0143
 3211,0.00000022,0.00739609,-0.00338774,-0.00000246,-0.00332754,0.00012
 581,-0.00000039,0.00038372,-0.22033980,-0.00004023,-0.00294679,-0.0123
 1941,0.00081618,0.00077995,-0.01233359,-0.00082190,0.00078247,0.499388
 44,0.00001144,-0.00176471,0.00000785,0.00000085,-0.00105380,0.00000056
 ,0.00000472,0.00226590,-0.00000571,-0.00004075,-0.07908537,-0.00000159
 ,-0.02697515,0.00157694,0.00178135,0.02695078,0.00158786,-0.00178257,-
 0.00002549,0.58170566,0.02484194,0.00001236,0.00593211,0.00426760,0.00
 000253,0.00168655,0.00999595,-0.00000359,-0.00717920,-0.00506696,-0.00
 000418,-0.08163147,-0.01565151,0.00152375,0.00058759,-0.01568058,-0.00
 153376,0.00059109,-0.00035021,0.00000412,0.58228151,0.00115656,0.00046
 106,-0.00166736,0.00047167,-0.00024563,0.00068319,-0.00013516,-0.00033
 725,0.00047331,-0.01232928,0.02810397,-0.01577538,0.00167610,-0.000328
 54,-0.00011862,-0.00665109,-0.00035425,0.00063148,-0.07980392,0.077085
 17,-0.04389315,0.08852663,0.00065773,0.00015142,0.00123236,-0.00102241
 ,0.00025858,0.00000522,0.00007565,-0.00006145,-0.00046180,-0.00070624,
 0.00140653,-0.00133753,0.00044259,0.00066142,-0.00024449,-0.00026035,0
 .00146818,0.00006546,0.07877017,-0.22844399,0.10264402,-0.08551935,0.2
 4287905,-0.00021600,-0.00062835,-0.00098660,0.00095430,-0.00024800,-0.
 00008091,-0.00011447,0.00010075,0.00032022,0.00005038,-0.00082843,-0.0
 0006434,-0.00017417,0.00004725,0.00000238,0.00008357,-0.00027216,0.000
 73804,-0.04509533,0.10367432,-0.10648803,0.04917207,-0.11356709,0.1115
 9582,-0.00339921,-0.00000530,-0.00593271,0.00078862,0.00000076,0.00100
 568,-0.00384451,0.00000108,0.00305608,-0.01063000,0.00001253,0.0331797
 0,0.00135133,-0.00038829,-0.00031309,0.00135174,0.00038864,-0.00031299
 ,-0.07728002,0.00002688,0.08531076,0.00341720,-0.00134756,-0.01090203,
 0.08483376,-0.00000200,0.00078563,-0.00000226,0.00000133,0.00026467,-0
 .00000025,-0.00000058,0.00008457,0.00000080,-0.00000338,-0.00103844,0.
 00001035,0.00015727,0.00004699,0.00032565,-0.00015602,0.00004689,-0.00
 032584,0.00002737,-0.04809401,-0.00007777,-0.00997327,0.00112349,0.024
 35257,-0.00002903,0.04566919,-0.00176119,-0.00000037,0.00092793,0.0013
 0437,0.,-0.00046062,0.00078162,0.00000013,-0.00013102,-0.00266940,0.00
 000060,0.00192441,0.00034886,0.00021412,0.00032137,0.00034878,-0.00021
 386,0.00032256,0.08735237,-0.00007776,-0.28946986,0.00425257,-0.000992
 37,-0.01239183,-0.09420164,0.00008588,0.31132969,0.00115740,-0.0004624
 3,-0.00166606,0.00047228,0.00024671,0.00068204,-0.00013457,0.00033758,
 0.00047227,-0.01231405,-0.02812528,-0.01575093,-0.00665147,0.00035088,
 0.00063061,0.00167533,0.00032918,-0.00011907,-0.07971766,-0.07703846,-
 0.04377385,0.00367129,0.00890975,0.00624168,0.00341108,0.00997831,0.00
 424366,0.08843037,-0.00065791,0.00015038,-0.00123517,0.00102392,0.0002
 5946,-0.00000537,-0.00007547,-0.00006087,0.00046255,0.00069774,0.00139
 272,0.00132775,0.00025555,0.00146865,-0.00006612,-0.00044251,0.0006608
 1,0.00024366,-0.07872346,-0.22869449,-0.10256748,-0.00889190,-0.019443
 23,-0.01263086,0.00134029,0.00111103,0.00098362,0.08547375,0.24315554,
 -0.00021566,0.00062684,-0.00098684,0.00095324,0.00024827,-0.00007947,-
 0.00011438,-0.00010031,0.00032012,0.00004959,0.00082743,-0.00006549,0.
 00008390,0.00027174,0.00073741,-0.00017374,-0.00004791,0.00000202,-0.0
 4497473,-0.10360058,-0.10631028,0.00624188,0.01265622,0.00735525,-0.01
 088975,-0.02436912,-0.01237263,0.04903965,0.11348741,0.11139993||-0.00
 002577,0.00000105,0.00000037,-0.00000549,0.00000007,0.00000004,0.00001
 054,0.00000003,-0.00001424,-0.00000195,-0.00000085,-0.00000531,0.00000
 721,0.00000105,-0.00000362,0.00000814,-0.00000259,-0.00000325,0.000011
 80,-0.00000030,0.00000705,-0.00000481,0.00000230,0.00000519,0.00000390
 ,0.00000068,0.00000532,-0.00000357,-0.00000143,0.00000845|||@


      TO SUSPECT YOUR OWN MORTALITY IS TO KNOW THE BEGINNING OF TERROR.
      TO LEARN IRREFUTABLY THAT YOU ARE MORTAL IS TO KNOW THE END
      OF TERROR.

                                                  -- JESSICA
                                                     CHILDREN OF DUNE
                                                     BY FRANK HERBERT
 Job cpu time:  0 days  0 hours  1 minutes 27.0 seconds.
 File lengths (MBytes):  RWF=     32 Int=      0 D2E=      0 Chk=      4 Scr=      1
 Normal termination of Gaussian 09 at Sun Jan 24 02:35:53 2021.
