 Entering Link 1 = C:\G09W\l1.exe PID=      7748.
  
 Copyright (c) 1988,1990,1992,1993,1995,1998,2003,2009, Gaussian, Inc.
                  All Rights Reserved.
  
 This is part of the Gaussian(R) 09 program.  It is based on
 the Gaussian(R) 03 system (copyright 2003, Gaussian, Inc.),
 the Gaussian(R) 98 system (copyright 1998, Gaussian, Inc.),
 the Gaussian(R) 94 system (copyright 1995, Gaussian, Inc.),
 the Gaussian 92(TM) system (copyright 1992, Gaussian, Inc.),
 the Gaussian 90(TM) system (copyright 1990, Gaussian, Inc.),
 the Gaussian 88(TM) system (copyright 1988, Gaussian, Inc.),
 the Gaussian 86(TM) system (copyright 1986, Carnegie Mellon
 University), and the Gaussian 82(TM) system (copyright 1983,
 Carnegie Mellon University). Gaussian is a federally registered
 trademark of Gaussian, Inc.
  
 This software contains proprietary and confidential information,
 including trade secrets, belonging to Gaussian, Inc.
  
 This software is provided under written license and may be
 used, copied, transmitted, or stored only in accord with that
 written license.
  
 The following legend is applicable only to US Government
 contracts under FAR:
  
                    RESTRICTED RIGHTS LEGEND
  
 Use, reproduction and disclosure by the US Government is
 subject to restrictions as set forth in subparagraphs (a)
 and (c) of the Commercial Computer Software - Restricted
 Rights clause in FAR 52.227-19.
  
 Gaussian, Inc.
 340 Quinnipiac St., Bldg. 40, Wallingford CT 06492
  
  
 ---------------------------------------------------------------
 Warning -- This program may not be used in any manner that
 competes with the business of Gaussian, Inc. or will provide
 assistance to any competitor of Gaussian, Inc.  The licensee
 of this program is prohibited from giving any competitor of
 Gaussian, Inc. access to this program.  By using this program,
 the user acknowledges that Gaussian, Inc. is engaged in the
 business of creating and licensing software in the field of
 computational chemistry and represents and warrants to the
 licensee that it is not a competitor of Gaussian, Inc. and that
 it will not use this program in any manner prohibited above.
 ---------------------------------------------------------------
  

 Cite this work as:
 Gaussian 09, Revision A.02,
 M. J. Frisch, G. W. Trucks, H. B. Schlegel, G. E. Scuseria, 
 M. A. Robb, J. R. Cheeseman, G. Scalmani, V. Barone, B. Mennucci, 
 G. A. Petersson, H. Nakatsuji, M. Caricato, X. Li, H. P. Hratchian, 
 A. F. Izmaylov, J. Bloino, G. Zheng, J. L. Sonnenberg, M. Hada, 
 M. Ehara, K. Toyota, R. Fukuda, J. Hasegawa, M. Ishida, T. Nakajima, 
 Y. Honda, O. Kitao, H. Nakai, T. Vreven, J. A. Montgomery, Jr., 
 J. E. Peralta, F. Ogliaro, M. Bearpark, J. J. Heyd, E. Brothers, 
 K. N. Kudin, V. N. Staroverov, R. Kobayashi, J. Normand, 
 K. Raghavachari, A. Rendell, J. C. Burant, S. S. Iyengar, J. Tomasi, 
 M. Cossi, N. Rega, J. M. Millam, M. Klene, J. E. Knox, J. B. Cross, 
 V. Bakken, C. Adamo, J. Jaramillo, R. Gomperts, R. E. Stratmann, 
 O. Yazyev, A. J. Austin, R. Cammi, C. Pomelli, J. W. Ochterski, 
 R. L. Martin, K. Morokuma, V. G. Zakrzewski, G. A. Voth, 
 P. Salvador, J. J. Dannenberg, S. Dapprich, A. D. Daniels, 
 O. Farkas, J. B. Foresman, J. V. Ortiz, J. Cioslowski, 
 and D. J. Fox, Gaussian, Inc., Wallingford CT, 2009.
 
 ******************************************
 Gaussian 09:  IA32W-G09RevA.02 11-Jun-2009
                24-Jan-2021 
 ******************************************
 %chk=D:\Documents\rayGit\FQ\quimicaComputacional\p4Pka\reactivos\propaneAcidM062
 x.chk
 %mem=1500MB
 %nprocshared=4
 Will use up to    4 processors via shared memory.
 -------------------------------------
 # opt freq 6-31+g(d,p) scrf=smd m062x
 -------------------------------------
 1/14=-1,18=20,19=15,26=3,38=1/1,3;
 2/9=110,12=2,17=6,18=5,40=1/2;
 3/5=1,6=6,7=111,11=2,16=1,25=1,30=1,70=32201,71=1,72=1,74=-55/1,2,3;
 4//1;
 5/5=2,38=5/2;
 6/7=2,8=2,9=2,10=2,28=1/1;
 7//1,2,3,16;
 1/14=-1,18=20,19=15/3(2);
 2/9=110/2;
 99//99;
 2/9=110/2;
 3/5=1,6=6,7=111,11=2,16=1,25=1,30=1,70=32205,71=1,74=-55/1,2,3;
 4/5=5,16=3/1;
 5/5=2,38=5/2;
 7//1,2,3,16;
 1/14=-1,18=20,19=15/3(-5);
 2/9=110/2;
 6/7=2,8=2,9=2,10=2,19=2,28=1/1;
 99/9=1/99;
 -------------------
 propa ne acid m062x
 -------------------
 Symbolic Z-matrix:
 Charge =  0 Multiplicity = 1
 C                    -0.05876   0.11752   0. 
 O                     0.41791   0.11752   1.34822 
 O                    -1.48876   0.11754   0. 
 H                    -1.80876   0.11754   0.9051 
 C                     0.45457   0.11752  -1.45193 
 H                     0.09805  -0.75623  -1.95627 
 H                     0.09776   0.99107  -1.95638 
 C                     1.99457   0.11778  -1.45193 
 H                     2.35139  -0.75483  -0.94583 
 H                     2.35124   0.11588  -2.46073 
 H                     2.35109   0.99247  -0.94922 
 

 GradGradGradGradGradGradGradGradGradGradGradGradGradGradGradGradGradGrad
 Berny optimization.
 Initialization pass.
                           ----------------------------
                           !    Initial Parameters    !
                           ! (Angstroms and Degrees)  !
 --------------------------                            --------------------------
 ! Name  Definition              Value          Derivative Info.                !
 --------------------------------------------------------------------------------
 ! R1    R(1,2)                  1.43           estimate D2E/DX2                !
 ! R2    R(1,3)                  1.43           estimate D2E/DX2                !
 ! R3    R(1,5)                  1.54           estimate D2E/DX2                !
 ! R4    R(3,4)                  0.96           estimate D2E/DX2                !
 ! R5    R(5,6)                  1.07           estimate D2E/DX2                !
 ! R6    R(5,7)                  1.07           estimate D2E/DX2                !
 ! R7    R(5,8)                  1.54           estimate D2E/DX2                !
 ! R8    R(8,9)                  1.07           estimate D2E/DX2                !
 ! R9    R(8,10)                 1.07           estimate D2E/DX2                !
 ! R10   R(8,11)                 1.07           estimate D2E/DX2                !
 ! A1    A(2,1,3)              109.4712         estimate D2E/DX2                !
 ! A2    A(2,1,5)              141.0576         estimate D2E/DX2                !
 ! A3    A(3,1,5)              109.4712         estimate D2E/DX2                !
 ! A4    A(1,3,4)              109.4712         estimate D2E/DX2                !
 ! A5    A(1,5,6)              109.4712         estimate D2E/DX2                !
 ! A6    A(1,5,7)              109.4712         estimate D2E/DX2                !
 ! A7    A(1,5,8)              109.4712         estimate D2E/DX2                !
 ! A8    A(6,5,7)              109.4713         estimate D2E/DX2                !
 ! A9    A(6,5,8)              109.4712         estimate D2E/DX2                !
 ! A10   A(7,5,8)              109.4712         estimate D2E/DX2                !
 ! A11   A(5,8,9)              109.4712         estimate D2E/DX2                !
 ! A12   A(5,8,10)             109.4712         estimate D2E/DX2                !
 ! A13   A(5,8,11)             109.4712         estimate D2E/DX2                !
 ! A14   A(9,8,10)             109.4713         estimate D2E/DX2                !
 ! A15   A(9,8,11)             109.4712         estimate D2E/DX2                !
 ! A16   A(10,8,11)            109.4712         estimate D2E/DX2                !
 ! D1    D(2,1,3,4)              0.0            estimate D2E/DX2                !
 ! D2    D(5,1,3,4)            180.0            estimate D2E/DX2                !
 ! D3    D(2,1,5,6)            119.9889         estimate D2E/DX2                !
 ! D4    D(2,1,5,7)           -120.0111         estimate D2E/DX2                !
 ! D5    D(2,1,5,8)             -0.0111         estimate D2E/DX2                !
 ! D6    D(3,1,5,6)            -60.0111         estimate D2E/DX2                !
 ! D7    D(3,1,5,7)             59.9889         estimate D2E/DX2                !
 ! D8    D(3,1,5,8)            179.9889         estimate D2E/DX2                !
 ! D9    D(1,5,8,9)             59.8926         estimate D2E/DX2                !
 ! D10   D(1,5,8,10)           179.8926         estimate D2E/DX2                !
 ! D11   D(1,5,8,11)           -60.1074         estimate D2E/DX2                !
 ! D12   D(6,5,8,9)            -60.1074         estimate D2E/DX2                !
 ! D13   D(6,5,8,10)            59.8926         estimate D2E/DX2                !
 ! D14   D(6,5,8,11)           179.8926         estimate D2E/DX2                !
 ! D15   D(7,5,8,9)            179.8926         estimate D2E/DX2                !
 ! D16   D(7,5,8,10)           -60.1074         estimate D2E/DX2                !
 ! D17   D(7,5,8,11)            59.8926         estimate D2E/DX2                !
 --------------------------------------------------------------------------------
 Trust Radius=3.00D-01 FncErr=1.00D-07 GrdErr=1.00D-06
 Number of steps in this run=  53 maximum allowed number of steps= 100.
 GradGradGradGradGradGradGradGradGradGradGradGradGradGradGradGradGradGrad

                          Input orientation:                          
 ---------------------------------------------------------------------
 Center     Atomic      Atomic             Coordinates (Angstroms)
 Number     Number       Type             X           Y           Z
 ---------------------------------------------------------------------
      1          6           0       -0.058761    0.117521    0.000000
      2          8           0        0.417906    0.117515    1.348217
      3          8           0       -1.488761    0.117539    0.000000
      4          1           0       -1.808761    0.117543    0.905097
      5          6           0        0.454573    0.117515   -1.451926
      6          1           0        0.098055   -0.756230   -1.956272
      7          1           0        0.097757    0.991073   -1.956385
      8          6           0        1.994573    0.117778   -1.451926
      9          1           0        2.351388   -0.754833   -0.945830
     10          1           0        2.351239    0.115882   -2.460730
     11          1           0        2.351090    0.992466   -0.949219
 ---------------------------------------------------------------------
                    Distance matrix (angstroms):
                    1          2          3          4          5
     1  C    0.000000
     2  O    1.430000   0.000000
     3  O    1.430000   2.335180   0.000000
     4  H    1.970203   2.270331   0.960000   0.000000
     5  C    1.540000   2.800383   2.425826   3.267757   0.000000
     6  H    2.148263   3.432984   2.666169   3.547796   1.070000
     7  H    2.148263   3.433073   2.665997   3.547667   1.070000
     8  C    2.514810   3.213515   3.773818   4.474472   1.540000
     9  H    2.732108   3.124419   4.049984   4.636141   2.148263
    10  H    3.444313   4.271517   4.560789   5.351111   2.148263
    11  H    2.733848   3.127451   4.051046   4.637708   2.148263
                    6          7          8          9         10
     6  H    0.000000
     7  H    1.747303   0.000000
     8  C    2.148263   2.148263   0.000000
     9  H    2.469515   3.024609   1.070000   0.000000
    10  H    2.468177   2.469515   1.070000   1.747303   0.000000
    11  H    3.024610   2.468177   1.070000   1.747303   1.747303
                   11
    11  H    0.000000
 Stoichiometry    C3H6O2
 Framework group  C1[X(C3H6O2)]
 Deg. of freedom    27
 Full point group                 C1      NOp   1
 Largest Abelian subgroup         C1      NOp   1
 Largest concise Abelian subgroup C1      NOp   1
                         Standard orientation:                         
 ---------------------------------------------------------------------
 Center     Atomic      Atomic             Coordinates (Angstroms)
 Number     Number       Type             X           Y           Z
 ---------------------------------------------------------------------
      1          6           0        0.484377    0.054087   -0.000032
      2          8           0        0.974859    1.397340   -0.000035
      3          8           0        1.587314   -0.856095    0.000066
      4          1           0        2.410210   -0.361685    0.000108
      5          6           0       -0.835686   -0.739029   -0.000100
      6          1           0       -0.881671   -1.354960   -0.873836
      7          1           0       -0.881613   -1.355204    0.873467
      8          6           0       -2.023464    0.241166    0.000076
      9          1           0       -1.976495    0.858604   -0.872543
     10          1           0       -2.940650   -0.309894   -0.001862
     11          1           0       -1.978523    0.855833    0.874756
 ---------------------------------------------------------------------
 Rotational constants (GHZ):      8.6118962      3.5486012      2.5924010
 Standard basis: 6-31+G(d,p) (6D, 7F)
 There are   125 symmetry adapted basis functions of A   symmetry.
 Integral buffers will be    262144 words long.
 Raffenetti 2 integral format.
 Two-electron integral symmetry is turned on.
   125 basis functions,   202 primitive gaussians,   125 cartesian basis functions
    20 alpha electrons       20 beta electrons
       nuclear repulsion energy       169.9200409853 Hartrees.
 NAtoms=   11 NActive=   11 NUniq=   11 SFac= 7.50D-01 NAtFMM=   80 NAOKFM=F Big=F
 ------------------------------------------------------------------------------
 Polarizable Continuum Model (PCM)
 =================================
 Model                : PCM.
 Atomic radii         : SMD-Coulomb.
 Polarization charges : Total charges.
 Charge compensation  : None.
 Solution method      : Matrix inversion.
 Cavity type          : VdW (van der Waals Surface) (Alpha=1.000).
 Cavity algorithm     : GePol (No added spheres)
                        Default sphere list used, NSphG=   11.
                        Lebedev-Laikov grids with approx.  5.0 points / Ang**2.
                        Smoothing algorithm: Karplus/York (Gamma=1.0000).
                        Polarization charges: spherical gaussians, with
                                              point-specific exponents (IZeta= 3).
                        Self-potential: point-specific (ISelfS= 7).
                        Self-field    : sphere-specific E.n sum rule (ISelfD= 2).
 1st derivatives      : Analytical E(r).r(x)/FMM algorithm (CHGder, D1EAlg=3).
                        Cavity 1st derivative terms included.
 Solvent              : Water, Eps=  78.355300 Eps(inf)=   1.777849
 ------------------------------------------------------------------------------
 Spheres list:
 ISph  on   Nord    Re0     Alpha      Xe            Ye            Ze
    1   C      1    1.850   1.000      0.484377      0.054087     -0.000032
    2   O      2    1.520   1.000      0.974859      1.397340     -0.000035
    3   O      3    1.520   1.000      1.587314     -0.856095      0.000066
    4   H      4    1.200   1.000      2.410210     -0.361685      0.000108
    5   C      5    1.850   1.000     -0.835686     -0.739029     -0.000100
    6   H      6    1.200   1.000     -0.881671     -1.354960     -0.873836
    7   H      7    1.200   1.000     -0.881613     -1.355204      0.873467
    8   C      8    1.850   1.000     -2.023464      0.241166      0.000076
    9   H      9    1.200   1.000     -1.976495      0.858604     -0.872543
   10   H     10    1.200   1.000     -2.940650     -0.309894     -0.001862
   11   H     11    1.200   1.000     -1.978523      0.855833      0.874756
 ------------------------------------------------------------------------------
 ------------------------------------------------------------------------------
 Atomic radii for non-electrostatic terms: SMD-CDS.
 ------------------------------------------------------------------------------
 Nuclear repulsion after PCM non-electrostatic terms =      169.9244494962 Hartrees.
 One-electron integrals computed using PRISM.
 NBasis=   125 RedAO= T  NBF=   125
 NBsUse=   125 1.00D-06 NBFU=   125
 Harris functional with IExCor= 1009 diagonalized for initial guess.
 ExpMin= 4.38D-02 ExpMax= 5.48D+03 ExpMxC= 8.25D+02 IAcc=2 IRadAn=         0 AccDes= 0.00D+00
 HarFok:  IExCor= 1009 AccDes= 0.00D+00 IRadAn=         0 IDoV= 1
 ScaDFX=  1.000000  1.000000  1.000000  1.000000
 FoFCou: FMM=F IPFlag=           0 FMFlag=      100000 FMFlg1=           0
         NFxFlg=           0 DoJE=T BraDBF=F KetDBF=T FulRan=T
         Omega=  0.000000  0.000000  1.000000  0.000000  0.000000 ICntrl=     500 IOpCl=  0
         NMat0=    1 NMatS0=    1 NMatT0=    0 NMatD0=    1 NMtDS0=    0 NMtDT0=    0
         I1Cent=           4 NGrid=           0.
 Petite list used in FoFCou.
 Initial guess orbital symmetries:
       Occupied  (A) (A) (A) (A) (A) (A) (A) (A) (A) (A) (A) (A)
                 (A) (A) (A) (A) (A) (A) (A) (A)
       Virtual   (A) (A) (A) (A) (A) (A) (A) (A) (A) (A) (A) (A)
                 (A) (A) (A) (A) (A) (A) (A) (A) (A) (A) (A) (A)
                 (A) (A) (A) (A) (A) (A) (A) (A) (A) (A) (A) (A)
                 (A) (A) (A) (A) (A) (A) (A) (A) (A) (A) (A) (A)
                 (A) (A) (A) (A) (A) (A) (A) (A) (A) (A) (A) (A)
                 (A) (A) (A) (A) (A) (A) (A) (A) (A) (A) (A) (A)
                 (A) (A) (A) (A) (A) (A) (A) (A) (A) (A) (A) (A)
                 (A) (A) (A) (A) (A) (A) (A) (A) (A) (A) (A) (A)
                 (A) (A) (A) (A) (A) (A) (A) (A) (A)
 The electronic state of the initial guess is 1-A.
 Requested convergence on RMS density matrix=1.00D-08 within 128 cycles.
 Requested convergence on MAX density matrix=1.00D-06.
 Requested convergence on             energy=1.00D-06.
 No special actions if energy rises.
 Keep R1 ints in memory in canonical form, NReq=34998036.
 Error on total polarization charges =  0.04286
 SCF Done:  E(RM062X) =  -268.243329562     A.U. after   13 cycles
             Convg  =    0.5257D-08             -V/T =  2.0108
 SMD-CDS (non-electrostatic) energy             (kcal/mol) =       2.77
 (included in total energy above)

 **********************************************************************

            Population analysis using the SCF density.

 **********************************************************************

 Orbital symmetries:
       Occupied  (A) (A) (A) (A) (A) (A) (A) (A) (A) (A) (A) (A)
                 (A) (A) (A) (A) (A) (A) (A) (A)
       Virtual   (A) (A) (A) (A) (A) (A) (A) (A) (A) (A) (A) (A)
                 (A) (A) (A) (A) (A) (A) (A) (A) (A) (A) (A) (A)
                 (A) (A) (A) (A) (A) (A) (A) (A) (A) (A) (A) (A)
                 (A) (A) (A) (A) (A) (A) (A) (A) (A) (A) (A) (A)
                 (A) (A) (A) (A) (A) (A) (A) (A) (A) (A) (A) (A)
                 (A) (A) (A) (A) (A) (A) (A) (A) (A) (A) (A) (A)
                 (A) (A) (A) (A) (A) (A) (A) (A) (A) (A) (A) (A)
                 (A) (A) (A) (A) (A) (A) (A) (A) (A) (A) (A) (A)
                 (A) (A) (A) (A) (A) (A) (A) (A) (A)
 The electronic state is 1-A.
 Alpha  occ. eigenvalues --  -19.70246 -19.66630 -10.74511 -10.57824 -10.53344
 Alpha  occ. eigenvalues --   -1.20017  -1.07385  -0.89884  -0.77028  -0.67286
 Alpha  occ. eigenvalues --   -0.58706  -0.55502  -0.55132  -0.48330  -0.47671
 Alpha  occ. eigenvalues --   -0.44009  -0.43433  -0.42316  -0.38201  -0.36916
 Alpha virt. eigenvalues --   -0.02446   0.02113   0.03972   0.04848   0.06477
 Alpha virt. eigenvalues --    0.07542   0.09299   0.09370   0.10100   0.10507
 Alpha virt. eigenvalues --    0.12488   0.14682   0.15574   0.17355   0.20316
 Alpha virt. eigenvalues --    0.22207   0.22774   0.24260   0.25450   0.26793
 Alpha virt. eigenvalues --    0.27235   0.28091   0.29324   0.31667   0.31835
 Alpha virt. eigenvalues --    0.33844   0.35260   0.37825   0.38439   0.40524
 Alpha virt. eigenvalues --    0.41875   0.66167   0.66627   0.69559   0.70888
 Alpha virt. eigenvalues --    0.71090   0.78730   0.81355   0.84116   0.89459
 Alpha virt. eigenvalues --    0.99318   1.02451   1.04016   1.05710   1.10574
 Alpha virt. eigenvalues --    1.13789   1.18885   1.19700   1.19903   1.27658
 Alpha virt. eigenvalues --    1.30356   1.35238   1.37027   1.39067   1.39760
 Alpha virt. eigenvalues --    1.43245   1.47075   1.57041   1.58874   1.63019
 Alpha virt. eigenvalues --    1.65840   1.71526   1.75270   1.75537   1.85589
 Alpha virt. eigenvalues --    1.87695   1.87875   1.91901   1.98686   2.01299
 Alpha virt. eigenvalues --    2.10352   2.16171   2.16892   2.17975   2.21463
 Alpha virt. eigenvalues --    2.23940   2.24554   2.32355   2.37545   2.43511
 Alpha virt. eigenvalues --    2.47165   2.48147   2.54136   2.56218   2.66522
 Alpha virt. eigenvalues --    2.67695   2.75806   2.77022   2.84764   2.86538
 Alpha virt. eigenvalues --    2.94476   2.95265   3.03150   3.10243   3.31128
 Alpha virt. eigenvalues --    3.37231   3.41906   3.50758   3.52305   3.56628
 Alpha virt. eigenvalues --    4.12310   4.27040   4.33452   4.48818   4.68276
          Condensed to atoms (all electrons):
              1          2          3          4          5          6
     1  C    4.950477   0.391101   0.285616  -0.019567   0.015687  -0.021485
     2  O    0.391101   8.426389  -0.119923   0.005027  -0.069801   0.001180
     3  O    0.285616  -0.119923   8.264377   0.257679  -0.198677  -0.001418
     4  H   -0.019567   0.005027   0.257679   0.291681   0.025845  -0.000044
     5  C    0.015687  -0.069801  -0.198677   0.025845   5.628734   0.386195
     6  H   -0.021485   0.001180  -0.001418  -0.000044   0.386195   0.433197
     7  H   -0.021489   0.001182  -0.001408  -0.000043   0.386195  -0.017757
     8  C   -0.024365   0.020810   0.030257  -0.002183   0.167405  -0.027855
     9  H   -0.008579  -0.000072  -0.000010   0.000001  -0.043381  -0.003926
    10  H    0.013111   0.000121  -0.000343   0.000002  -0.045111  -0.002765
    11  H   -0.008515  -0.000082  -0.000016   0.000001  -0.043405   0.003528
              7          8          9         10         11
     1  C   -0.021489  -0.024365  -0.008579   0.013111  -0.008515
     2  O    0.001182   0.020810  -0.000072   0.000121  -0.000082
     3  O   -0.001408   0.030257  -0.000010  -0.000343  -0.000016
     4  H   -0.000043  -0.002183   0.000001   0.000002   0.000001
     5  C    0.386195   0.167405  -0.043381  -0.045111  -0.043405
     6  H   -0.017757  -0.027855  -0.003926  -0.002765   0.003528
     7  H    0.433216  -0.027870   0.003530  -0.002742  -0.003952
     8  C   -0.027870   5.204416   0.415663   0.402895   0.415681
     9  H    0.003530   0.415663   0.498760  -0.022853  -0.026984
    10  H   -0.002742   0.402895  -0.022853   0.491590  -0.022844
    11  H   -0.003952   0.415681  -0.026984  -0.022844   0.498665
 Mulliken atomic charges:
              1
     1  C    0.448007
     2  O   -0.655932
     3  O   -0.516132
     4  H    0.441601
     5  C   -0.209686
     6  H    0.251148
     7  H    0.251136
     8  C   -0.574854
     9  H    0.187852
    10  H    0.188939
    11  H    0.187922
 Sum of Mulliken atomic charges =   0.00000
 Mulliken charges with hydrogens summed into heavy atoms:
              1
     1  C    0.448007
     2  O   -0.655932
     3  O   -0.074531
     5  C    0.292598
     8  C   -0.010141
 Sum of Mulliken charges with hydrogens summed into heavy atoms =   0.00000
 Electronic spatial extent (au):  <R**2>=            480.6427
 Charge=              0.0000 electrons
 Dipole moment (field-independent basis, Debye):
    X=             -2.0428    Y=             -3.8118    Z=             -0.0001  Tot=              4.3247
 Quadrupole moment (field-independent basis, Debye-Ang):
   XX=            -24.7977   YY=            -37.9115   ZZ=            -29.9375
   XY=             -0.5886   XZ=              0.0007   YZ=              0.0003
 Traceless Quadrupole moment (field-independent basis, Debye-Ang):
   XX=              6.0845   YY=             -7.0292   ZZ=              0.9447
   XY=             -0.5886   XZ=              0.0007   YZ=              0.0003
 Octapole moment (field-independent basis, Debye-Ang**2):
  XXX=             21.6245  YYY=            -11.2002  ZZZ=              0.0035  XYY=             -8.4382
  XXY=             -5.2992  XXZ=             -0.0010  XZZ=              0.6477  YZZ=             -1.7809
  YYZ=             -0.0022  XYZ=             -0.0018
 Hexadecapole moment (field-independent basis, Debye-Ang**3):
 XXXX=           -328.2397 YYYY=           -184.7648 ZZZZ=            -41.3423 XXXY=             -3.0364
 XXXZ=              0.0168 YYYX=             -1.8057 YYYZ=             -0.0042 ZZZX=             -0.0079
 ZZZY=              0.0030 XXYY=           -103.2218 XXZZ=            -74.1556 YYZZ=            -33.4960
 XXYZ=              0.0081 YYXZ=              0.0043 ZZXY=             -0.0784
 N-N= 1.699244494962D+02 E-N=-9.664273653138D+02  KE= 2.653734763144D+02
 D1PCM: PCM CHGder 1st derivatives, ID1Alg=3 FixD1E=F DoIter=F DoCFld=F I1PDM=0.
 Calling FoFJK, ICntrl=      2127 FMM=F ISym2X=0 I1Cent= 0 IOpClX= 0 NMat=1 NMatS=1 NMatT=0.
 ***** Axes restored to original set *****
 -------------------------------------------------------------------
 Center     Atomic                   Forces (Hartrees/Bohr)
 Number     Number              X              Y              Z
 -------------------------------------------------------------------
      1        6          -0.057802633    0.000005946    0.143442999
      2        8          -0.029882215   -0.000000346   -0.172109915
      3        8           0.072689661   -0.000000422   -0.026623717
      4        1           0.000927836   -0.000000427    0.014054657
      5        6           0.040722097    0.000005531    0.045413427
      6        1          -0.012422121   -0.013481911   -0.002141099
      7        1          -0.012427015    0.013469620   -0.002152422
      8        6          -0.022902288   -0.000002721    0.000790694
      9        1           0.007688924   -0.012353318    0.006647310
     10        1           0.005725897   -0.000020942   -0.013930411
     11        1           0.007681857    0.012378989    0.006608477
 -------------------------------------------------------------------
 Cartesian Forces:  Max     0.172109915 RMS     0.044818978

 GradGradGradGradGradGradGradGradGradGradGradGradGradGradGradGradGradGrad
 Berny optimization.
 Internal  Forces:  Max     0.172241146 RMS     0.031042931
 Search for a local minimum.
 Step number   1 out of a maximum of   53
 All quantities printed in internal units (Hartrees-Bohrs-Radians)
 Mixed Optimization -- RFO/linear search
 Second derivative matrix not updated -- first step.
     Eigenvalues ---    0.00237   0.00237   0.00373   0.01295   0.04356
     Eigenvalues ---    0.05410   0.05720   0.05720   0.08669   0.12376
     Eigenvalues ---    0.16000   0.16000   0.16000   0.16000   0.21983
     Eigenvalues ---    0.25000   0.25000   0.28519   0.28519   0.37230
     Eigenvalues ---    0.37230   0.37230   0.37230   0.37230   0.40989
     Eigenvalues ---    0.40989   0.554731000.000001000.000001000.00000
     Eigenvalues --- 1000.000001000.000001000.000001000.000001000.00000
     Eigenvalues --- 1000.000001000.000001000.000001000.000001000.00000
     Eigenvalues --- 1000.000001000.000001000.00000
 RFO step:  Lambda=-8.84620958D-02 EMin= 2.36824076D-03
 Linear search not attempted -- first point.
 Maximum step size (   0.300) exceeded in Quadratic search.
    -- Step size scaled by   0.678
 Iteration  1 RMS(Cart)=  0.05288469 RMS(Int)=  0.00634929
 Iteration  2 RMS(Cart)=  0.00602473 RMS(Int)=  0.00018241
 Iteration  3 RMS(Cart)=  0.00002597 RMS(Int)=  0.00018167
 Iteration  4 RMS(Cart)=  0.00000000 RMS(Int)=  0.00018167
 Variable       Old X    -DE/DX   Delta X   Delta X   Delta X     New X
                                 (Linear)    (Quad)   (Total)
    R1        2.70231  -0.17224   0.00000  -0.23440  -0.23440   2.46791
    R2        2.70231  -0.07358   0.00000  -0.10013  -0.10013   2.60218
    R3        2.91018  -0.03424   0.00000  -0.06214  -0.06214   2.84803
    R4        1.81414   0.01292   0.00000   0.01362   0.01362   1.82776
    R5        2.02201   0.01615   0.00000   0.02378   0.02378   2.04579
    R6        2.02201   0.01615   0.00000   0.02378   0.02378   2.04578
    R7        2.91018  -0.00177   0.00000  -0.00321  -0.00321   2.90697
    R8        2.02201   0.01580   0.00000   0.02325   0.02325   2.04526
    R9        2.02201   0.01503   0.00000   0.02212   0.02212   2.04412
   R10        2.02201   0.01580   0.00000   0.02325   0.02325   2.04526
    A1        1.91063   0.03432   0.00000   0.06876   0.06876   1.97940
    A2        2.46192  -0.04450   0.00000  -0.08917  -0.08917   2.37275
    A3        1.91063   0.01019   0.00000   0.02041   0.02041   1.93104
    A4        1.91063  -0.01002   0.00000  -0.02735  -0.02735   1.88328
    A5        1.91063  -0.00830   0.00000  -0.02701  -0.02734   1.88329
    A6        1.91063  -0.00830   0.00000  -0.02700  -0.02734   1.88329
    A7        1.91063   0.01026   0.00000   0.02311   0.02320   1.93383
    A8        1.91063   0.00075   0.00000  -0.00075  -0.00148   1.90915
    A9        1.91063   0.00280   0.00000   0.01582   0.01596   1.92659
   A10        1.91063   0.00280   0.00000   0.01582   0.01595   1.92659
   A11        1.91063   0.00310   0.00000   0.00873   0.00871   1.91934
   A12        1.91063  -0.00021   0.00000  -0.00110  -0.00110   1.90953
   A13        1.91063   0.00310   0.00000   0.00872   0.00869   1.91933
   A14        1.91063  -0.00180   0.00000  -0.00545  -0.00545   1.90519
   A15        1.91063  -0.00240   0.00000  -0.00546  -0.00551   1.90512
   A16        1.91063  -0.00180   0.00000  -0.00545  -0.00544   1.90519
    D1        0.00000   0.00000   0.00000   0.00000   0.00000   0.00000
    D2        3.14159   0.00000   0.00000  -0.00001  -0.00001   3.14159
    D3        2.09420   0.00462   0.00000   0.01699   0.01660   2.11080
    D4       -2.09459  -0.00462   0.00000  -0.01700  -0.01661  -2.11120
    D5       -0.00019   0.00000   0.00000  -0.00001  -0.00001  -0.00020
    D6       -1.04739   0.00462   0.00000   0.01699   0.01661  -1.03078
    D7        1.04700  -0.00462   0.00000  -0.01699  -0.01661   1.03040
    D8        3.14140   0.00000   0.00000   0.00000   0.00000   3.14140
    D9        1.04532   0.00043   0.00000   0.00203   0.00204   1.04737
   D10        3.13972   0.00000   0.00000   0.00003   0.00003   3.13975
   D11       -1.04907  -0.00043   0.00000  -0.00198  -0.00199  -1.05107
   D12       -1.04907   0.00261   0.00000   0.01126   0.01125  -1.03782
   D13        1.04532   0.00218   0.00000   0.00926   0.00923   1.05456
   D14        3.13972   0.00175   0.00000   0.00725   0.00721  -3.13626
   D15        3.13972  -0.00174   0.00000  -0.00721  -0.00716   3.13255
   D16       -1.04907  -0.00217   0.00000  -0.00920  -0.00918  -1.05825
   D17        1.04532  -0.00260   0.00000  -0.01121  -0.01120   1.03412
         Item               Value     Threshold  Converged?
 Maximum Force            0.172241     0.000450     NO 
 RMS     Force            0.031043     0.000300     NO 
 Maximum Displacement     0.307891     0.001800     NO 
 RMS     Displacement     0.056602     0.001200     NO 
 Predicted change in Energy=-4.362654D-02
 GradGradGradGradGradGradGradGradGradGradGradGradGradGradGradGradGradGrad

                          Input orientation:                          
 ---------------------------------------------------------------------
 Center     Atomic      Atomic             Coordinates (Angstroms)
 Number     Number       Type             X           Y           Z
 ---------------------------------------------------------------------
      1          6           0       -0.084867    0.117527   -0.013905
      2          8           0        0.432308    0.117523    1.185288
      3          8           0       -1.461877    0.117541   -0.015875
      4          1           0       -1.760538    0.117545    0.904066
      5          6           0        0.448417    0.117513   -1.423517
      6          1           0        0.070793   -0.766051   -1.922216
      7          1           0        0.070491    1.000871   -1.922349
      8          6           0        1.986719    0.117779   -1.425603
      9          1           0        2.357198   -0.763148   -0.917573
     10          1           0        2.344781    0.115879   -2.446323
     11          1           0        2.356874    1.000791   -0.920968
 ---------------------------------------------------------------------
                    Distance matrix (angstroms):
                    1          2          3          4          5
     1  C    0.000000
     2  O    1.305961   0.000000
     3  O    1.377012   2.242929   0.000000
     4  H    1.910640   2.210806   0.967207   0.000000
     5  C    1.507115   2.608855   2.372906   3.208913   0.000000
     6  H    2.108694   3.250843   2.600759   3.481721   1.082583
     7  H    2.108694   3.250942   2.600590   3.481602   1.082582
     8  C    2.506862   3.038576   3.725607   4.412402   1.538303
     9  H    2.748797   2.983757   4.021692   4.587999   2.162171
    10  H    3.438001   4.104407   4.516385   5.298939   2.154607
    11  H    2.750457   2.986709   4.022709   4.589549   2.162162
                    6          7          8          9         10
     6  H    0.000000
     7  H    1.766922   0.000000
     8  C    2.167614   2.167612   0.000000
     9  H    2.497391   3.057837   1.082303   0.000000
    10  H    2.494696   2.496028   1.081704   1.763497   0.000000
    11  H    3.057842   2.496060   1.082304   1.763942   1.763498
                   11
    11  H    0.000000
 Stoichiometry    C3H6O2
 Framework group  C1[X(C3H6O2)]
 Deg. of freedom    27
 Full point group                 C1      NOp   1
 Largest Abelian subgroup         C1      NOp   1
 Largest concise Abelian subgroup C1      NOp   1
                         Standard orientation:                         
 ---------------------------------------------------------------------
 Center     Atomic      Atomic             Coordinates (Angstroms)
 Number     Number       Type             X           Y           Z
 ---------------------------------------------------------------------
      1          6           0        0.511295    0.069876   -0.000027
      2          8           0        0.815764    1.339850   -0.000039
      3          8           0        1.612573   -0.756773    0.000067
      4          1           0        2.402893   -0.199203    0.000106
      5          6           0       -0.760267   -0.739152   -0.000099
      6          1           0       -0.756692   -1.364701   -0.883650
      7          1           0       -0.756632   -1.364952    0.883272
      8          6           0       -1.993108    0.180892    0.000076
      9          1           0       -1.985269    0.809593   -0.880863
     10          1           0       -2.891370   -0.421773   -0.001864
     11          1           0       -1.987147    0.806717    0.883076
 ---------------------------------------------------------------------
 Rotational constants (GHZ):      9.4866536      3.7160276      2.7617826
 Standard basis: 6-31+G(d,p) (6D, 7F)
 There are   125 symmetry adapted basis functions of A   symmetry.
 Integral buffers will be    262144 words long.
 Raffenetti 2 integral format.
 Two-electron integral symmetry is turned on.
   125 basis functions,   202 primitive gaussians,   125 cartesian basis functions
    20 alpha electrons       20 beta electrons
       nuclear repulsion energy       174.9504926288 Hartrees.
 NAtoms=   11 NActive=   11 NUniq=   11 SFac= 7.50D-01 NAtFMM=   80 NAOKFM=F Big=F
 ------------------------------------------------------------------------------
 Polarizable Continuum Model (PCM)
 =================================
 Model                : PCM.
 Atomic radii         : SMD-Coulomb.
 Polarization charges : Total charges.
 Charge compensation  : None.
 Solution method      : Matrix inversion.
 Cavity type          : VdW (van der Waals Surface) (Alpha=1.000).
 Cavity algorithm     : GePol (No added spheres)
                        Default sphere list used, NSphG=   11.
                        Lebedev-Laikov grids with approx.  5.0 points / Ang**2.
                        Smoothing algorithm: Karplus/York (Gamma=1.0000).
                        Polarization charges: spherical gaussians, with
                                              point-specific exponents (IZeta= 3).
                        Self-potential: point-specific (ISelfS= 7).
                        Self-field    : sphere-specific E.n sum rule (ISelfD= 2).
 1st derivatives      : Analytical E(r).r(x)/FMM algorithm (CHGder, D1EAlg=3).
                        Cavity 1st derivative terms included.
 Solvent              : Water, Eps=  78.355300 Eps(inf)=   1.777849
 ------------------------------------------------------------------------------
 Spheres list:
 ISph  on   Nord    Re0     Alpha      Xe            Ye            Ze
    1   C      1    1.850   1.000      0.511295      0.069876     -0.000027
    2   O      2    1.520   1.000      0.815764      1.339850     -0.000039
    3   O      3    1.520   1.000      1.612573     -0.756773      0.000067
    4   H      4    1.200   1.000      2.402893     -0.199203      0.000106
    5   C      5    1.850   1.000     -0.760267     -0.739152     -0.000099
    6   H      6    1.200   1.000     -0.756692     -1.364701     -0.883650
    7   H      7    1.200   1.000     -0.756632     -1.364952      0.883272
    8   C      8    1.850   1.000     -1.993108      0.180892      0.000076
    9   H      9    1.200   1.000     -1.985269      0.809593     -0.880863
   10   H     10    1.200   1.000     -2.891370     -0.421773     -0.001864
   11   H     11    1.200   1.000     -1.987147      0.806717      0.883076
 ------------------------------------------------------------------------------
 ------------------------------------------------------------------------------
 Atomic radii for non-electrostatic terms: SMD-CDS.
 ------------------------------------------------------------------------------
 Nuclear repulsion after PCM non-electrostatic terms =      174.9562820687 Hartrees.
 One-electron integrals computed using PRISM.
 NBasis=   125 RedAO= T  NBF=   125
 NBsUse=   125 1.00D-06 NBFU=   125
 Initial guess read from the read-write file.
 B after Tr=     0.000000    0.000000    0.000000
         Rot=    1.000000    0.000000    0.000000    0.000000 Ang=   0.00 deg.
 Initial guess orbital symmetries:
       Occupied  (A) (A) (A) (A) (A) (A) (A) (A) (A) (A) (A) (A)
                 (A) (A) (A) (A) (A) (A) (A) (A)
       Virtual   (A) (A) (A) (A) (A) (A) (A) (A) (A) (A) (A) (A)
                 (A) (A) (A) (A) (A) (A) (A) (A) (A) (A) (A) (A)
                 (A) (A) (A) (A) (A) (A) (A) (A) (A) (A) (A) (A)
                 (A) (A) (A) (A) (A) (A) (A) (A) (A) (A) (A) (A)
                 (A) (A) (A) (A) (A) (A) (A) (A) (A) (A) (A) (A)
                 (A) (A) (A) (A) (A) (A) (A) (A) (A) (A) (A) (A)
                 (A) (A) (A) (A) (A) (A) (A) (A) (A) (A) (A) (A)
                 (A) (A) (A) (A) (A) (A) (A) (A) (A) (A) (A) (A)
                 (A) (A) (A) (A) (A) (A) (A) (A) (A)
 Harris functional with IExCor= 1009 diagonalized for initial guess.
 ExpMin= 4.38D-02 ExpMax= 5.48D+03 ExpMxC= 8.25D+02 IAcc=2 IRadAn=         0 AccDes= 0.00D+00
 HarFok:  IExCor= 1009 AccDes= 0.00D+00 IRadAn=         0 IDoV= 1
 ScaDFX=  1.000000  1.000000  1.000000  1.000000
 FoFCou: FMM=F IPFlag=           0 FMFlag=      100000 FMFlg1=           0
         NFxFlg=           0 DoJE=T BraDBF=F KetDBF=T FulRan=T
         Omega=  0.000000  0.000000  1.000000  0.000000  0.000000 ICntrl=     500 IOpCl=  0
         NMat0=    1 NMatS0=    1 NMatT0=    0 NMatD0=    1 NMtDS0=    0 NMtDT0=    0
         I1Cent=           4 NGrid=           0.
 Petite list used in FoFCou.
 Requested convergence on RMS density matrix=1.00D-08 within 128 cycles.
 Requested convergence on MAX density matrix=1.00D-06.
 Requested convergence on             energy=1.00D-06.
 No special actions if energy rises.
 Keep R1 ints in memory in canonical form, NReq=35006680.
 Error on total polarization charges =  0.04212
 SCF Done:  E(RM062X) =  -268.291387107     A.U. after   12 cycles
             Convg  =    0.2956D-08             -V/T =  2.0097
 SMD-CDS (non-electrostatic) energy             (kcal/mol) =       3.63
 (included in total energy above)
 D1PCM: PCM CHGder 1st derivatives, ID1Alg=3 FixD1E=F DoIter=F DoCFld=F I1PDM=0.
 Calling FoFJK, ICntrl=      2127 FMM=F ISym2X=0 I1Cent= 0 IOpClX= 0 NMat=1 NMatS=1 NMatT=0.
 ***** Axes restored to original set *****
 -------------------------------------------------------------------
 Center     Atomic                   Forces (Hartrees/Bohr)
 Number     Number              X              Y              Z
 -------------------------------------------------------------------
      1        6          -0.023804958    0.000006090    0.095296038
      2        8          -0.014314568    0.000000088   -0.104004296
      3        8           0.025061962   -0.000000286   -0.015548809
      4        1          -0.001045955   -0.000000394    0.005337498
      5        6           0.031094250    0.000002930    0.023743580
      6        1          -0.006475601   -0.005026889   -0.002004944
      7        1          -0.006477459    0.005017852   -0.002014464
      8        6          -0.015320261   -0.000000961   -0.000262003
      9        1           0.003981198   -0.005351832    0.002740485
     10        1           0.003322316   -0.000003257   -0.006012278
     11        1           0.003979076    0.005356659    0.002729195
 -------------------------------------------------------------------
 Cartesian Forces:  Max     0.104004296 RMS     0.026758307

 GradGradGradGradGradGradGradGradGradGradGradGradGradGradGradGradGradGrad
 Berny optimization.
 Using GEDIIS/GDIIS optimizer.
 Internal  Forces:  Max     0.101173701 RMS     0.017937525
 Search for a local minimum.
 Step number   2 out of a maximum of   53
 All quantities printed in internal units (Hartrees-Bohrs-Radians)
 Mixed Optimization -- RFO/linear search
 Update second derivatives using D2CorX and points    1    2
 DE= -4.81D-02 DEPred=-4.36D-02 R= 1.10D+00
 SS=  1.41D+00  RLast= 3.00D-01 DXNew= 5.0454D-01 8.9998D-01
 Trust test= 1.10D+00 RLast= 3.00D-01 DXMaxT set to 5.05D-01
 Use linear search instead of GDIIS.
     Eigenvalues ---    0.00237   0.00237   0.00407   0.01295   0.04209
     Eigenvalues ---    0.05269   0.05631   0.05693   0.09085   0.12530
     Eigenvalues ---    0.15936   0.16000   0.16000   0.16100   0.19454
     Eigenvalues ---    0.22069   0.25022   0.28478   0.29037   0.35116
     Eigenvalues ---    0.37230   0.37230   0.37230   0.37230   0.37413
     Eigenvalues ---    0.46584   0.555621000.000001000.000001000.00000
     Eigenvalues --- 1000.000001000.000001000.000001000.000001000.00000
     Eigenvalues --- 1000.000001000.000001000.000001000.000001000.00000
     Eigenvalues --- 1000.000001000.000001000.00000
 RFO step:  Lambda=-8.40840061D-03 EMin= 2.36824076D-03
 Quartic linear search produced a step of  0.89526.
 Iteration  1 RMS(Cart)=  0.06183711 RMS(Int)=  0.01556452
 Iteration  2 RMS(Cart)=  0.01465415 RMS(Int)=  0.00019084
 Iteration  3 RMS(Cart)=  0.00013804 RMS(Int)=  0.00016484
 Iteration  4 RMS(Cart)=  0.00000003 RMS(Int)=  0.00016484
 Variable       Old X    -DE/DX   Delta X   Delta X   Delta X     New X
                                 (Linear)    (Quad)   (Total)
    R1        2.46791  -0.10117  -0.20985  -0.06022  -0.27006   2.19784
    R2        2.60218  -0.02399  -0.08964   0.06119  -0.02846   2.57372
    R3        2.84803  -0.01272  -0.05563   0.03784  -0.01779   2.83024
    R4        1.82776   0.00539   0.01219  -0.00304   0.00915   1.83690
    R5        2.04579   0.00728   0.02129  -0.00539   0.01590   2.06168
    R6        2.04578   0.00728   0.02129  -0.00539   0.01589   2.06168
    R7        2.90697  -0.00403  -0.00287  -0.01976  -0.02263   2.88434
    R8        2.04526   0.00701   0.02081  -0.00584   0.01498   2.06023
    R9        2.04412   0.00677   0.01980  -0.00505   0.01475   2.05888
   R10        2.04526   0.00701   0.02082  -0.00585   0.01497   2.06022
    A1        1.97940   0.03157   0.06156   0.09121   0.15277   2.13216
    A2        2.37275  -0.03762  -0.07983  -0.09396  -0.17379   2.19896
    A3        1.93104   0.00605   0.01827   0.00275   0.02102   1.95207
    A4        1.88328  -0.00118  -0.02449   0.05533   0.03085   1.91413
    A5        1.88329  -0.00410  -0.02448   0.03100   0.00617   1.88947
    A6        1.88329  -0.00410  -0.02448   0.03095   0.00613   1.88942
    A7        1.93383   0.00591   0.02077   0.00738   0.02804   1.96187
    A8        1.90915  -0.00071  -0.00133  -0.02696  -0.02908   1.88007
    A9        1.92659   0.00136   0.01429  -0.02030  -0.00619   1.92040
   A10        1.92659   0.00136   0.01428  -0.02030  -0.00619   1.92040
   A11        1.91934   0.00187   0.00779  -0.00103   0.00671   1.92605
   A12        1.90953   0.00082  -0.00098   0.01258   0.01155   1.92108
   A13        1.91933   0.00187   0.00778  -0.00099   0.00673   1.92606
   A14        1.90519  -0.00152  -0.00487  -0.00278  -0.00771   1.89748
   A15        1.90512  -0.00159  -0.00494  -0.00504  -0.01004   1.89508
   A16        1.90519  -0.00152  -0.00487  -0.00281  -0.00773   1.89746
    D1        0.00000   0.00000   0.00000  -0.00002  -0.00003  -0.00003
    D2        3.14159   0.00000   0.00000   0.00004   0.00005  -3.14155
    D3        2.11080   0.00263   0.01486  -0.00061   0.01402   2.12482
    D4       -2.11120  -0.00263  -0.01487   0.00093  -0.01372  -2.12492
    D5       -0.00020   0.00000  -0.00001   0.00015   0.00014  -0.00006
    D6       -1.03078   0.00263   0.01487  -0.00069   0.01394  -1.01684
    D7        1.03040  -0.00263  -0.01487   0.00084  -0.01379   1.01660
    D8        3.14140   0.00000   0.00000   0.00006   0.00006   3.14146
    D9        1.04737   0.00021   0.00183  -0.00357  -0.00174   1.04563
   D10        3.13975   0.00001   0.00002   0.00020   0.00022   3.13997
   D11       -1.05107  -0.00020  -0.00179   0.00395   0.00216  -1.04890
   D12       -1.03782   0.00065   0.01007  -0.03384  -0.02373  -1.06155
   D13        1.05456   0.00045   0.00827  -0.03008  -0.02177   1.03278
   D14       -3.13626   0.00025   0.00646  -0.02632  -0.01983   3.12710
   D15        3.13255  -0.00024  -0.00641   0.02665   0.02020  -3.13043
   D16       -1.05825  -0.00044  -0.00822   0.03041   0.02215  -1.03610
   D17        1.03412  -0.00064  -0.01003   0.03417   0.02410   1.05822
         Item               Value     Threshold  Converged?
 Maximum Force            0.101174     0.000450     NO 
 RMS     Force            0.017938     0.000300     NO 
 Maximum Displacement     0.375193     0.001800     NO 
 RMS     Displacement     0.065787     0.001200     NO 
 Predicted change in Energy=-2.635683D-02
 GradGradGradGradGradGradGradGradGradGradGradGradGradGradGradGradGradGrad

                          Input orientation:                          
 ---------------------------------------------------------------------
 Center     Atomic      Atomic             Coordinates (Angstroms)
 Number     Number       Type             X           Y           Z
 ---------------------------------------------------------------------
      1          6           0       -0.108466    0.117551    0.001864
      2          8           0        0.510157    0.117719    0.986744
      3          8           0       -1.470418    0.117479    0.001149
      4          1           0       -1.798118    0.117560    0.916293
      5          6           0        0.449560    0.117486   -1.387996
      6          1           0        0.071178   -0.763694   -1.908208
      7          1           0        0.070864    0.998434   -1.908364
      8          6           0        1.975823    0.117758   -1.402157
      9          1           0        2.359928   -0.766521   -0.893127
     10          1           0        2.340198    0.116036   -2.428930
     11          1           0        2.359593    1.003963   -0.896242
 ---------------------------------------------------------------------
                    Distance matrix (angstroms):
                    1          2          3          4          5
     1  C    0.000000
     2  O    1.163049   0.000000
     3  O    1.361952   2.212256   0.000000
     4  H    1.921225   2.309350   0.972048   0.000000
     5  C    1.497700   2.375514   2.369818   3.218976   0.000000
     6  H    2.111218   3.057833   2.607418   3.499812   1.090996
     7  H    2.111182   3.057825   2.607273   3.499675   1.090992
     8  C    2.513073   2.802682   3.721000   4.429203   1.526328
     9  H    2.770480   2.781627   4.031467   4.620059   2.162375
    10  H    3.450322   3.875034   4.519521   5.321295   2.158253
    11  H    2.771937   2.784147   4.032387   4.621423   2.162380
                    6          7          8          9         10
     6  H    0.000000
     7  H    1.762128   0.000000
     8  C    2.158869   2.158866   0.000000
     9  H    2.503751   3.063590   1.090228   0.000000
    10  H    2.488679   2.489878   1.089511   1.771436   0.000000
    11  H    3.063581   2.502539   1.090224   1.770486   1.771419
                   11
    11  H    0.000000
 Stoichiometry    C3H6O2
 Framework group  C1[X(C3H6O2)]
 Deg. of freedom    27
 Full point group                 C1      NOp   1
 Largest Abelian subgroup         C1      NOp   1
 Largest concise Abelian subgroup C1      NOp   1
                         Standard orientation:                         
 ---------------------------------------------------------------------
 Center     Atomic      Atomic             Coordinates (Angstroms)
 Number     Number       Type             X           Y           Z
 ---------------------------------------------------------------------
      1          6           0        0.553635    0.114534   -0.000040
      2          8           0        0.579656    1.277292   -0.000020
      3          8           0        1.690057   -0.636104    0.000041
      4          1           0        2.467567   -0.052705    0.000086
      5          6           0       -0.677558   -0.738267   -0.000056
      6          1           0       -0.648166   -1.380979   -0.881151
      7          1           0       -0.648077   -1.381055    0.880977
      8          6           0       -1.959322    0.090441    0.000046
      9          1           0       -1.999562    0.726743   -0.884317
     10          1           0       -2.828919   -0.565938   -0.001635
     11          1           0       -2.001085    0.724187    0.886167
 ---------------------------------------------------------------------
 Rotational constants (GHZ):     10.5980578      3.8242227      2.9120158
 Standard basis: 6-31+G(d,p) (6D, 7F)
 There are   125 symmetry adapted basis functions of A   symmetry.
 Integral buffers will be    262144 words long.
 Raffenetti 2 integral format.
 Two-electron integral symmetry is turned on.
   125 basis functions,   202 primitive gaussians,   125 cartesian basis functions
    20 alpha electrons       20 beta electrons
       nuclear repulsion energy       179.7611682289 Hartrees.
 NAtoms=   11 NActive=   11 NUniq=   11 SFac= 7.50D-01 NAtFMM=   80 NAOKFM=F Big=F
 ------------------------------------------------------------------------------
 Polarizable Continuum Model (PCM)
 =================================
 Model                : PCM.
 Atomic radii         : SMD-Coulomb.
 Polarization charges : Total charges.
 Charge compensation  : None.
 Solution method      : Matrix inversion.
 Cavity type          : VdW (van der Waals Surface) (Alpha=1.000).
 Cavity algorithm     : GePol (No added spheres)
                        Default sphere list used, NSphG=   11.
                        Lebedev-Laikov grids with approx.  5.0 points / Ang**2.
                        Smoothing algorithm: Karplus/York (Gamma=1.0000).
                        Polarization charges: spherical gaussians, with
                                              point-specific exponents (IZeta= 3).
                        Self-potential: point-specific (ISelfS= 7).
                        Self-field    : sphere-specific E.n sum rule (ISelfD= 2).
 1st derivatives      : Analytical E(r).r(x)/FMM algorithm (CHGder, D1EAlg=3).
                        Cavity 1st derivative terms included.
 Solvent              : Water, Eps=  78.355300 Eps(inf)=   1.777849
 ------------------------------------------------------------------------------
 Spheres list:
 ISph  on   Nord    Re0     Alpha      Xe            Ye            Ze
    1   C      1    1.850   1.000      0.553635      0.114534     -0.000040
    2   O      2    1.520   1.000      0.579656      1.277292     -0.000020
    3   O      3    1.520   1.000      1.690057     -0.636104      0.000041
    4   H      4    1.200   1.000      2.467567     -0.052705      0.000086
    5   C      5    1.850   1.000     -0.677558     -0.738267     -0.000056
    6   H      6    1.200   1.000     -0.648166     -1.380979     -0.881151
    7   H      7    1.200   1.000     -0.648077     -1.381055      0.880977
    8   C      8    1.850   1.000     -1.959322      0.090441      0.000046
    9   H      9    1.200   1.000     -1.999562      0.726743     -0.884317
   10   H     10    1.200   1.000     -2.828919     -0.565938     -0.001635
   11   H     11    1.200   1.000     -2.001085      0.724187      0.886167
 ------------------------------------------------------------------------------
 ------------------------------------------------------------------------------
 Atomic radii for non-electrostatic terms: SMD-CDS.
 ------------------------------------------------------------------------------
 Nuclear repulsion after PCM non-electrostatic terms =      179.7675401090 Hartrees.
 One-electron integrals computed using PRISM.
 NBasis=   125 RedAO= T  NBF=   125
 NBsUse=   125 1.00D-06 NBFU=   125
 Initial guess read from the read-write file.
 B after Tr=     0.000000    0.000000    0.000000
         Rot=    1.000000    0.000000    0.000000    0.000000 Ang=   0.00 deg.
 Initial guess orbital symmetries:
       Occupied  (A) (A) (A) (A) (A) (A) (A) (A) (A) (A) (A) (A)
                 (A) (A) (A) (A) (A) (A) (A) (A)
       Virtual   (A) (A) (A) (A) (A) (A) (A) (A) (A) (A) (A) (A)
                 (A) (A) (A) (A) (A) (A) (A) (A) (A) (A) (A) (A)
                 (A) (A) (A) (A) (A) (A) (A) (A) (A) (A) (A) (A)
                 (A) (A) (A) (A) (A) (A) (A) (A) (A) (A) (A) (A)
                 (A) (A) (A) (A) (A) (A) (A) (A) (A) (A) (A) (A)
                 (A) (A) (A) (A) (A) (A) (A) (A) (A) (A) (A) (A)
                 (A) (A) (A) (A) (A) (A) (A) (A) (A) (A) (A) (A)
                 (A) (A) (A) (A) (A) (A) (A) (A) (A) (A) (A) (A)
                 (A) (A) (A) (A) (A) (A) (A) (A) (A)
 Harris functional with IExCor= 1009 diagonalized for initial guess.
 ExpMin= 4.38D-02 ExpMax= 5.48D+03 ExpMxC= 8.25D+02 IAcc=2 IRadAn=         0 AccDes= 0.00D+00
 HarFok:  IExCor= 1009 AccDes= 0.00D+00 IRadAn=         0 IDoV= 1
 ScaDFX=  1.000000  1.000000  1.000000  1.000000
 FoFCou: FMM=F IPFlag=           0 FMFlag=      100000 FMFlg1=           0
         NFxFlg=           0 DoJE=T BraDBF=F KetDBF=T FulRan=T
         Omega=  0.000000  0.000000  1.000000  0.000000  0.000000 ICntrl=     500 IOpCl=  0
         NMat0=    1 NMatS0=    1 NMatT0=    0 NMatD0=    1 NMtDS0=    0 NMtDT0=    0
         I1Cent=           4 NGrid=           0.
 Petite list used in FoFCou.
 Requested convergence on RMS density matrix=1.00D-08 within 128 cycles.
 Requested convergence on MAX density matrix=1.00D-06.
 Requested convergence on             energy=1.00D-06.
 No special actions if energy rises.
 Keep R1 ints in memory in canonical form, NReq=34966713.
 Error on total polarization charges =  0.04164
 SCF Done:  E(RM062X) =  -268.303859761     A.U. after   13 cycles
             Convg  =    0.2122D-08             -V/T =  2.0078
 SMD-CDS (non-electrostatic) energy             (kcal/mol) =       4.00
 (included in total energy above)
 D1PCM: PCM CHGder 1st derivatives, ID1Alg=3 FixD1E=F DoIter=F DoCFld=F I1PDM=0.
 Calling FoFJK, ICntrl=      2127 FMM=F ISym2X=0 I1Cent= 0 IOpClX= 0 NMat=1 NMatS=1 NMatT=0.
 ***** Axes restored to original set *****
 -------------------------------------------------------------------
 Center     Atomic                   Forces (Hartrees/Bohr)
 Number     Number              X              Y              Z
 -------------------------------------------------------------------
      1        6          -0.053924670    0.000000470   -0.075051314
      2        8           0.051815317    0.000010802    0.082775193
      3        8          -0.000211657   -0.000003777   -0.003622746
      4        1           0.001427897   -0.000000160    0.000455617
      5        6           0.009035454   -0.000004717   -0.005046818
      6        1          -0.003711307   -0.000937914   -0.000985148
      7        1          -0.003711033    0.000932307   -0.000996094
      8        6          -0.005423273    0.000000296    0.002758776
      9        1           0.002009710   -0.001359370    0.000514570
     10        1           0.000685157    0.000003801   -0.001334214
     11        1           0.002008404    0.001358263    0.000532179
 -------------------------------------------------------------------
 Cartesian Forces:  Max     0.082775193 RMS     0.023537525

 GradGradGradGradGradGradGradGradGradGradGradGradGradGradGradGradGradGrad
 Berny optimization.
 Using GEDIIS/GDIIS optimizer.
 Internal  Forces:  Max     0.097683490 RMS     0.014980843
 Search for a local minimum.
 Step number   3 out of a maximum of   53
 All quantities printed in internal units (Hartrees-Bohrs-Radians)
 Mixed Optimization -- RFO/linear search
 Update second derivatives using D2CorX and points    2    3
 DE= -1.25D-02 DEPred=-2.64D-02 R= 4.73D-01
 Trust test= 4.73D-01 RLast= 3.70D-01 DXMaxT set to 5.05D-01
 Use linear search instead of GDIIS.
     Eigenvalues ---    0.00237   0.00237   0.00484   0.01295   0.03977
     Eigenvalues ---    0.05236   0.05562   0.05586   0.09337   0.12742
     Eigenvalues ---    0.15950   0.16000   0.16000   0.16180   0.21858
     Eigenvalues ---    0.22159   0.25035   0.28490   0.29042   0.37229
     Eigenvalues ---    0.37230   0.37230   0.37230   0.37328   0.45201
     Eigenvalues ---    0.55522   0.749431000.000001000.000001000.00000
     Eigenvalues --- 1000.000001000.000001000.000001000.000001000.00000
     Eigenvalues --- 1000.000001000.000001000.000001000.000001000.00000
     Eigenvalues --- 1000.000001000.000001000.00000
 RFO step:  Lambda=-5.46120308D-03 EMin= 2.36824079D-03
 Quartic linear search produced a step of -0.29153.
 Iteration  1 RMS(Cart)=  0.02231254 RMS(Int)=  0.00032363
 Iteration  2 RMS(Cart)=  0.00047893 RMS(Int)=  0.00013212
 Iteration  3 RMS(Cart)=  0.00000020 RMS(Int)=  0.00013212
 Variable       Old X    -DE/DX   Delta X   Delta X   Delta X     New X
                                 (Linear)    (Quad)   (Total)
    R1        2.19784   0.09768   0.07873   0.03757   0.11631   2.31415
    R2        2.57372  -0.00128   0.00830  -0.02813  -0.01984   2.55388
    R3        2.83024   0.00464   0.00519  -0.00809  -0.00290   2.82734
    R4        1.83690  -0.00001  -0.00267   0.00469   0.00202   1.83893
    R5        2.06168   0.00252  -0.00463   0.01431   0.00968   2.07136
    R6        2.06168   0.00252  -0.00463   0.01431   0.00968   2.07136
    R7        2.88434  -0.00081   0.00660  -0.01132  -0.00472   2.87962
    R8        2.06023   0.00203  -0.00437   0.01299   0.00862   2.06885
    R9        2.05888   0.00152  -0.00430   0.01176   0.00746   2.06633
   R10        2.06022   0.00204  -0.00436   0.01300   0.00863   2.06886
    A1        2.13216   0.00157  -0.04454   0.08186   0.03732   2.16948
    A2        2.19896   0.00182   0.05067  -0.08554  -0.03487   2.16408
    A3        1.95207  -0.00339  -0.00613   0.00368  -0.00245   1.94962
    A4        1.91413  -0.00287  -0.00899  -0.00441  -0.01341   1.90072
    A5        1.88947  -0.00116  -0.00180  -0.01010  -0.01226   1.87721
    A6        1.88942  -0.00116  -0.00179  -0.01018  -0.01232   1.87710
    A7        1.96187  -0.00070  -0.00817   0.02352   0.01523   1.97710
    A8        1.88007  -0.00153   0.00848  -0.04793  -0.03973   1.84034
    A9        1.92040   0.00221   0.00180   0.02032   0.02223   1.94263
   A10        1.92040   0.00221   0.00180   0.02029   0.02219   1.94259
   A11        1.92605   0.00174  -0.00196   0.01403   0.01203   1.93808
   A12        1.92108  -0.00056  -0.00337   0.00195  -0.00139   1.91969
   A13        1.92606   0.00173  -0.00196   0.01402   0.01201   1.93807
   A14        1.89748  -0.00084   0.00225  -0.01039  -0.00812   1.88936
   A15        1.89508  -0.00132   0.00293  -0.01012  -0.00730   1.88778
   A16        1.89746  -0.00083   0.00225  -0.01037  -0.00810   1.88936
    D1       -0.00003   0.00000   0.00001  -0.00007  -0.00007  -0.00010
    D2       -3.14155   0.00000  -0.00001   0.00015   0.00014  -3.14142
    D3        2.12482   0.00152  -0.00409   0.03455   0.03020   2.15503
    D4       -2.12492  -0.00153   0.00400  -0.03283  -0.02857  -2.15349
    D5       -0.00006   0.00000  -0.00004   0.00081   0.00077   0.00071
    D6       -1.01684   0.00153  -0.00406   0.03433   0.03000  -0.98684
    D7        1.01660  -0.00152   0.00402  -0.03305  -0.02877   0.98784
    D8        3.14146   0.00000  -0.00002   0.00059   0.00057  -3.14116
    D9        1.04563   0.00030   0.00051   0.00466   0.00520   1.05083
   D10        3.13997   0.00001  -0.00006   0.00194   0.00188  -3.14134
   D11       -1.04890  -0.00029  -0.00063  -0.00077  -0.00144  -1.05034
   D12       -1.06155   0.00071   0.00692  -0.01239  -0.00555  -1.06710
   D13        1.03278   0.00041   0.00635  -0.01511  -0.00887   1.02391
   D14        3.12710   0.00012   0.00578  -0.01782  -0.01219   3.11491
   D15       -3.13043  -0.00011  -0.00589   0.02159   0.01584  -3.11459
   D16       -1.03610  -0.00041  -0.00646   0.01886   0.01252  -1.02358
   D17        1.05822  -0.00070  -0.00703   0.01615   0.00920   1.06742
         Item               Value     Threshold  Converged?
 Maximum Force            0.097683     0.000450     NO 
 RMS     Force            0.014981     0.000300     NO 
 Maximum Displacement     0.076605     0.001800     NO 
 RMS     Displacement     0.022303     0.001200     NO 
 Predicted change in Energy=-6.368308D-03
 GradGradGradGradGradGradGradGradGradGradGradGradGradGradGradGradGradGrad

                          Input orientation:                          
 ---------------------------------------------------------------------
 Center     Atomic      Atomic             Coordinates (Angstroms)
 Number     Number       Type             X           Y           Z
 ---------------------------------------------------------------------
      1          6           0       -0.123204    0.117884    0.000211
      2          8           0        0.550695    0.119283    1.022705
      3          8           0       -1.474486    0.117028   -0.021357
      4          1           0       -1.804406    0.117616    0.894127
      5          6           0        0.452230    0.117290   -1.380869
      6          1           0        0.048079   -0.755206   -1.907067
      7          1           0        0.047736    0.989160   -1.907835
      8          6           0        1.975957    0.117615   -1.398430
      9          1           0        2.375094   -0.768769   -0.894865
     10          1           0        2.337901    0.117413   -2.430246
     11          1           0        2.374702    1.004455   -0.895350
 ---------------------------------------------------------------------
                    Distance matrix (angstroms):
                    1          2          3          4          5
     1  C    0.000000
     2  O    1.224596   0.000000
     3  O    1.351454   2.278471   0.000000
     4  H    1.904081   2.358609   0.973118   0.000000
     5  C    1.496164   2.405590   2.358073   3.204374   0.000000
     6  H    2.104598   3.098535   2.575830   3.469901   1.096117
     7  H    2.104515   3.098019   2.576155   3.470016   1.096115
     8  C    2.522435   2.809497   3.715090   4.421195   1.523828
     9  H    2.798001   2.791799   4.045605   4.631889   2.172258
    10  H    3.458925   3.888056   4.509661   5.311324   2.157996
    11  H    2.797781   2.790962   4.045694   4.631809   2.172254
                    6          7          8          9         10
     6  H    0.000000
     7  H    1.744367   0.000000
     8  C    2.176521   2.176493   0.000000
     9  H    2.537663   3.087560   1.094791   0.000000
    10  H    2.505687   2.505537   1.093457   1.773161   0.000000
    11  H    3.087581   2.537742   1.094793   1.773225   1.773162
                   11
    11  H    0.000000
 Stoichiometry    C3H6O2
 Framework group  C1[X(C3H6O2)]
 Deg. of freedom    27
 Full point group                 C1      NOp   1
 Largest Abelian subgroup         C1      NOp   1
 Largest concise Abelian subgroup C1      NOp   1
                         Standard orientation:                         
 ---------------------------------------------------------------------
 Center     Atomic      Atomic             Coordinates (Angstroms)
 Number     Number       Type             X           Y           Z
 ---------------------------------------------------------------------
      1          6           0       -0.566401    0.103757    0.000035
      2          8           0       -0.557625    1.328321   -0.000127
      3          8           0       -1.688234   -0.649847    0.000162
      4          1           0       -2.463303   -0.061435    0.000190
      5          6           0        0.668053   -0.741601   -0.000262
      6          1           0        0.615453   -1.403885    0.871568
      7          1           0        0.615533   -1.402954   -0.872799
      8          6           0        1.955847    0.073040    0.000199
      9          1           0        2.016610    0.711830    0.887228
     10          1           0        2.821099   -0.595530   -0.000299
     11          1           0        2.016494    0.713002   -0.885996
 ---------------------------------------------------------------------
 Rotational constants (GHZ):     10.0707098      3.8440738      2.8810127
 Standard basis: 6-31+G(d,p) (6D, 7F)
 There are   125 symmetry adapted basis functions of A   symmetry.
 Integral buffers will be    262144 words long.
 Raffenetti 2 integral format.
 Two-electron integral symmetry is turned on.
   125 basis functions,   202 primitive gaussians,   125 cartesian basis functions
    20 alpha electrons       20 beta electrons
       nuclear repulsion energy       178.1198222257 Hartrees.
 NAtoms=   11 NActive=   11 NUniq=   11 SFac= 7.50D-01 NAtFMM=   80 NAOKFM=F Big=F
 ------------------------------------------------------------------------------
 Polarizable Continuum Model (PCM)
 =================================
 Model                : PCM.
 Atomic radii         : SMD-Coulomb.
 Polarization charges : Total charges.
 Charge compensation  : None.
 Solution method      : Matrix inversion.
 Cavity type          : VdW (van der Waals Surface) (Alpha=1.000).
 Cavity algorithm     : GePol (No added spheres)
                        Default sphere list used, NSphG=   11.
                        Lebedev-Laikov grids with approx.  5.0 points / Ang**2.
                        Smoothing algorithm: Karplus/York (Gamma=1.0000).
                        Polarization charges: spherical gaussians, with
                                              point-specific exponents (IZeta= 3).
                        Self-potential: point-specific (ISelfS= 7).
                        Self-field    : sphere-specific E.n sum rule (ISelfD= 2).
 1st derivatives      : Analytical E(r).r(x)/FMM algorithm (CHGder, D1EAlg=3).
                        Cavity 1st derivative terms included.
 Solvent              : Water, Eps=  78.355300 Eps(inf)=   1.777849
 ------------------------------------------------------------------------------
 Spheres list:
 ISph  on   Nord    Re0     Alpha      Xe            Ye            Ze
    1   C      1    1.850   1.000     -0.566401      0.103757      0.000035
    2   O      2    1.520   1.000     -0.557625      1.328321     -0.000127
    3   O      3    1.520   1.000     -1.688234     -0.649847      0.000162
    4   H      4    1.200   1.000     -2.463303     -0.061435      0.000190
    5   C      5    1.850   1.000      0.668053     -0.741601     -0.000262
    6   H      6    1.200   1.000      0.615453     -1.403885      0.871568
    7   H      7    1.200   1.000      0.615533     -1.402954     -0.872799
    8   C      8    1.850   1.000      1.955847      0.073040      0.000199
    9   H      9    1.200   1.000      2.016610      0.711830      0.887228
   10   H     10    1.200   1.000      2.821099     -0.595530     -0.000299
   11   H     11    1.200   1.000      2.016494      0.713002     -0.885996
 ------------------------------------------------------------------------------
 ------------------------------------------------------------------------------
 Atomic radii for non-electrostatic terms: SMD-CDS.
 ------------------------------------------------------------------------------
 Nuclear repulsion after PCM non-electrostatic terms =      178.1261715217 Hartrees.
 One-electron integrals computed using PRISM.
 NBasis=   125 RedAO= T  NBF=   125
 NBsUse=   125 1.00D-06 NBFU=   125
 Initial guess read from the read-write file.
 B after Tr=     0.000000    0.000000    0.000000
         Rot=    1.000000    0.000000    0.000000    0.000000 Ang=   0.00 deg.
 Initial guess orbital symmetries:
       Occupied  (A) (A) (A) (A) (A) (A) (A) (A) (A) (A) (A) (A)
                 (A) (A) (A) (A) (A) (A) (A) (A)
       Virtual   (A) (A) (A) (A) (A) (A) (A) (A) (A) (A) (A) (A)
                 (A) (A) (A) (A) (A) (A) (A) (A) (A) (A) (A) (A)
                 (A) (A) (A) (A) (A) (A) (A) (A) (A) (A) (A) (A)
                 (A) (A) (A) (A) (A) (A) (A) (A) (A) (A) (A) (A)
                 (A) (A) (A) (A) (A) (A) (A) (A) (A) (A) (A) (A)
                 (A) (A) (A) (A) (A) (A) (A) (A) (A) (A) (A) (A)
                 (A) (A) (A) (A) (A) (A) (A) (A) (A) (A) (A) (A)
                 (A) (A) (A) (A) (A) (A) (A) (A) (A) (A) (A) (A)
                 (A) (A) (A) (A) (A) (A) (A) (A) (A)
 Harris functional with IExCor= 1009 diagonalized for initial guess.
 ExpMin= 4.38D-02 ExpMax= 5.48D+03 ExpMxC= 8.25D+02 IAcc=2 IRadAn=         0 AccDes= 0.00D+00
 HarFok:  IExCor= 1009 AccDes= 0.00D+00 IRadAn=         0 IDoV= 1
 ScaDFX=  1.000000  1.000000  1.000000  1.000000
 FoFCou: FMM=F IPFlag=           0 FMFlag=      100000 FMFlg1=           0
         NFxFlg=           0 DoJE=T BraDBF=F KetDBF=T FulRan=T
         Omega=  0.000000  0.000000  1.000000  0.000000  0.000000 ICntrl=     500 IOpCl=  0
         NMat0=    1 NMatS0=    1 NMatT0=    0 NMatD0=    1 NMtDS0=    0 NMtDT0=    0
         I1Cent=           4 NGrid=           0.
 Petite list used in FoFCou.
 Requested convergence on RMS density matrix=1.00D-08 within 128 cycles.
 Requested convergence on MAX density matrix=1.00D-06.
 Requested convergence on             energy=1.00D-06.
 No special actions if energy rises.
 Keep R1 ints in memory in canonical form, NReq=34970050.
 Error on total polarization charges =  0.04201
 SCF Done:  E(RM062X) =  -268.308206207     A.U. after   13 cycles
             Convg  =    0.3356D-08             -V/T =  2.0089
 SMD-CDS (non-electrostatic) energy             (kcal/mol) =       3.98
 (included in total energy above)
 D1PCM: PCM CHGder 1st derivatives, ID1Alg=3 FixD1E=F DoIter=F DoCFld=F I1PDM=0.
 Calling FoFJK, ICntrl=      2127 FMM=F ISym2X=0 I1Cent= 0 IOpClX= 0 NMat=1 NMatS=1 NMatT=0.
 ***** Axes restored to original set *****
 -------------------------------------------------------------------
 Center     Atomic                   Forces (Hartrees/Bohr)
 Number     Number              X              Y              Z
 -------------------------------------------------------------------
      1        6           0.005679680    0.000036816    0.001714061
      2        8          -0.015232019   -0.000029006   -0.006038786
      3        8           0.009740634    0.000003721    0.007474622
      4        1          -0.000872403    0.000000130    0.000302359
      5        6           0.002752168   -0.000017916   -0.005925091
      6        1          -0.000000433   -0.000334624    0.000939362
      7        1          -0.000002962    0.000340660    0.000937355
      8        6          -0.000735771    0.000003315    0.000919406
      9        1          -0.000464497    0.000794078   -0.000549468
     10        1          -0.000400463   -0.000001105    0.000781193
     11        1          -0.000463935   -0.000796069   -0.000555013
 -------------------------------------------------------------------
 Cartesian Forces:  Max     0.015232019 RMS     0.003909646

 GradGradGradGradGradGradGradGradGradGradGradGradGradGradGradGradGradGrad
 Berny optimization.
 Using GEDIIS/GDIIS optimizer.
 Internal  Forces:  Max     0.013404768 RMS     0.003607325
 Search for a local minimum.
 Step number   4 out of a maximum of   53
 All quantities printed in internal units (Hartrees-Bohrs-Radians)
 Mixed Optimization -- RFO/linear search
 Update second derivatives using D2CorX and points    2    3    4
 DE= -4.35D-03 DEPred=-6.37D-03 R= 6.83D-01
 SS=  1.41D+00  RLast= 1.58D-01 DXNew= 8.4853D-01 4.7394D-01
 Trust test= 6.83D-01 RLast= 1.58D-01 DXMaxT set to 5.05D-01
 Use linear search instead of GDIIS.
     Eigenvalues ---    0.00237   0.00237   0.00503   0.01295   0.03789
     Eigenvalues ---    0.04770   0.05438   0.05551   0.09476   0.12891
     Eigenvalues ---    0.15690   0.16000   0.16001   0.16273   0.21505
     Eigenvalues ---    0.22305   0.25961   0.28502   0.30106   0.37196
     Eigenvalues ---    0.37230   0.37230   0.37230   0.37530   0.43268
     Eigenvalues ---    0.55469   1.002331000.000001000.000001000.00000
     Eigenvalues --- 1000.000001000.000001000.000001000.000001000.00000
     Eigenvalues --- 1000.000001000.000001000.000001000.000001000.00000
     Eigenvalues --- 1000.000001000.000001000.00000
 RFO step:  Lambda=-1.04812083D-03 EMin= 2.36823514D-03
 Quartic linear search produced a step of -0.18971.
 Iteration  1 RMS(Cart)=  0.01630473 RMS(Int)=  0.00025043
 Iteration  2 RMS(Cart)=  0.00026082 RMS(Int)=  0.00003226
 Iteration  3 RMS(Cart)=  0.00000005 RMS(Int)=  0.00003226
 Variable       Old X    -DE/DX   Delta X   Delta X   Delta X     New X
                                 (Linear)    (Quad)   (Total)
    R1        2.31415  -0.01340  -0.02206   0.01021  -0.01185   2.30230
    R2        2.55388  -0.00905   0.00376  -0.01280  -0.00903   2.54484
    R3        2.82734   0.00352   0.00055   0.01106   0.01161   2.83895
    R4        1.83893   0.00062  -0.00038   0.00027  -0.00012   1.83881
    R5        2.07136  -0.00018  -0.00184  -0.00061  -0.00244   2.06892
    R6        2.07136  -0.00018  -0.00184  -0.00060  -0.00243   2.06892
    R7        2.87962  -0.00213   0.00090  -0.00442  -0.00353   2.87609
    R8        2.06885  -0.00109  -0.00164  -0.00234  -0.00397   2.06488
    R9        2.06633  -0.00084  -0.00141  -0.00199  -0.00340   2.06293
   R10        2.06886  -0.00109  -0.00164  -0.00234  -0.00398   2.06488
    A1        2.16948  -0.01340  -0.00708  -0.04311  -0.05019   2.11930
    A2        2.16408   0.00825   0.00662   0.03112   0.03774   2.20182
    A3        1.94962   0.00515   0.00046   0.01199   0.01245   1.96207
    A4        1.90072   0.00121   0.00254   0.00239   0.00494   1.90566
    A5        1.87721  -0.00049   0.00233  -0.00748  -0.00513   1.87207
    A6        1.87710  -0.00049   0.00234  -0.00745  -0.00509   1.87201
    A7        1.97710   0.00015  -0.00289  -0.00619  -0.00913   1.96797
    A8        1.84034   0.00043   0.00754   0.01852   0.02613   1.86647
    A9        1.94263   0.00019  -0.00422   0.00188  -0.00241   1.94022
   A10        1.94259   0.00019  -0.00421   0.00190  -0.00238   1.94021
   A11        1.93808  -0.00003  -0.00228   0.00000  -0.00228   1.93580
   A12        1.91969  -0.00025   0.00026  -0.00231  -0.00205   1.91765
   A13        1.93807  -0.00003  -0.00228   0.00000  -0.00227   1.93580
   A14        1.88936   0.00009   0.00154   0.00045   0.00198   1.89135
   A15        1.88778   0.00014   0.00138   0.00150   0.00291   1.89068
   A16        1.88936   0.00009   0.00154   0.00044   0.00197   1.89134
    D1       -0.00010   0.00001   0.00001   0.00096   0.00093   0.00084
    D2       -3.14142  -0.00001  -0.00003  -0.00106  -0.00104   3.14073
    D3        2.15503  -0.00002  -0.00573  -0.01188  -0.01756   2.13747
    D4       -2.15349   0.00001   0.00542   0.00232   0.00766  -2.14583
    D5        0.00071  -0.00001  -0.00015  -0.00476  -0.00492  -0.00421
    D6       -0.98684  -0.00001  -0.00569  -0.00988  -0.01549  -1.00233
    D7        0.98784   0.00002   0.00546   0.00432   0.00973   0.99756
    D8       -3.14116   0.00000  -0.00011  -0.00276  -0.00285   3.13918
    D9        1.05083   0.00007  -0.00099  -0.00851  -0.00951   1.04132
   D10       -3.14134   0.00000  -0.00036  -0.00946  -0.00982   3.13202
   D11       -1.05034  -0.00007   0.00027  -0.01042  -0.01014  -1.06048
   D12       -1.06710   0.00046   0.00105   0.00430   0.00536  -1.06174
   D13        1.02391   0.00039   0.00168   0.00335   0.00505   1.02896
   D14        3.11491   0.00032   0.00231   0.00240   0.00473   3.11964
   D15       -3.11459  -0.00032  -0.00301  -0.02127  -0.02430  -3.13889
   D16       -1.02358  -0.00039  -0.00237  -0.02222  -0.02461  -1.04819
   D17        1.06742  -0.00046  -0.00175  -0.02317  -0.02493   1.04249
         Item               Value     Threshold  Converged?
 Maximum Force            0.013405     0.000450     NO 
 RMS     Force            0.003607     0.000300     NO 
 Maximum Displacement     0.071022     0.001800     NO 
 RMS     Displacement     0.016303     0.001200     NO 
 Predicted change in Energy=-6.315919D-04
 GradGradGradGradGradGradGradGradGradGradGradGradGradGradGradGradGradGrad

                          Input orientation:                          
 ---------------------------------------------------------------------
 Center     Atomic      Atomic             Coordinates (Angstroms)
 Number     Number       Type             X           Y           Z
 ---------------------------------------------------------------------
      1          6           0       -0.120639    0.116419   -0.007364
      2          8           0        0.513111    0.110917    1.033138
      3          8           0       -1.467309    0.119354   -0.009286
      4          1           0       -1.788412    0.117179    0.909259
      5          6           0        0.454273    0.118310   -1.395314
      6          1           0        0.056685   -0.760739   -1.912844
      7          1           0        0.056602    0.998753   -1.910409
      8          6           0        1.976220    0.118402   -1.402126
      9          1           0        2.368610   -0.763207   -0.889523
     10          1           0        2.342716    0.109973   -2.430388
     11          1           0        2.368440    1.008410   -0.904117
 ---------------------------------------------------------------------
                    Distance matrix (angstroms):
                    1          2          3          4          5
     1  C    0.000000
     2  O    1.218325   0.000000
     3  O    1.346674   2.238031   0.000000
[...]
 Vib (V=0)    4  0.110906D+01          0.044955          0.103513
 Vib (V=0)    5  0.109840D+01          0.040759          0.093851
 Vib (V=0)    6  0.105665D+01          0.023933          0.055107
 Electronic      0.100000D+01          0.000000          0.000000
 Translational   0.250395D+08          7.398626         17.035967
 Rotational      0.816975D+05          4.912209         11.310778
 ***** Axes restored to original set *****
 -------------------------------------------------------------------
 Center     Atomic                   Forces (Hartrees/Bohr)
 Number     Number              X              Y              Z
 -------------------------------------------------------------------
      1        6           0.000002709   -0.000027361   -0.000013767
      2        8          -0.000039236    0.000010656   -0.000006591
      3        8          -0.000021823    0.000009775   -0.000028350
      4        1          -0.000025601    0.000001159   -0.000043974
      5        6           0.000015369   -0.000000483   -0.000003937
      6        1           0.000011388   -0.000001887   -0.000012895
      7        1           0.000012232    0.000004963   -0.000010026
      8        6           0.000005444   -0.000000629    0.000022836
      9        1           0.000007110    0.000000085    0.000029415
     10        1           0.000025323    0.000000709    0.000034582
     11        1           0.000007084    0.000003013    0.000032707
 -------------------------------------------------------------------
 Cartesian Forces:  Max     0.000043974 RMS     0.000018964

 GradGradGradGradGradGradGradGradGradGradGradGradGradGradGradGradGradGrad
 Berny optimization.
 Internal  Forces:  Max     0.000009029 RMS     0.000004821
 Search for a local minimum.
 Step number   1 out of a maximum of    2
 All quantities printed in internal units (Hartrees-Bohrs-Radians)
 Second derivative matrix not updated -- analytic derivatives used.
     Eigenvalues ---    0.00201   0.00294   0.01564   0.03454   0.04014
     Eigenvalues ---    0.04487   0.04507   0.05231   0.07681   0.10874
     Eigenvalues ---    0.12352   0.14461   0.14895   0.16158   0.21304
     Eigenvalues ---    0.21867   0.25954   0.32229   0.34208   0.34633
     Eigenvalues ---    0.34711   0.34818   0.35432   0.36982   0.41110
     Eigenvalues ---    0.51849   0.854441000.000001000.000001000.00000
     Eigenvalues --- 1000.000001000.000001000.000001000.000001000.00000
     Eigenvalues --- 1000.000001000.000001000.000001000.000001000.00000
     Eigenvalues --- 1000.000001000.000001000.00000
 Angle between quadratic step and forces=  50.68 degrees.
 Linear search not attempted -- first point.
 Iteration  1 RMS(Cart)=  0.00011753 RMS(Int)=  0.00000001
 Iteration  2 RMS(Cart)=  0.00000001 RMS(Int)=  0.00000000
 Variable       Old X    -DE/DX   Delta X   Delta X   Delta X     New X
                                 (Linear)    (Quad)   (Total)
    R1        2.30122  -0.00001   0.00000  -0.00001  -0.00001   2.30121
    R2        2.53845   0.00001   0.00000   0.00003   0.00003   2.53848
    R3        2.83677   0.00000   0.00000  -0.00001  -0.00001   2.83676
    R4        1.83913   0.00000   0.00000  -0.00001  -0.00001   1.83913
    R5        2.07018   0.00001   0.00000   0.00001   0.00001   2.07019
    R6        2.07017   0.00001   0.00000   0.00002   0.00002   2.07019
    R7        2.87229   0.00000   0.00000   0.00000   0.00000   2.87229
    R8        2.06572   0.00000   0.00000   0.00001   0.00001   2.06573
    R9        2.06413  -0.00001   0.00000  -0.00001  -0.00001   2.06412
   R10        2.06571   0.00001   0.00000   0.00002   0.00002   2.06573
    A1        2.12718  -0.00001   0.00000  -0.00003  -0.00003   2.12714
    A2        2.19194   0.00000   0.00000   0.00002   0.00002   2.19196
    A3        1.96407   0.00000   0.00000   0.00002   0.00002   1.96408
    A4        1.90385   0.00000   0.00000  -0.00003  -0.00003   1.90382
    A5        1.86823   0.00000   0.00000   0.00005   0.00005   1.86828
    A6        1.86836   0.00000   0.00000  -0.00009  -0.00009   1.86827
    A7        1.97011  -0.00001   0.00000  -0.00003  -0.00003   1.97008
    A8        1.85433   0.00000   0.00000  -0.00003  -0.00003   1.85431
    A9        1.94814   0.00001   0.00000   0.00008   0.00008   1.94822
   A10        1.94821   0.00000   0.00000   0.00001   0.00001   1.94822
   A11        1.93809   0.00001   0.00000   0.00005   0.00005   1.93815
   A12        1.91908   0.00000   0.00000   0.00000   0.00000   1.91907
   A13        1.93813   0.00000   0.00000   0.00002   0.00002   1.93814
   A14        1.88846   0.00000   0.00000  -0.00002  -0.00002   1.88844
   A15        1.89012  -0.00001   0.00000  -0.00003  -0.00003   1.89009
   A16        1.88846   0.00000   0.00000  -0.00002  -0.00002   1.88844
    D1        0.00006   0.00000   0.00000  -0.00006  -0.00006   0.00000
    D2        3.14142   0.00001   0.00000   0.00018   0.00018  -3.14158
    D3        2.15023   0.00001   0.00000   0.00021   0.00021   2.15044
    D4       -2.15058   0.00000   0.00000   0.00016   0.00016  -2.15042
    D5       -0.00008   0.00000   0.00000   0.00009   0.00009   0.00001
    D6       -0.99111   0.00000   0.00000  -0.00004  -0.00004  -0.99116
    D7        0.99126  -0.00001   0.00000  -0.00009  -0.00009   0.99117
    D8       -3.14143  -0.00001   0.00000  -0.00016  -0.00016  -3.14159
    D9        1.05195   0.00000   0.00000   0.00017   0.00017   1.05213
   D10        3.14144   0.00000   0.00000   0.00018   0.00018  -3.14156
   D11       -1.05224   0.00000   0.00000   0.00017   0.00017  -1.05207
   D12       -1.05334   0.00000   0.00000   0.00007   0.00007  -1.05327
   D13        1.03615   0.00000   0.00000   0.00008   0.00008   1.03623
   D14        3.12566   0.00000   0.00000   0.00006   0.00006   3.12572
   D15       -3.12572   0.00000   0.00000   0.00004   0.00004  -3.12568
   D16       -1.03623   0.00000   0.00000   0.00005   0.00005  -1.03618
   D17        1.05328   0.00000   0.00000   0.00004   0.00004   1.05332
         Item               Value     Threshold  Converged?
 Maximum Force            0.000009     0.000450     YES
 RMS     Force            0.000005     0.000300     YES
 Maximum Displacement     0.000350     0.001800     YES
 RMS     Displacement     0.000118     0.001200     YES
 Predicted change in Energy=-5.399696D-09
 Optimization completed.
    -- Stationary point found.
                           ----------------------------
                           !   Optimized Parameters   !
                           ! (Angstroms and Degrees)  !
 --------------------------                            --------------------------
 ! Name  Definition              Value          Derivative Info.                !
 --------------------------------------------------------------------------------
 ! R1    R(1,2)                  1.2178         -DE/DX =    0.0                 !
 ! R2    R(1,3)                  1.3433         -DE/DX =    0.0                 !
 ! R3    R(1,5)                  1.5012         -DE/DX =    0.0                 !
 ! R4    R(3,4)                  0.9732         -DE/DX =    0.0                 !
 ! R5    R(5,6)                  1.0955         -DE/DX =    0.0                 !
 ! R6    R(5,7)                  1.0955         -DE/DX =    0.0                 !
 ! R7    R(5,8)                  1.5199         -DE/DX =    0.0                 !
 ! R8    R(8,9)                  1.0931         -DE/DX =    0.0                 !
 ! R9    R(8,10)                 1.0923         -DE/DX =    0.0                 !
 ! R10   R(8,11)                 1.0931         -DE/DX =    0.0                 !
 ! A1    A(2,1,3)              121.8782         -DE/DX =    0.0                 !
 ! A2    A(2,1,5)              125.5891         -DE/DX =    0.0                 !
 ! A3    A(3,1,5)              112.5327         -DE/DX =    0.0                 !
 ! A4    A(1,3,4)              109.0826         -DE/DX =    0.0                 !
 ! A5    A(1,5,6)              107.0415         -DE/DX =    0.0                 !
 ! A6    A(1,5,7)              107.0491         -DE/DX =    0.0                 !
 ! A7    A(1,5,8)              112.8789         -DE/DX =    0.0                 !
 ! A8    A(6,5,7)              106.2454         -DE/DX =    0.0                 !
 ! A9    A(6,5,8)              111.6199         -DE/DX =    0.0                 !
 ! A10   A(7,5,8)              111.6241         -DE/DX =    0.0                 !
 ! A11   A(5,8,9)              111.0446         -DE/DX =    0.0                 !
 ! A12   A(5,8,10)             109.955          -DE/DX =    0.0                 !
 ! A13   A(5,8,11)             111.0465         -DE/DX =    0.0                 !
 ! A14   A(9,8,10)             108.2007         -DE/DX =    0.0                 !
 ! A15   A(9,8,11)             108.296          -DE/DX =    0.0                 !
 ! A16   A(10,8,11)            108.2008         -DE/DX =    0.0                 !
 ! D1    D(2,1,3,4)              0.0036         -DE/DX =    0.0                 !
 ! D2    D(5,1,3,4)           -180.0099         -DE/DX =    0.0                 !
 ! D3    D(2,1,5,6)            123.1993         -DE/DX =    0.0                 !
 ! D4    D(2,1,5,7)           -123.2194         -DE/DX =    0.0                 !
 ! D5    D(2,1,5,8)             -0.0047         -DE/DX =    0.0                 !
 ! D6    D(3,1,5,6)            -56.7865         -DE/DX =    0.0                 !
 ! D7    D(3,1,5,7)             56.7948         -DE/DX =    0.0                 !
 ! D8    D(3,1,5,8)           -179.9906         -DE/DX =    0.0                 !
 ! D9    D(1,5,8,9)             60.2725         -DE/DX =    0.0                 !
 ! D10   D(1,5,8,10)          -180.0087         -DE/DX =    0.0                 !
 ! D11   D(1,5,8,11)           -60.2886         -DE/DX =    0.0                 !
 ! D12   D(6,5,8,9)            -60.3517         -DE/DX =    0.0                 !
 ! D13   D(6,5,8,10)            59.3671         -DE/DX =    0.0                 !
 ! D14   D(6,5,8,11)           179.0872         -DE/DX =    0.0                 !
 ! D15   D(7,5,8,9)           -179.0904         -DE/DX =    0.0                 !
 ! D16   D(7,5,8,10)           -59.3716         -DE/DX =    0.0                 !
 ! D17   D(7,5,8,11)            60.3485         -DE/DX =    0.0                 !
 --------------------------------------------------------------------------------
 GradGradGradGradGradGradGradGradGradGradGradGradGradGradGradGradGradGrad

 1|1|UNPC-DESKTOP-319GPER|Freq|RM062X|6-31+G(d,p)|C3H6O2|SAGAD|24-Jan-2
 021|0||#N Geom=AllCheck Guess=TCheck SCRF=Check GenChk RM062X/6-31+G(d
 ,p) Freq||propa ne acid m062x||0,1|C,-0.1225998441,0.1179108156,-0.008
 4864164|O,0.5181867737,0.1184897031,1.0270391594|O,-1.4658865346,0.117
 3880618,-0.0115074483|H,-1.7861320005,0.1176150175,0.9075220555|C,0.45
 57748189,0.1173652048,-1.3937478434|H,0.0503855148,-0.7593631713,-1.91
 05698461|H,0.0498989246,0.9932470988,-1.9116126354|C,1.975712049,0.117
 7207364,-1.3995141601|H,2.3703759732,-0.767892222,-0.8946676508|H,2.34
 45936959,0.1171455785,-2.4276315607|H,2.3699889291,1.0041435268,-0.895
 7984338||Version=IA32W-G09RevA.02|State=1-A|HF=-268.3088787|RMSD=2.318
 e-009|RMSF=1.896e-005|ZeroPoint=0.0908964|Thermal=0.0964929|Dipole=-0.
 5579407,-0.0006026,-0.8350063|DipoleDeriv=2.6044949,0.000913,0.4173487
 ,0.0009533,0.4085288,0.0008941,0.3674706,0.0009153,2.0823818,-1.225484
 6,-0.0003765,-0.2970581,-0.0004632,-0.5158655,-0.0005122,-0.6353495,-0
 .0007335,-1.624714,-1.9795895,-0.0005132,-0.114877,-0.0004458,-0.52623
 9,-0.0001233,0.3081344,0.0000256,-0.6649148,0.4388831,-0.0000242,-0.05
 10319,-0.0000621,0.4639933,-0.0000512,-0.0802648,-0.0000728,0.3567078,
 0.0619547,-0.0000301,-0.0164575,0.0000355,0.0760553,-0.0003174,0.06713
 21,-0.0002171,-0.3551504,0.0140717,-0.0788904,0.0182433,-0.0811581,0.0
 163272,-0.076291,-0.0114113,-0.0415079,0.077497,0.013993,0.0789137,0.0
 180926,0.0811358,0.0165741,0.0763993,-0.0115287,0.0415856,0.0773836,0.
 0401722,-0.0000008,0.0002453,0.0000091,0.0996437,-0.0000066,0.0188276,
 -0.0000076,0.0663722,0.0054195,0.0455981,-0.0232903,0.0847805,-0.07361
 02,0.0927796,-0.0620286,0.1019323,0.0554002,0.0206115,0.0000103,0.0719
 766,0.0000423,0.1085088,-0.0001396,0.1008966,-0.0001225,-0.1266146,0.0
 054735,-0.0455999,-0.0231917,-0.0848274,-0.0739166,-0.0926316,-0.06187
 86,-0.1017974,0.0556513|Polar=60.5397439,0.0064892,45.343574,3.4838367
 ,0.0074372,61.0749995|PG=C01 [X(C3H6O2)]|NImag=0||0.62951250,0.0001724
 1,0.23814874,0.12777813,0.00030290,0.89687564,-0.24030553,-0.00014773,
 -0.25829111,0.31701924,-0.00013713,-0.07670515,-0.00025860,0.00021607,
 0.02892112,-0.22580621,-0.00025304,-0.55627222,0.32282207,0.00032825,0
 .61034609,-0.24329477,-0.00005353,0.02300518,-0.09512821,-0.00007168,-
 0.07339895,0.45400116,-0.00005623,-0.06742223,-0.00001601,-0.00006860,
 0.02804686,-0.00003521,0.00010811,0.03673233,0.02908881,-0.00001443,-0
 .13030301,-0.06561385,-0.00003258,0.00466072,-0.11639055,0.00016693,0.
 59059780,-0.02787450,0.00000959,0.05205529,0.00771452,0.00000425,-0.00
 030631,-0.08225368,0.00000975,0.10433324,0.10749311,-0.00000634,0.0015
 4782,0.00002013,0.00000099,-0.00482471,-0.00000043,0.00002744,-0.01173
 059,-0.00012497,-0.00001896,0.01015980,0.00997064,0.00000096,0.0017506
 3,-0.00595448,-0.00000135,-0.00453322,0.15197485,-0.00010730,-0.456625
 54,-0.15446553,0.00010795,0.45627935,-0.10418168,0.00002054,0.05263764
 ,0.00904041,-0.00001380,-0.02625713,-0.02786042,0.00000575,0.04193070,
 -0.00532270,-0.00000266,-0.00025924,0.54826570,0.00002801,-0.09558020,
 -0.00003031,-0.00000675,0.02726688,-0.00003662,-0.00000948,0.01237583,
 0.00000580,-0.00000494,0.00362755,0.00000037,0.00000712,0.57003192,0.0
 5386700,-0.00001465,-0.18303100,-0.00225685,-0.00003695,-0.04439621,0.
 00889758,-0.00000796,-0.00268018,-0.00267321,-0.00000279,0.00263304,0.
 02795163,-0.00005077,0.51888410,0.00362181,0.01255400,0.00053112,0.000
 73128,-0.00193822,0.00269883,-0.00201814,-0.00090016,0.00160462,0.0003
 2454,0.00004213,-0.00042868,-0.08004389,-0.07916115,-0.04262716,0.0892
 8465,-0.00004762,0.00034925,0.00122470,0.00052129,-0.00097888,0.001151
 54,-0.00008842,0.00042069,0.00022199,0.00018472,0.00021647,-0.00010970
 ,-0.07907909,-0.22069727,-0.10649143,0.08646417,0.23644136,-0.01259151
 ,-0.02941280,-0.01512292,0.00199208,0.00407939,-0.00567222,-0.00004027
 ,0.00198567,0.00079172,-0.00017249,0.00081926,0.00012484,-0.04374402,-
 0.10755374,-0.10637772,0.04778693,0.11451249,0.11563678,0.00362928,-0.
 01255121,0.00054391,0.00073042,0.00194167,0.00269849,-0.00201821,0.000
 90066,0.00160247,0.00032462,-0.00004211,-0.00042857,-0.08013669,0.0791
 9356,-0.04277837,0.00332170,-0.00845877,0.00559563,0.08938066,0.000034
 19,0.00037518,-0.00124420,-0.00051761,-0.00098383,-0.00115597,0.000085
 57,0.00041826,-0.00021949,-0.00018482,0.00021520,0.00010933,0.07911057
 ,-0.22036311,0.10660509,0.00847816,-0.01983323,0.01299736,-0.08649307,
 0.23608326,-0.01260998,0.02938298,-0.01514890,0.00199518,-0.00408021,-
 0.00566914,-0.00003871,-0.00198498,0.00079378,-0.00017144,-0.00081950,
 0.00012511,-0.04389569,0.10766677,-0.10663463,0.00559248,-0.01296049,0
 .00856359,0.04795253,-0.11463039,0.11590912,-0.01812442,0.00000074,0.0
 1015342,-0.00140000,-0.00000212,-0.00482501,0.00137429,0.00000027,-0.0
 0009742,0.00005739,-0.00000025,-0.00041766,-0.22284683,-0.00003792,-0.
 00157891,-0.01190634,0.00051507,0.00055304,-0.01191719,-0.00052247,0.0
 0055526,0.50115955,0.00001407,-0.00170303,0.00000257,0.00000219,-0.001
 02070,0.00000030,0.00000293,0.00120775,-0.00000417,0.00000056,0.000765
 15,-0.00000025,-0.00003779,-0.07897037,-0.00000082,-0.02651228,0.00209
 482,0.00260496,0.02648472,0.00210276,-0.00260612,-0.00001135,0.5864337
 5,0.03144765,0.00000826,0.00155528,0.00327386,0.00000210,0.00164210,0.
 00606261,-0.00000124,-0.00769611,0.00152791,0.00000045,0.00018785,-0.0
 0673564,-0.00000159,-0.08000593,-0.01549259,0.00198745,0.00105194,-0.0
 1552226,-0.00199711,0.00105702,-0.00212532,0.00000182,0.59188252,0.001
 04309,0.00069481,-0.00200034,0.00045465,-0.00015811,0.00078579,-0.0002
 2911,-0.00019596,0.00028536,0.00001419,-0.00012025,0.00004381,-0.01302
 198,0.02834026,-0.01570314,0.00161022,-0.00024331,-0.00011836,-0.00636
 176,-0.00056916,0.00091336,-0.08028576,0.07686093,-0.04355649,0.089469
 12,0.00043240,0.00016847,0.00110117,-0.00070150,0.00008437,-0.00007451
 ,0.00007086,-0.00009135,-0.00034414,0.00005059,0.00000472,-0.00000521,
 -0.00077811,0.00174568,-0.00158537,0.00039592,0.00057725,-0.00029223,-
 0.00043745,0.00136749,0.00005072,0.07921717,-0.23149116,0.10382251,-0.
 08576757,0.24535446,0.00015605,-0.00074354,-0.00065549,0.00057204,-0.0
 0007292,0.00004925,-0.00014512,0.00013094,0.00026051,-0.00003229,0.000
 00923,-0.00001787,0.00041252,-0.00124465,-0.00020647,-0.00015681,0.000
 07886,-0.00002094,0.00020318,-0.00023490,0.00073493,-0.04515414,0.1044
 9464,-0.10697062,0.04884355,-0.11417681,0.11132289,-0.00506988,-0.0000
 0273,-0.00441346,0.00068790,0.00000032,0.00080401,-0.00234331,0.000000
 21,0.00297113,-0.00049156,-0.00000031,-0.00007885,-0.01088482,0.000018
 06,0.03256995,0.00143655,-0.00033414,-0.00017370,0.00143654,0.00033474
 ,-0.00017424,-0.07589404,0.00004900,0.08453541,0.00351313,-0.00138552,
 -0.01107989,0.08410172,-0.00000211,0.00065290,-0.00000003,0.00000007,0
 .00010939,0.00000007,-0.00000047,0.00013364,0.00000049,-0.00000014,0.0
 0001385,0.00000003,-0.00000409,-0.00117458,0.00000939,0.00014318,0.000
 04126,0.00031058,-0.00014222,0.00004068,-0.00031017,0.00005161,-0.0475
 9112,-0.00013818,-0.00995667,0.00121912,0.02435423,-0.00005159,0.04536
 109,-0.00145726,-0.00000002,0.00100610,0.00089439,-0.00000002,-0.00020
 661,0.00021861,-0.00000011,-0.00005965,-0.00006303,-0.00000003,0.00009
 372,-0.00245208,0.00000160,0.00202455,0.00028886,0.00015050,0.00028998
 ,0.00028929,-0.00014997,0.00029029,0.08794460,-0.00013707,-0.29599738,
 0.00411967,-0.00112757,-0.01195763,-0.09388958,0.00014993,0.31644435,0
 .00104409,-0.00069689,-0.00199978,0.00045533,0.00015875,0.00078441,-0.
 00022958,0.00019621,0.00028550,0.00001408,0.00012034,0.00004371,-0.013
 00710,-0.02836677,-0.01566852,-0.00636236,0.00056611,0.00091267,0.0016
 1063,0.00024391,-0.00011874,-0.08021667,-0.07685299,-0.04341512,0.0037
 9423,0.00890321,0.00638091,0.00350777,0.00996244,0.00410653,0.08938960
 ,-0.00043165,0.00016826,-0.00110232,0.00070160,0.00008466,0.00007562,-
 0.00007133,-0.00009117,0.00034458,-0.00005060,0.00000473,0.00000518,0.
 00077156,0.00173767,0.00157627,0.00043425,0.00136828,-0.00005095,-0.00
 039576,0.00057734,0.00029139,-0.07921076,-0.23182784,-0.10368444,-0.00
 888496,-0.01893905,-0.01259507,0.00137195,0.00119377,0.00111276,0.0857
 6569,0.24572334,0.00015670,0.00074339,-0.00065412,0.00056667,0.0000729
 0,0.00005147,-0.00014522,-0.00013072,0.00025996,-0.00003215,-0.0000093
 0,-0.00001791,0.00041133,0.00124313,-0.00020955,0.00020240,0.00023409,
 0.00073494,-0.00015630,-0.00007973,-0.00002119,-0.04500787,-0.10435586
 ,-0.10670666,0.00638681,0.01263146,0.00746143,-0.01107078,-0.02437634,
 -0.01192773,0.04868842,0.11402698,0.11102936||-0.00000271,0.00002736,0
 .00001377,0.00003924,-0.00001066,0.00000659,0.00002182,-0.00000977,0.0
 0002835,0.00002560,-0.00000116,0.00004397,-0.00001537,0.00000048,0.000
 00394,-0.00001139,0.00000189,0.00001289,-0.00001223,-0.00000496,0.0000
 1003,-0.00000544,0.00000063,-0.00002284,-0.00000711,-0.00000009,-0.000
 02941,-0.00002532,-0.00000071,-0.00003458,-0.00000708,-0.00000301,-0.0
 0003271|||@


      LET US REMEMBER, PLEASE, THAT THE SEARCH FOR THE CONSTITUTION
      OF THE WORLD IS ONE OF THE GREATEST AND NOBLEST PROBLEMS PRESENTED 
      BY NATURE.

                                                  -- GALILEO
 Job cpu time:  0 days  0 hours  1 minutes 38.0 seconds.
 File lengths (MBytes):  RWF=     37 Int=      0 D2E=      0 Chk=      4 Scr=      1
 Normal termination of Gaussian 09 at Sun Jan 24 02:27:41 2021.
