 Entering Link 1 = C:\G09W\l1.exe PID=      9004.
  
 Copyright (c) 1988,1990,1992,1993,1995,1998,2003,2009, Gaussian, Inc.
                  All Rights Reserved.
  
 This is part of the Gaussian(R) 09 program.  It is based on
 the Gaussian(R) 03 system (copyright 2003, Gaussian, Inc.),
 the Gaussian(R) 98 system (copyright 1998, Gaussian, Inc.),
 the Gaussian(R) 94 system (copyright 1995, Gaussian, Inc.),
 the Gaussian 92(TM) system (copyright 1992, Gaussian, Inc.),
 the Gaussian 90(TM) system (copyright 1990, Gaussian, Inc.),
 the Gaussian 88(TM) system (copyright 1988, Gaussian, Inc.),
 the Gaussian 86(TM) system (copyright 1986, Carnegie Mellon
 University), and the Gaussian 82(TM) system (copyright 1983,
 Carnegie Mellon University). Gaussian is a federally registered
 trademark of Gaussian, Inc.
  
 This software contains proprietary and confidential information,
 including trade secrets, belonging to Gaussian, Inc.
  
 This software is provided under written license and may be
 used, copied, transmitted, or stored only in accord with that
 written license.
  
 The following legend is applicable only to US Government
 contracts under FAR:
  
                    RESTRICTED RIGHTS LEGEND
  
 Use, reproduction and disclosure by the US Government is
 subject to restrictions as set forth in subparagraphs (a)
 and (c) of the Commercial Computer Software - Restricted
 Rights clause in FAR 52.227-19.
  
 Gaussian, Inc.
 340 Quinnipiac St., Bldg. 40, Wallingford CT 06492
  
  
 ---------------------------------------------------------------
 Warning -- This program may not be used in any manner that
 competes with the business of Gaussian, Inc. or will provide
 assistance to any competitor of Gaussian, Inc.  The licensee
 of this program is prohibited from giving any competitor of
 Gaussian, Inc. access to this program.  By using this program,
 the user acknowledges that Gaussian, Inc. is engaged in the
 business of creating and licensing software in the field of
 computational chemistry and represents and warrants to the
 licensee that it is not a competitor of Gaussian, Inc. and that
 it will not use this program in any manner prohibited above.
 ---------------------------------------------------------------
  

 Cite this work as:
 Gaussian 09, Revision A.02,
 M. J. Frisch, G. W. Trucks, H. B. Schlegel, G. E. Scuseria, 
 M. A. Robb, J. R. Cheeseman, G. Scalmani, V. Barone, B. Mennucci, 
 G. A. Petersson, H. Nakatsuji, M. Caricato, X. Li, H. P. Hratchian, 
 A. F. Izmaylov, J. Bloino, G. Zheng, J. L. Sonnenberg, M. Hada, 
 M. Ehara, K. Toyota, R. Fukuda, J. Hasegawa, M. Ishida, T. Nakajima, 
 Y. Honda, O. Kitao, H. Nakai, T. Vreven, J. A. Montgomery, Jr., 
 J. E. Peralta, F. Ogliaro, M. Bearpark, J. J. Heyd, E. Brothers, 
 K. N. Kudin, V. N. Staroverov, R. Kobayashi, J. Normand, 
 K. Raghavachari, A. Rendell, J. C. Burant, S. S. Iyengar, J. Tomasi, 
 M. Cossi, N. Rega, J. M. Millam, M. Klene, J. E. Knox, J. B. Cross, 
 V. Bakken, C. Adamo, J. Jaramillo, R. Gomperts, R. E. Stratmann, 
 O. Yazyev, A. J. Austin, R. Cammi, C. Pomelli, J. W. Ochterski, 
 R. L. Martin, K. Morokuma, V. G. Zakrzewski, G. A. Voth, 
 P. Salvador, J. J. Dannenberg, S. Dapprich, A. D. Daniels, 
 O. Farkas, J. B. Foresman, J. V. Ortiz, J. Cioslowski, 
 and D. J. Fox, Gaussian, Inc., Wallingford CT, 2009.
 
 ******************************************
 Gaussian 09:  IA32W-G09RevA.02 11-Jun-2009
                19-Jan-2021 
 ******************************************
 %chk=D:\Documents\rayGit\FQ\quimicaComputacional\p4Pka\reactivos\solvated\waterM
 062xsolvated.chk
 %mem=1500MB
 %nprocshared=4
 Will use up to    4 processors via shared memory.
 -------------------------------------
 # opt freq 6-31+g(d,p) scrf=smd m062x
 -------------------------------------
 1/14=-1,18=20,19=15,26=3,38=1/1,3;
 2/9=110,12=2,17=6,18=5,40=1/2;
 3/5=1,6=6,7=111,11=2,16=1,25=1,30=1,70=32201,71=1,72=1,74=-55/1,2,3;
 4//1;
 5/5=2,38=5/2;
 6/7=2,8=2,9=2,10=2,28=1/1;
 7//1,2,3,16;
 1/14=-1,18=20,19=15/3(2);
 2/9=110/2;
 99//99;
 2/9=110/2;
 3/5=1,6=6,7=111,11=2,16=1,25=1,30=1,70=32205,71=1,74=-55/1,2,3;
 4/5=5,16=3/1;
 5/5=2,38=5/2;
 7//1,2,3,16;
 1/14=-1,18=20,19=15/3(-5);
 2/9=110/2;
 6/7=2,8=2,9=2,10=2,19=2,28=1/1;
 99/9=1/99;
 -----------
 water M062x
 -----------
 Symbolic Z-matrix:
 Charge =  0 Multiplicity = 1
 O                    -1.1539    1.32797   0. 
 H                    -0.1939    1.32797   0. 
 H                    -1.47436   2.23291   0. 
 

 GradGradGradGradGradGradGradGradGradGradGradGradGradGradGradGradGradGrad
 Berny optimization.
 Initialization pass.
                           ----------------------------
                           !    Initial Parameters    !
                           ! (Angstroms and Degrees)  !
 --------------------------                            --------------------------
 ! Name  Definition              Value          Derivative Info.                !
 --------------------------------------------------------------------------------
 ! R1    R(1,2)                  0.96           estimate D2E/DX2                !
 ! R2    R(1,3)                  0.96           estimate D2E/DX2                !
 ! A1    A(2,1,3)              109.5            estimate D2E/DX2                !
 --------------------------------------------------------------------------------
 Trust Radius=3.00D-01 FncErr=1.00D-07 GrdErr=1.00D-06
 Number of steps in this run=  20 maximum allowed number of steps= 100.
 GradGradGradGradGradGradGradGradGradGradGradGradGradGradGradGradGradGrad

                          Input orientation:                          
 ---------------------------------------------------------------------
 Center     Atomic      Atomic             Coordinates (Angstroms)
 Number     Number       Type             X           Y           Z
 ---------------------------------------------------------------------
      1          8           0       -1.153904    1.327970    0.000000
      2          1           0       -0.193904    1.327970    0.000000
      3          1           0       -1.474359    2.232906    0.000000
 ---------------------------------------------------------------------
                    Distance matrix (angstroms):
                    1          2          3
     1  O    0.000000
     2  H    0.960000   0.000000
     3  H    0.960000   1.567952   0.000000
 Stoichiometry    H2O
 Framework group  C2V[C2(O),SGV(H2)]
 Deg. of freedom     2
 Full point group                 C2V     NOp   4
 Largest Abelian subgroup         C2V     NOp   4
 Largest concise Abelian subgroup C2      NOp   2
                         Standard orientation:                         
 ---------------------------------------------------------------------
 Center     Atomic      Atomic             Coordinates (Angstroms)
 Number     Number       Type             X           Y           Z
 ---------------------------------------------------------------------
      1          8           0        0.000000    0.000000    0.110812
      2          1           0        0.000000    0.783976   -0.443248
      3          1           0        0.000000   -0.783976   -0.443248
 ---------------------------------------------------------------------
 Rotational constants (GHZ):    919.6759611    407.9403275    282.5913752
 Standard basis: 6-31+G(d,p) (6D, 7F)
 There are    14 symmetry adapted basis functions of A1  symmetry.
 There are     2 symmetry adapted basis functions of A2  symmetry.
 There are     5 symmetry adapted basis functions of B1  symmetry.
 There are     8 symmetry adapted basis functions of B2  symmetry.
 Integral buffers will be    262144 words long.
 Raffenetti 2 integral format.
 Two-electron integral symmetry is turned on.
    29 basis functions,    46 primitive gaussians,    29 cartesian basis functions
     5 alpha electrons        5 beta electrons
       nuclear repulsion energy         9.1571159900 Hartrees.
 NAtoms=    3 NActive=    3 NUniq=    2 SFac= 1.69D+00 NAtFMM=   80 NAOKFM=F Big=F
 ------------------------------------------------------------------------------
 Polarizable Continuum Model (PCM)
 =================================
 Model                : PCM.
 Atomic radii         : SMD-Coulomb.
 Polarization charges : Total charges.
 Charge compensation  : None.
 Solution method      : Matrix inversion.
 Cavity type          : VdW (van der Waals Surface) (Alpha=1.000).
 Cavity algorithm     : GePol (No added spheres)
                        Default sphere list used, NSphG=    3.
                        Lebedev-Laikov grids with approx.  5.0 points / Ang**2.
                        Smoothing algorithm: Karplus/York (Gamma=1.0000).
                        Polarization charges: spherical gaussians, with
                                              point-specific exponents (IZeta= 3).
                        Self-potential: point-specific (ISelfS= 7).
                        Self-field    : sphere-specific E.n sum rule (ISelfD= 2).
 1st derivatives      : Analytical E(r).r(x)/FMM algorithm (CHGder, D1EAlg=3).
                        Cavity 1st derivative terms included.
 Solvent              : Water, Eps=  78.355300 Eps(inf)=   1.777849
 ------------------------------------------------------------------------------
 Spheres list:
 ISph  on   Nord    Re0     Alpha      Xe            Ye            Ze
    1   O      1    1.520   1.000      0.000000      0.000000      0.110812
    2   H      2    1.200   1.000      0.000000      0.783976     -0.443248
    3   H      3    1.200   1.000      0.000000     -0.783976     -0.443248
 ------------------------------------------------------------------------------
 ------------------------------------------------------------------------------
 Atomic radii for non-electrostatic terms: SMD-CDS.
 ------------------------------------------------------------------------------
 Nuclear repulsion after PCM non-electrostatic terms =        9.1594495221 Hartrees.
 One-electron integrals computed using PRISM.
 NBasis=    29 RedAO= T  NBF=    14     2     5     8
 NBsUse=    29 1.00D-06 NBFU=    14     2     5     8
 Harris functional with IExCor= 1009 diagonalized for initial guess.
 ExpMin= 8.45D-02 ExpMax= 5.48D+03 ExpMxC= 8.25D+02 IAcc=2 IRadAn=         0 AccDes= 0.00D+00
 HarFok:  IExCor= 1009 AccDes= 0.00D+00 IRadAn=         0 IDoV= 1
 ScaDFX=  1.000000  1.000000  1.000000  1.000000
 FoFCou: FMM=F IPFlag=           0 FMFlag=      100000 FMFlg1=           0
         NFxFlg=           0 DoJE=T BraDBF=F KetDBF=T FulRan=T
         Omega=  0.000000  0.000000  1.000000  0.000000  0.000000 ICntrl=     500 IOpCl=  0
         NMat0=    1 NMatS0=    1 NMatT0=    0 NMatD0=    1 NMtDS0=    0 NMtDT0=    0
         I1Cent=           4 NGrid=           0.
 Petite list used in FoFCou.
 Initial guess orbital symmetries:
       Occupied  (A1) (A1) (B2) (A1) (B1)
       Virtual   (A1) (B2) (A1) (B1) (B2) (A1) (B2) (A1) (B1) (B2)
                 (A1) (A1) (A2) (A1) (B1) (A1) (B2) (B2) (B1) (A2)
                 (A1) (A1) (B2) (A1)
 The electronic state of the initial guess is 1-A1.
 Requested convergence on RMS density matrix=1.00D-08 within 128 cycles.
 Requested convergence on MAX density matrix=1.00D-06.
 Requested convergence on             energy=1.00D-06.
 No special actions if energy rises.
 Keep R1 ints in memory in canonical form, NReq=3054852.
 Error on total polarization charges =  0.02805
 SCF Done:  E(RM062X) =  -76.4089529515     A.U. after    9 cycles
             Convg  =    0.1309D-08             -V/T =  2.0088
 SMD-CDS (non-electrostatic) energy             (kcal/mol) =       1.46
 (included in total energy above)

 **********************************************************************

            Population analysis using the SCF density.

 **********************************************************************

 Orbital symmetries:
       Occupied  (A1) (A1) (B2) (A1) (B1)
       Virtual   (A1) (B2) (A1) (B1) (B2) (A1) (B2) (A1) (B2) (A1)
                 (B1) (A1) (A2) (A1) (B1) (B2) (A1) (B2) (B1) (A2)
                 (A1) (A1) (B2) (A1)
 The electronic state is 1-A1.
 Alpha  occ. eigenvalues --  -19.64699  -1.12981  -0.61253  -0.46903  -0.40132
 Alpha virt. eigenvalues --    0.08760   0.15202   0.17021   0.18122   0.27485
 Alpha virt. eigenvalues --    0.29532   1.00743   1.08010   1.14231   1.18334
 Alpha virt. eigenvalues --    1.18775   1.27308   1.55946   1.61622   1.69643
 Alpha virt. eigenvalues --    2.28022   2.29930   2.59472   2.67308   2.71047
 Alpha virt. eigenvalues --    3.07950   3.39155   3.54065   3.94932
          Condensed to atoms (all electrons):
              1          2          3
     1  O    8.271938   0.290862   0.290862
     2  H    0.290862   0.298140  -0.015833
     3  H    0.290862  -0.015833   0.298140
 Mulliken atomic charges:
              1
     1  O   -0.853662
     2  H    0.426831
     3  H    0.426831
 Sum of Mulliken atomic charges =   0.00000
 Mulliken charges with hydrogens summed into heavy atoms:
              1
     1  O    0.000000
 Sum of Mulliken charges with hydrogens summed into heavy atoms =   0.00000
 Electronic spatial extent (au):  <R**2>=             19.7623
 Charge=              0.0000 electrons
 Dipole moment (field-independent basis, Debye):
    X=              0.0000    Y=              0.0000    Z=             -2.5743  Tot=              2.5743
 Quadrupole moment (field-independent basis, Debye-Ang):
   XX=             -7.8469   YY=             -3.9277   ZZ=             -6.5429
   XY=              0.0000   XZ=              0.0000   YZ=              0.0000
 Traceless Quadrupole moment (field-independent basis, Debye-Ang):
   XX=             -1.7411   YY=              2.1781   ZZ=             -0.4371
   XY=              0.0000   XZ=              0.0000   YZ=              0.0000
 Octapole moment (field-independent basis, Debye-Ang**2):
  XXX=              0.0000  YYY=              0.0000  ZZZ=             -2.0482  XYY=              0.0000
  XXY=              0.0000  XXZ=             -0.6005  XZZ=              0.0000  YZZ=              0.0000
  YYZ=             -1.7563  XYZ=              0.0000
 Hexadecapole moment (field-independent basis, Debye-Ang**3):
 XXXX=             -7.6126 YYYY=             -5.5649 ZZZZ=             -7.7287 XXXY=              0.0000
 XXXZ=              0.0000 YYYX=              0.0000 YYYZ=              0.0000 ZZZX=              0.0000
 ZZZY=              0.0000 XXYY=             -2.5520 XXZZ=             -2.6045 YYZZ=             -1.9052
 XXYZ=              0.0000 YYXZ=              0.0000 ZZXY=              0.0000
 N-N= 9.159449522144D+00 E-N=-1.986818621773D+02  KE= 7.573996582760D+01
 Symmetry A1   KE= 6.770516919296D+01
 Symmetry A2   KE= 1.158925575038D-34
 Symmetry B1   KE= 4.387506517646D+00
 Symmetry B2   KE= 3.647290116993D+00
 D1PCM: PCM CHGder 1st derivatives, ID1Alg=3 FixD1E=F DoIter=F DoCFld=F I1PDM=0.
 Calling FoFJK, ICntrl=      2127 FMM=F ISym2X=1 I1Cent= 0 IOpClX= 0 NMat=1 NMatS=1 NMatT=0.
 ***** Axes restored to original set *****
 -------------------------------------------------------------------
 Center     Atomic                   Forces (Hartrees/Bohr)
 Number     Number              X              Y              Z
 -------------------------------------------------------------------
      1        8          -0.008188722   -0.011586774    0.000000000
      2        1           0.003795284    0.006004754    0.000000000
      3        1           0.004393438    0.005582020    0.000000000
 -------------------------------------------------------------------
 Cartesian Forces:  Max     0.011586774 RMS     0.005794931

 GradGradGradGradGradGradGradGradGradGradGradGradGradGradGradGradGradGrad
 Berny optimization.
 Internal  Forces:  Max     0.010893446 RMS     0.007011313
 Search for a local minimum.
 Step number   1 out of a maximum of   20
 All quantities printed in internal units (Hartrees-Bohrs-Radians)
 Mixed Optimization -- RFO/linear search
 Second derivative matrix not updated -- first step.
 The second derivative matrix:
                          R1        R2        A1
           R1           0.55473
           R2           0.00000   0.55473
           A1           0.00000   0.00000   0.16000
     Eigenvalues ---    0.16000   0.55473   0.55473
 RFO step:  Lambda=-7.89884434D-04 EMin= 1.60000000D-01
 Linear search not attempted -- first point.
 Iteration  1 RMS(Cart)=  0.03530766 RMS(Int)=  0.00086171
 Iteration  2 RMS(Cart)=  0.00082466 RMS(Int)=  0.00000009
 Iteration  3 RMS(Cart)=  0.00000008 RMS(Int)=  0.00000000
 ClnCor:  largest displacement from symmetrization is 1.26D-15 for atom     1.
 Variable       Old X    -DE/DX   Delta X   Delta X   Delta X     New X
                                 (Linear)    (Quad)   (Total)
    R1        1.81414   0.00380   0.00000   0.00683   0.00683   1.82097
    R2        1.81414   0.00380   0.00000   0.00683   0.00683   1.82097
    A1        1.91114  -0.01089   0.00000  -0.06775  -0.06775   1.84339
         Item               Value     Threshold  Converged?
 Maximum Force            0.010893     0.000450     NO 
 RMS     Force            0.007011     0.000300     NO 
 Maximum Displacement     0.035540     0.001800     NO 
 RMS     Displacement     0.035724     0.001200     NO 
 Predicted change in Energy=-3.967918D-04
 GradGradGradGradGradGradGradGradGradGradGradGradGradGradGradGradGradGrad

                          Input orientation:                          
 ---------------------------------------------------------------------
 Center     Atomic      Atomic             Coordinates (Angstroms)
 Number     Number       Type             X           Y           Z
 ---------------------------------------------------------------------
      1          8           0       -1.164839    1.312498    0.000000
      2          1           0       -0.201777    1.345134    0.000000
      3          1           0       -1.455552    2.231215    0.000000
 ---------------------------------------------------------------------
                    Distance matrix (angstroms):
                    1          2          3
     1  O    0.000000
     2  H    0.963615   0.000000
     3  H    0.963615   1.535282   0.000000
 Stoichiometry    H2O
 Framework group  C2V[C2(O),SGV(H2)]
 Deg. of freedom     2
 Full point group                 C2V     NOp   4
 Largest Abelian subgroup         C2V     NOp   4
 Largest concise Abelian subgroup C2      NOp   2
                         Standard orientation:                         
 ---------------------------------------------------------------------
 Center     Atomic      Atomic             Coordinates (Angstroms)
 Number     Number       Type             X           Y           Z
 ---------------------------------------------------------------------
      1          8           0        0.000000    0.000000    0.116496
      2          1           0        0.000000    0.767641   -0.465983
      3          1           0        0.000000   -0.767641   -0.465983
 ---------------------------------------------------------------------
 Rotational constants (GHZ):    832.1224070    425.4863308    281.5316872
 Standard basis: 6-31+G(d,p) (6D, 7F)
 There are    14 symmetry adapted basis functions of A1  symmetry.
 There are     2 symmetry adapted basis functions of A2  symmetry.
 There are     5 symmetry adapted basis functions of B1  symmetry.
 There are     8 symmetry adapted basis functions of B2  symmetry.
 Integral buffers will be    262144 words long.
 Raffenetti 2 integral format.
 Two-electron integral symmetry is turned on.
    29 basis functions,    46 primitive gaussians,    29 cartesian basis functions
     5 alpha electrons        5 beta electrons
       nuclear repulsion energy         9.1312082372 Hartrees.
 NAtoms=    3 NActive=    3 NUniq=    2 SFac= 1.69D+00 NAtFMM=   80 NAOKFM=F Big=F
 ------------------------------------------------------------------------------
 Polarizable Continuum Model (PCM)
 =================================
 Model                : PCM.
 Atomic radii         : SMD-Coulomb.
 Polarization charges : Total charges.
 Charge compensation  : None.
 Solution method      : Matrix inversion.
 Cavity type          : VdW (van der Waals Surface) (Alpha=1.000).
 Cavity algorithm     : GePol (No added spheres)
                        Default sphere list used, NSphG=    3.
                        Lebedev-Laikov grids with approx.  5.0 points / Ang**2.
                        Smoothing algorithm: Karplus/York (Gamma=1.0000).
                        Polarization charges: spherical gaussians, with
                                              point-specific exponents (IZeta= 3).
                        Self-potential: point-specific (ISelfS= 7).
                        Self-field    : sphere-specific E.n sum rule (ISelfD= 2).
 1st derivatives      : Analytical E(r).r(x)/FMM algorithm (CHGder, D1EAlg=3).
                        Cavity 1st derivative terms included.
 Solvent              : Water, Eps=  78.355300 Eps(inf)=   1.777849
 ------------------------------------------------------------------------------
 Spheres list:
 ISph  on   Nord    Re0     Alpha      Xe            Ye            Ze
    1   O      1    1.520   1.000      0.000000      0.000000      0.116496
    2   H      2    1.200   1.000      0.000000      0.767641     -0.465983
    3   H      3    1.200   1.000      0.000000     -0.767641     -0.465983
 ------------------------------------------------------------------------------
 ------------------------------------------------------------------------------
 Atomic radii for non-electrostatic terms: SMD-CDS.
 ------------------------------------------------------------------------------
 Nuclear repulsion after PCM non-electrostatic terms =        9.1335335048 Hartrees.
 One-electron integrals computed using PRISM.
 NBasis=    29 RedAO= T  NBF=    14     2     5     8
 NBsUse=    29 1.00D-06 NBFU=    14     2     5     8
 Initial guess read from the read-write file.
 B after Tr=     0.000000    0.000000    0.000000
         Rot=    1.000000    0.000000    0.000000    0.000000 Ang=   0.00 deg.
 Initial guess orbital symmetries:
       Occupied  (A1) (A1) (B2) (A1) (B1)
       Virtual   (A1) (B2) (A1) (B1) (B2) (A1) (B2) (A1) (B2) (A1)
                 (B1) (A1) (A2) (A1) (B1) (B2) (A1) (B2) (B1) (A2)
                 (A1) (A1) (B2) (A1)
 Harris functional with IExCor= 1009 diagonalized for initial guess.
 ExpMin= 8.45D-02 ExpMax= 5.48D+03 ExpMxC= 8.25D+02 IAcc=2 IRadAn=         0 AccDes= 0.00D+00
 HarFok:  IExCor= 1009 AccDes= 0.00D+00 IRadAn=         0 IDoV= 1
 ScaDFX=  1.000000  1.000000  1.000000  1.000000
 FoFCou: FMM=F IPFlag=           0 FMFlag=      100000 FMFlg1=           0
         NFxFlg=           0 DoJE=T BraDBF=F KetDBF=T FulRan=T
         Omega=  0.000000  0.000000  1.000000  0.000000  0.000000 ICntrl=     500 IOpCl=  0
         NMat0=    1 NMatS0=    1 NMatT0=    0 NMatD0=    1 NMtDS0=    0 NMtDT0=    0
         I1Cent=           4 NGrid=           0.
 Petite list used in FoFCou.
 Requested convergence on RMS density matrix=1.00D-08 within 128 cycles.
 Requested convergence on MAX density matrix=1.00D-06.
 Requested convergence on             energy=1.00D-06.
 No special actions if energy rises.
 Keep R1 ints in memory in canonical form, NReq=3054852.
 Error on total polarization charges =  0.02780
 SCF Done:  E(RM062X) =  -76.4094259496     A.U. after    8 cycles
             Convg  =    0.2268D-08             -V/T =  2.0089
 SMD-CDS (non-electrostatic) energy             (kcal/mol) =       1.46
 (included in total energy above)
 D1PCM: PCM CHGder 1st derivatives, ID1Alg=3 FixD1E=F DoIter=F DoCFld=F I1PDM=0.
 Calling FoFJK, ICntrl=      2127 FMM=F ISym2X=1 I1Cent= 0 IOpClX= 0 NMat=1 NMatS=1 NMatT=0.
 ***** Axes restored to original set *****
 -------------------------------------------------------------------
 Center     Atomic                   Forces (Hartrees/Bohr)
 Number     Number              X              Y              Z
 -------------------------------------------------------------------
      1        8          -0.002065462   -0.002922561    0.000000000
      2        1           0.001552746    0.001093770    0.000000000
      3        1           0.000512716    0.001828791    0.000000000
 -------------------------------------------------------------------
 Cartesian Forces:  Max     0.002922561 RMS     0.001491539

 GradGradGradGradGradGradGradGradGradGradGradGradGradGradGradGradGradGrad
 Berny optimization.
 Using GEDIIS/GDIIS optimizer.
 Internal  Forces:  Max     0.001894816 RMS     0.001697010
 Search for a local minimum.
 Step number   2 out of a maximum of   20
 All quantities printed in internal units (Hartrees-Bohrs-Radians)
 Mixed Optimization -- RFO/linear search
 Update second derivatives using D2CorX and points    1    2
 DE= -4.73D-04 DEPred=-3.97D-04 R= 1.19D+00
 SS=  1.41D+00  RLast= 6.84D-02 DXNew= 5.0454D-01 2.0531D-01
 Trust test= 1.19D+00 RLast= 6.84D-02 DXMaxT set to 3.00D-01
 The second derivative matrix:
                          R1        R2        A1
           R1           0.54407
           R2          -0.01066   0.54407
           A1           0.02122   0.02122   0.13710
 Use linear search instead of GDIIS.
     Eigenvalues ---    0.13484   0.53567   0.55473
 RFO step:  Lambda=-4.51349525D-06 EMin= 1.34842071D-01
 Quartic linear search produced a step of  0.22666.
 Iteration  1 RMS(Cart)=  0.00724073 RMS(Int)=  0.00004166
 Iteration  2 RMS(Cart)=  0.00004336 RMS(Int)=  0.00000000
 Iteration  3 RMS(Cart)=  0.00000000 RMS(Int)=  0.00000000
 ClnCor:  largest displacement from symmetrization is 4.53D-15 for atom     3.
 Variable       Old X    -DE/DX   Delta X   Delta X   Delta X     New X
                                 (Linear)    (Quad)   (Total)
    R1        1.82097   0.00159   0.00155   0.00199   0.00354   1.82451
    R2        1.82097   0.00159   0.00155   0.00199   0.00354   1.82451
    A1        1.84339  -0.00189  -0.01536   0.00098  -0.01438   1.82900
         Item               Value     Threshold  Converged?
 Maximum Force            0.001895     0.000450     NO 
 RMS     Force            0.001697     0.000300     NO 
 Maximum Displacement     0.006838     0.001800     NO 
 RMS     Displacement     0.007262     0.001200     NO 
 Predicted change in Energy=-1.979781D-05
 GradGradGradGradGradGradGradGradGradGradGradGradGradGradGradGradGradGrad

                          Input orientation:                          
 ---------------------------------------------------------------------
 Center     Atomic      Atomic             Coordinates (Angstroms)
 Number     Number       Type             X           Y           Z
 ---------------------------------------------------------------------
      1          8           0       -1.167397    1.308879    0.000000
      2          1           0       -0.202724    1.348516    0.000000
      3          1           0       -1.452048    2.231451    0.000000
 ---------------------------------------------------------------------
                    Distance matrix (angstroms):
                    1          2          3
     1  O    0.000000
     2  H    0.965487   0.000000
     3  H    0.965487   1.529832   0.000000
 Stoichiometry    H2O
 Framework group  C2V[C2(O),SGV(H2)]
 Deg. of freedom     2
 Full point group                 C2V     NOp   4
 Largest Abelian subgroup         C2V     NOp   4
 Largest concise Abelian subgroup C2      NOp   2
                         Standard orientation:                         
 ---------------------------------------------------------------------
 Center     Atomic      Atomic             Coordinates (Angstroms)
 Number     Number       Type             X           Y           Z
 ---------------------------------------------------------------------
      1          8           0        0.000000    0.000000    0.117825
      2          1           0        0.000000    0.764916   -0.471301
      3          1           0        0.000000   -0.764916   -0.471301
 ---------------------------------------------------------------------
 Rotational constants (GHZ):    813.4513809    428.5236634    280.6684139
 Standard basis: 6-31+G(d,p) (6D, 7F)
 There are    14 symmetry adapted basis functions of A1  symmetry.
 There are     2 symmetry adapted basis functions of A2  symmetry.
 There are     5 symmetry adapted basis functions of B1  symmetry.
 There are     8 symmetry adapted basis functions of B2  symmetry.
 Integral buffers will be    262144 words long.
 Raffenetti 2 integral format.
 Two-electron integral symmetry is turned on.
    29 basis functions,    46 primitive gaussians,    29 cartesian basis functions
     5 alpha electrons        5 beta electrons
       nuclear repulsion energy         9.1154023259 Hartrees.
 NAtoms=    3 NActive=    3 NUniq=    2 SFac= 1.69D+00 NAtFMM=   80 NAOKFM=F Big=F
 ------------------------------------------------------------------------------
 Polarizable Continuum Model (PCM)
 =================================
 Model                : PCM.
 Atomic radii         : SMD-Coulomb.
 Polarization charges : Total charges.
 Charge compensation  : None.
 Solution method      : Matrix inversion.
 Cavity type          : VdW (van der Waals Surface) (Alpha=1.000).
 Cavity algorithm     : GePol (No added spheres)
                        Default sphere list used, NSphG=    3.
                        Lebedev-Laikov grids with approx.  5.0 points / Ang**2.
                        Smoothing algorithm: Karplus/York (Gamma=1.0000).
                        Polarization charges: spherical gaussians, with
                                              point-specific exponents (IZeta= 3).
                        Self-potential: point-specific (ISelfS= 7).
                        Self-field    : sphere-specific E.n sum rule (ISelfD= 2).
 1st derivatives      : Analytical E(r).r(x)/FMM algorithm (CHGder, D1EAlg=3).
                        Cavity 1st derivative terms included.
 Solvent              : Water, Eps=  78.355300 Eps(inf)=   1.777849
 ------------------------------------------------------------------------------
 Spheres list:
 ISph  on   Nord    Re0     Alpha      Xe            Ye            Ze
    1   O      1    1.520   1.000      0.000000      0.000000      0.117825
    2   H      2    1.200   1.000      0.000000      0.764916     -0.471301
    3   H      3    1.200   1.000      0.000000     -0.764916     -0.471301
 ------------------------------------------------------------------------------
 ------------------------------------------------------------------------------
 Atomic radii for non-electrostatic terms: SMD-CDS.
 ------------------------------------------------------------------------------
 Nuclear repulsion after PCM non-electrostatic terms =        9.1177260775 Hartrees.
 One-electron integrals computed using PRISM.
 NBasis=    29 RedAO= T  NBF=    14     2     5     8
 NBsUse=    29 1.00D-06 NBFU=    14     2     5     8
 Initial guess read from the read-write file.
 B after Tr=     0.000000    0.000000    0.000000
         Rot=    1.000000    0.000000    0.000000    0.000000 Ang=   0.00 deg.
 Initial guess orbital symmetries:
       Occupied  (A1) (A1) (B2) (A1) (B1)
       Virtual   (A1) (B2) (A1) (B1) (B2) (A1) (B2) (A1) (B2) (B1)
                 (A1) (A1) (A2) (A1) (B1) (A1) (B2) (B2) (A2) (B1)
                 (A1) (A1) (B2) (A1)
 Requested convergence on RMS density matrix=1.00D-08 within 128 cycles.
 Requested convergence on MAX density matrix=1.00D-06.
 Requested convergence on             energy=1.00D-06.
 No special actions if energy rises.
 Keep R1 ints in memory in canonical form, NReq=3054852.
 Error on total polarization charges =  0.02777
 SCF Done:  E(RM062X) =  -76.4094453522     A.U. after    7 cycles
             Convg  =    0.9475D-08             -V/T =  2.0090
 SMD-CDS (non-electrostatic) energy             (kcal/mol) =       1.46
 (included in total energy above)
 D1PCM: PCM CHGder 1st derivatives, ID1Alg=3 FixD1E=F DoIter=F DoCFld=F I1PDM=0.
 Calling FoFJK, ICntrl=      2127 FMM=F ISym2X=1 I1Cent= 0 IOpClX= 0 NMat=1 NMatS=1 NMatT=0.
 ***** Axes restored to original set *****
 -------------------------------------------------------------------
 Center     Atomic                   Forces (Hartrees/Bohr)
 Number     Number              X              Y              Z
 -------------------------------------------------------------------
      1        8          -0.000021891   -0.000030975    0.000000000
      2        1           0.000026895    0.000004216    0.000000000
      3        1          -0.000005004    0.000026760    0.000000000
 -------------------------------------------------------------------
 Cartesian Forces:  Max     0.000030975 RMS     0.000018015

 GradGradGradGradGradGradGradGradGradGradGradGradGradGradGradGradGradGrad
 Berny optimization.
 Using GEDIIS/GDIIS optimizer.
 Internal  Forces:  Max     0.000027046 RMS     0.000022324
 Search for a local minimum.
 Step number   3 out of a maximum of   20
 All quantities printed in internal units (Hartrees-Bohrs-Radians)
 Mixed Optimization -- En-DIIS/RFO-DIIS
 Update second derivatives using D2CorX and points    1    2    3
 DE= -1.94D-05 DEPred=-1.98D-05 R= 9.80D-01
 SS=  1.41D+00  RLast= 1.52D-02 DXNew= 5.0454D-01 4.5679D-02
 Trust test= 9.80D-01 RLast= 1.52D-02 DXMaxT set to 3.00D-01
 The second derivative matrix:
                          R1        R2        A1
           R1           0.54136
           R2          -0.01338   0.54136
           A1           0.02125   0.02125   0.14182
 Use linear search instead of GDIIS.
     Eigenvalues ---    0.13949   0.53031   0.55473
 RFO step:  Lambda= 0.00000000D+00 EMin= 1.39490203D-01
 Quartic linear search produced a step of  0.00712.
 Iteration  1 RMS(Cart)=  0.00003555 RMS(Int)=  0.00000000
 Iteration  2 RMS(Cart)=  0.00000000 RMS(Int)=  0.00000000
 ClnCor:  largest displacement from symmetrization is 2.70D-15 for atom     3.
 Variable       Old X    -DE/DX   Delta X   Delta X   Delta X     New X
                                 (Linear)    (Quad)   (Total)
    R1        1.82451   0.00003   0.00003   0.00003   0.00005   1.82456
    R2        1.82451   0.00003   0.00003   0.00003   0.00005   1.82456
    A1        1.82900  -0.00001  -0.00010   0.00005  -0.00006   1.82895
         Item               Value     Threshold  Converged?
 Maximum Force            0.000027     0.000450     YES
 RMS     Force            0.000022     0.000300     YES
 Maximum Displacement     0.000040     0.001800     YES
 RMS     Displacement     0.000036     0.001200     YES
 Predicted change in Energy=-1.605166D-09
 Optimization completed.
    -- Stationary point found.
                           ----------------------------
                           !   Optimized Parameters   !
                           ! (Angstroms and Degrees)  !
 --------------------------                            --------------------------
 ! Name  Definition              Value          Derivative Info.                !
 --------------------------------------------------------------------------------
 ! R1    R(1,2)                  0.9655         -DE/DX =    0.0                 !
 ! R2    R(1,3)                  0.9655         -DE/DX =    0.0                 !
 ! A1    A(2,1,3)              104.7942         -DE/DX =    0.0                 !
 --------------------------------------------------------------------------------
 GradGradGradGradGradGradGradGradGradGradGradGradGradGradGradGradGradGrad

                          Input orientation:                          
 ---------------------------------------------------------------------
 Center     Atomic      Atomic             Coordinates (Angstroms)
 Number     Number       Type             X           Y           Z
 ---------------------------------------------------------------------
      1          8           0       -1.167397    1.308879    0.000000
      2          1           0       -0.202724    1.348516    0.000000
      3          1           0       -1.452048    2.231451    0.000000
 ---------------------------------------------------------------------
                    Distance matrix (angstroms):
                    1          2          3
     1  O    0.000000
     2  H    0.965487   0.000000
     3  H    0.965487   1.529832   0.000000
 Stoichiometry    H2O
 Framework group  C2V[C2(O),SGV(H2)]
 Deg. of freedom     2
 Full point group                 C2V     NOp   4
 Largest Abelian subgroup         C2V     NOp   4
 Largest concise Abelian subgroup C2      NOp   2
                         Standard orientation:                         
 ---------------------------------------------------------------------
 Center     Atomic      Atomic             Coordinates (Angstroms)
 Number     Number       Type             X           Y           Z
 ---------------------------------------------------------------------
      1          8           0        0.000000    0.000000    0.117825
      2          1           0        0.000000    0.764916   -0.471301
      3          1           0        0.000000   -0.764916   -0.471301
 ---------------------------------------------------------------------
 Rotational constants (GHZ):    813.4513809    428.5236634    280.6684139

 **********************************************************************

            Population analysis using the SCF density.

 **********************************************************************

 Orbital symmetries:
       Occupied  (A1) (A1) (B2) (A1) (B1)
       Virtual   (A1) (B2) (A1) (B1) (B2) (A1) (B2) (A1) (B2) (B1)
                 (A1) (A1) (A2) (A1) (B1) (A1) (B2) (B2) (A2) (B1)
                 (A1) (A1) (B2) (A1)
 The electronic state is 1-A1.
 Alpha  occ. eigenvalues --  -19.64894  -1.13016  -0.60172  -0.47644  -0.40158
 Alpha virt. eigenvalues --    0.08621   0.15386   0.16890   0.18104   0.26645
 Alpha virt. eigenvalues --    0.30181   0.99292   1.08533   1.14117   1.18725
 Alpha virt. eigenvalues --    1.19471   1.28169   1.56864   1.58523   1.68208
 Alpha virt. eigenvalues --    2.29440   2.30557   2.57304   2.67606   2.69928
 Alpha virt. eigenvalues --    3.06420   3.37923   3.55350   3.93443
          Condensed to atoms (all electrons):
              1          2          3
     1  O    8.275816   0.286982   0.286982
     2  H    0.286982   0.304404  -0.016275
     3  H    0.286982  -0.016275   0.304404
 Mulliken atomic charges:
              1
     1  O   -0.849779
     2  H    0.424890
     3  H    0.424890
 Sum of Mulliken atomic charges =   0.00000
 Mulliken charges with hydrogens summed into heavy atoms:
              1
     1  O    0.000000
 Sum of Mulliken charges with hydrogens summed into heavy atoms =   0.00000
 Electronic spatial extent (au):  <R**2>=             19.8202
 Charge=              0.0000 electrons
 Dipole moment (field-independent basis, Debye):
    X=              0.0000    Y=              0.0000    Z=             -2.6886  Tot=              2.6886
 Quadrupole moment (field-independent basis, Debye-Ang):
   XX=             -7.8533   YY=             -4.1293   ZZ=             -6.3883
   XY=              0.0000   XZ=              0.0000   YZ=              0.0000
 Traceless Quadrupole moment (field-independent basis, Debye-Ang):
   XX=             -1.7297   YY=              1.9944   ZZ=             -0.2647
   XY=              0.0000   XZ=              0.0000   YZ=              0.0000
 Octapole moment (field-independent basis, Debye-Ang**2):
  XXX=              0.0000  YYY=              0.0000  ZZZ=             -2.1743  XYY=              0.0000
  XXY=              0.0000  XXZ=             -0.6231  XZZ=              0.0000  YZZ=              0.0000
  YYZ=             -1.7761  XYZ=              0.0000
 Hexadecapole moment (field-independent basis, Debye-Ang**3):
 XXXX=             -7.6103 YYYY=             -5.7812 ZZZZ=             -7.7310 XXXY=              0.0000
 XXXZ=              0.0000 YYYX=              0.0000 YYYZ=              0.0000 ZZZX=              0.0000
 ZZZY=              0.0000 XXYY=             -2.5495 XXZZ=             -2.6172 YYZZ=             -1.8657
 XXYZ=              0.0000 YYXZ=              0.0000 ZZXY=              0.0000
 N-N= 9.117726077529D+00 E-N=-1.985905834718D+02  KE= 7.572835751168D+01
 Symmetry A1   KE= 6.768492636991D+01
 Symmetry A2   KE= 1.794284299807D-36
 Symmetry B1   KE= 4.390433615833D+00
 Symmetry B2   KE= 3.652997525936D+00
 1|1|UNPC-DESKTOP-319GPER|FOpt|RM062X|6-31+G(d,p)|H2O1|SAGAD|19-Jan-202
 1|0||# opt freq 6-31+g(d,p) scrf=smd m062x||water M062x||0,1|O,-1.1673
 965872,1.3088790731,0.|H,-0.2027235361,1.348516092,0.|H,-1.4520475721,
 2.2314510245,0.||Version=IA32W-G09RevA.02|State=1-A1|HF=-76.4094454|RM
 SD=9.475e-009|RMSF=1.802e-005|Dipole=0.6104885,0.8638213,0.|Quadrupole
 =0.9233063,0.3626647,-1.2859709,-0.7916015,0.,0.|PG=C02V [C2(O1),SGV(H
 2)]||@


 GOOD SENSE ABOUT TRIVIALITIES IS BETTER THAN NONSENSE
 ABOUT THINGS THAT MATTER

                                       -- MAX BEERBOHM
 Job cpu time:  0 days  0 hours  0 minutes  6.0 seconds.
 File lengths (MBytes):  RWF=      5 Int=      0 D2E=      0 Chk=      1 Scr=      1
 Normal termination of Gaussian 09 at Tue Jan 19 22:06:23 2021.
 Link1:  Proceeding to internal job step number  2.
 ----------------------------------------------------------------------
 #N Geom=AllCheck Guess=TCheck SCRF=Check GenChk RM062X/6-31+G(d,p) Fre
 q
 ----------------------------------------------------------------------
 1/10=4,29=7,30=1,38=1,40=1/1,3;
 2/12=2,40=1/2;
 3/5=1,6=6,7=111,11=2,14=-4,16=1,25=1,30=1,70=2,71=2,74=-55,116=1/1,2,3;
 4/5=101/1;
 5/5=2,98=1/2;
 8/6=4,10=90,11=11/1;
 11/6=1,8=1,9=11,15=111,16=1/1,2,10;
 10/6=1/2;
 6/7=2,8=2,9=2,10=2,18=1,28=1/1;
 7/8=1,10=1,25=1/1,2,3,16;
 1/10=4,30=1/3;
 99//99;
 -----------
 water M062x
 -----------
 Redundant internal coordinates taken from checkpoint file:
 D:\Documents\rayGit\FQ\quimicaComputacional\p4Pka\reactivos\solvated\waterM062xsolvated.chk
 Charge =  0 Multiplicity = 1
 O,0,-1.1673965872,1.3088790731,0.
 H,0,-0.2027235361,1.348516092,0.
 H,0,-1.4520475721,2.2314510245,0.
 Recover connectivity data from disk.

 GradGradGradGradGradGradGradGradGradGradGradGradGradGradGradGradGradGrad
 Berny optimization.
 Initialization pass.
                           ----------------------------
                           !    Initial Parameters    !
                           ! (Angstroms and Degrees)  !
 --------------------------                            --------------------------
 ! Name  Definition              Value          Derivative Info.                !
 --------------------------------------------------------------------------------
 ! R1    R(1,2)                  0.9655         calculate D2E/DX2 analytically  !
 ! R2    R(1,3)                  0.9655         calculate D2E/DX2 analytically  !
 ! A1    A(2,1,3)              104.7942         calculate D2E/DX2 analytically  !
 --------------------------------------------------------------------------------
 Trust Radius=3.00D-01 FncErr=1.00D-07 GrdErr=1.00D-07
 Number of steps in this run=   2 maximum allowed number of steps=   2.
 GradGradGradGradGradGradGradGradGradGradGradGradGradGradGradGradGradGrad

                          Input orientation:                          
 ---------------------------------------------------------------------
 Center     Atomic      Atomic             Coordinates (Angstroms)
 Number     Number       Type             X           Y           Z
 ---------------------------------------------------------------------
      1          8           0       -1.167397    1.308879    0.000000
      2          1           0       -0.202724    1.348516    0.000000
      3          1           0       -1.452048    2.231451    0.000000
 ---------------------------------------------------------------------
                    Distance matrix (angstroms):
                    1          2          3
     1  O    0.000000
     2  H    0.965487   0.000000
     3  H    0.965487   1.529832   0.000000
 Stoichiometry    H2O
 Framework group  C2V[C2(O),SGV(H2)]
 Deg. of freedom     2
 Full point group                 C2V     NOp   4
 Largest Abelian subgroup         C2V     NOp   4
 Largest concise Abelian subgroup C2      NOp   2
                         Standard orientation:                         
 ---------------------------------------------------------------------
 Center     Atomic      Atomic             Coordinates (Angstroms)
 Number     Number       Type             X           Y           Z
 ---------------------------------------------------------------------
      1          8           0        0.000000    0.000000    0.117825
      2          1           0        0.000000    0.764916   -0.471301
      3          1           0        0.000000   -0.764916   -0.471301
 ---------------------------------------------------------------------
 Rotational constants (GHZ):    813.4513809    428.5236634    280.6684139
 Standard basis: 6-31+G(d,p) (6D, 7F)
 There are    14 symmetry adapted basis functions of A1  symmetry.
 There are     2 symmetry adapted basis functions of A2  symmetry.
 There are     5 symmetry adapted basis functions of B1  symmetry.
 There are     8 symmetry adapted basis functions of B2  symmetry.
 Integral buffers will be    262144 words long.
 Raffenetti 2 integral format.
 Two-electron integral symmetry is turned on.
    29 basis functions,    46 primitive gaussians,    29 cartesian basis functions
     5 alpha electrons        5 beta electrons
       nuclear repulsion energy         9.1154023259 Hartrees.
 NAtoms=    3 NActive=    3 NUniq=    2 SFac= 1.69D+00 NAtFMM=   80 NAOKFM=F Big=F
 ------------------------------------------------------------------------------
 Polarizable Continuum Model (PCM)
 =================================
 Model                : PCM.
 Atomic radii         : SMD-Coulomb.
 Polarization charges : Total charges.
 Charge compensation  : None.
 Solution method      : Matrix inversion.
 Cavity type          : VdW (van der Waals Surface) (Alpha=1.000).
 Cavity algorithm     : GePol (No added spheres)
                        Default sphere list used, NSphG=    3.
                        Lebedev-Laikov grids with approx.  5.0 points / Ang**2.
                        Smoothing algorithm: Karplus/York (Gamma=1.0000).
                        Polarization charges: spherical gaussians, with
                                              point-specific exponents (IZeta= 3).
                        Self-potential: point-specific (ISelfS= 7).
                        Self-field    : sphere-specific E.n sum rule (ISelfD= 2).
 1st derivatives      : Analytical E(r).r(x)/FMM algorithm (CHGder, D1EAlg=3).
                        Cavity 1st derivative terms included.
 2nd derivatives      : Analytical E(r).r(xy)/FMM algorithm (CHGder, D2EAlg=3).
                        Cavity 2nd derivative terms included.
 Solvent              : Water, Eps=  78.355300 Eps(inf)=   1.777849
 ------------------------------------------------------------------------------
 Spheres list:
 ISph  on   Nord    Re0     Alpha      Xe            Ye            Ze
    1   O      1    1.520   1.000      0.000000      0.000000      0.117825
    2   H      2    1.200   1.000      0.000000      0.764916     -0.471301
    3   H      3    1.200   1.000      0.000000     -0.764916     -0.471301
 ------------------------------------------------------------------------------
 ------------------------------------------------------------------------------
 Atomic radii for non-electrostatic terms: SMD-CDS.
 ------------------------------------------------------------------------------
 Nuclear repulsion after PCM non-electrostatic terms =        9.1177260775 Hartrees.
 One-electron integrals computed using PRISM.
 NBasis=    29 RedAO= T  NBF=    14     2     5     8
 NBsUse=    29 1.00D-06 NBFU=    14     2     5     8
 Initial guess read from the checkpoint file:  D:\Documents\rayGit\FQ\quimicaComp
 utacional\p4Pka\reactivos\solvated\waterM062xsolvated.chk
 B after Tr=     0.000000    0.000000    0.000000
         Rot=    1.000000    0.000000    0.000000    0.000000 Ang=   0.00 deg.
 Initial guess orbital symmetries:
       Occupied  (A1) (A1) (B2) (A1) (B1)
       Virtual   (A1) (B2) (A1) (B1) (B2) (A1) (B2) (A1) (B2) (B1)
                 (A1) (A1) (A2) (A1) (B1) (A1) (B2) (B2) (A2) (B1)
                 (A1) (A1) (B2) (A1)
 Requested convergence on RMS density matrix=1.00D-08 within 128 cycles.
 Requested convergence on MAX density matrix=1.00D-06.
 Requested convergence on             energy=1.00D-06.
 No special actions if energy rises.
 Keep R1 ints in memory in canonical form, NReq=3054852.
 Error on total polarization charges =  0.02777
 SCF Done:  E(RM062X) =  -76.4094453522     A.U. after    1 cycles
             Convg  =    0.5605D-09             -V/T =  2.0090
 SMD-CDS (non-electrostatic) energy             (kcal/mol) =       1.46
 (included in total energy above)
 Range of M.O.s used for correlation:     1    29
 NBasis=    29 NAE=     5 NBE=     5 NFC=     0 NFV=     0
 NROrb=     29 NOA=     5 NOB=     5 NVA=    24 NVB=    24
 Symmetrizing basis deriv contribution to polar:
 IMax=3 JMax=2 DiffMx= 0.00D+00
 G2DrvN: will do     4 centers at a time, making    1 passes doing MaxLOS=2.
 Calling FoFCou, ICntrl=  3107 FMM=F I1Cent=   0 AccDes= 0.00D+00.
 FoFDir/FoFCou used for L=0 through L=2.
 G2PCM: DoFxE=T DoFxN=T DoGrad=T DoPD/DQ/DG=FFF NFrqRd=   0 IEInf=0 DoCFld=F IF1Alg=4.
 End of G2Drv Frequency-dependent properties file   721 does not exist.
 End of G2Drv Frequency-dependent properties file   722 does not exist.
          IDoAtm=111
 NEqPCM:  Using equilibrium solvation (IEInf=0, Eps=  78.3553, EpsInf=   1.7778)
          Differentiating once with respect to electric field.
                with respect to dipole field.
          Differentiating once with respect to nuclear coordinates.
          Keep R1 ints in memory in canonical form, NReq=915598.
          There are     9 degrees of freedom in the 1st order CPHF.  IDoFFX=4.
      9 vectors produced by pass  0 Test12= 1.33D-15 1.11D-08 XBig12= 2.12D+00 1.09D+00.
 AX will form     9 AO Fock derivatives at one time.
      9 vectors produced by pass  1 Test12= 1.33D-15 1.11D-08 XBig12= 1.63D-01 1.66D-01.
      9 vectors produced by pass  2 Test12= 1.33D-15 1.11D-08 XBig12= 2.23D-03 2.07D-02.
      9 vectors produced by pass  3 Test12= 1.33D-15 1.11D-08 XBig12= 8.65D-06 1.04D-03.
      9 vectors produced by pass  4 Test12= 1.33D-15 1.11D-08 XBig12= 7.66D-08 1.62D-04.
      7 vectors produced by pass  5 Test12= 1.33D-15 1.11D-08 XBig12= 1.45D-10 4.51D-06.
      3 vectors produced by pass  6 Test12= 1.33D-15 1.11D-08 XBig12= 1.03D-13 1.49D-07.
 Inverted reduced A of dimension    55 with in-core refinement.
 Isotropic polarizability for W=    0.000000        7.64 Bohr**3.
 End of Minotr Frequency-dependent properties file   721 does not exist.
 End of Minotr Frequency-dependent properties file   722 does not exist.

 **********************************************************************

            Population analysis using the SCF density.

 **********************************************************************

 Orbital symmetries:
       Occupied  (A1) (A1) (B2) (A1) (B1)
       Virtual   (A1) (B2) (A1) (B1) (B2) (A1) (B2) (A1) (B2) (B1)
                 (A1) (A1) (A2) (A1) (B1) (A1) (B2) (B2) (A2) (B1)
                 (A1) (A1) (B2) (A1)
 The electronic state is 1-A1.
 Alpha  occ. eigenvalues --  -19.64894  -1.13016  -0.60172  -0.47644  -0.40158
 Alpha virt. eigenvalues --    0.08621   0.15386   0.16890   0.18104   0.26645
 Alpha virt. eigenvalues --    0.30181   0.99292   1.08533   1.14117   1.18725
 Alpha virt. eigenvalues --    1.19471   1.28169   1.56864   1.58523   1.68208
 Alpha virt. eigenvalues --    2.29440   2.30557   2.57304   2.67606   2.69928
 Alpha virt. eigenvalues --    3.06420   3.37923   3.55350   3.93443
          Condensed to atoms (all electrons):
              1          2          3
     1  O    8.275816   0.286982   0.286982
     2  H    0.286982   0.304404  -0.016275
     3  H    0.286982  -0.016275   0.304404
 Mulliken atomic charges:
              1
     1  O   -0.849779
     2  H    0.424890
     3  H    0.424890
 Sum of Mulliken atomic charges =   0.00000
 Mulliken charges with hydrogens summed into heavy atoms:
              1
     1  O    0.000000
 Sum of Mulliken charges with hydrogens summed into heavy atoms =   0.00000
 APT atomic charges:
              1
     1  O   -0.803029
     2  H    0.401515
     3  H    0.401515
 Sum of APT charges=   0.00000
 APT Atomic charges with hydrogens summed into heavy atoms:
              1
     1  O    0.000000
     2  H    0.000000
     3  H    0.000000
 Sum of APT charges=   0.00000
 Electronic spatial extent (au):  <R**2>=             19.8202
 Charge=              0.0000 electrons
 Dipole moment (field-independent basis, Debye):
    X=              0.0000    Y=              0.0000    Z=             -2.6886  Tot=              2.6886
 Quadrupole moment (field-independent basis, Debye-Ang):
   XX=             -7.8533   YY=             -4.1293   ZZ=             -6.3883
   XY=              0.0000   XZ=              0.0000   YZ=              0.0000
 Traceless Quadrupole moment (field-independent basis, Debye-Ang):
   XX=             -1.7297   YY=              1.9944   ZZ=             -0.2647
   XY=              0.0000   XZ=              0.0000   YZ=              0.0000
 Octapole moment (field-independent basis, Debye-Ang**2):
  XXX=              0.0000  YYY=              0.0000  ZZZ=             -2.1743  XYY=              0.0000
  XXY=              0.0000  XXZ=             -0.6231  XZZ=              0.0000  YZZ=              0.0000
  YYZ=             -1.7761  XYZ=              0.0000
 Hexadecapole moment (field-independent basis, Debye-Ang**3):
 XXXX=             -7.6103 YYYY=             -5.7812 ZZZZ=             -7.7310 XXXY=              0.0000
 XXXZ=              0.0000 YYYX=              0.0000 YYYZ=              0.0000 ZZZX=              0.0000
 ZZZY=              0.0000 XXYY=             -2.5495 XXZZ=             -2.6172 YYZZ=             -1.8657
 XXYZ=              0.0000 YYXZ=              0.0000 ZZXY=              0.0000
 N-N= 9.117726077529D+00 E-N=-1.985905835272D+02  KE= 7.572835753633D+01
 Symmetry A1   KE= 6.768492632901D+01
 Symmetry A2   KE= 2.553793721760D-35
 Symmetry B1   KE= 4.390433661277D+00
 Symmetry B2   KE= 3.652997546044D+00
  Exact polarizability:   7.157   0.000   8.615   0.000   0.000   7.162
 Approx polarizability:   5.513   0.000   7.528   0.000   0.000   5.992
 D2PCM: PCM CHGder 2nd derivatives, FixD1E=F FixD2E=F DoIter=F DoCFld=F I1PDM=0
 Calling FoFJK, ICntrl=    100127 FMM=F ISym2X=1 I1Cent= 0 IOpClX= 0 NMat=1 NMatS=1 NMatT=0.
 Full mass-weighted force constant matrix:
 Low frequencies --- -307.4667 -246.3404 -217.4485    0.0007    0.0015    0.0016
 Low frequencies --- 1558.6214 3842.3632 3938.2890
 Diagonal vibrational polarizability:
        0.0000000       0.3352500       1.9135754
 Harmonic frequencies (cm**-1), IR intensities (KM/Mole), Raman scattering
 activities (A**4/AMU), depolarization ratios for plane and unpolarized
 incident light, reduced masses (AMU), force constants (mDyne/A),
 and normal coordinates:
                     1                      2                      3
                    A1                     A1                     B2
 Frequencies --  1558.6214              3842.3632              3938.2883
 Red. masses --     1.0814                 1.0463                 1.0821
 Frc consts  --     1.5478                 9.1016                 9.8890
 IR Inten    --   161.9761                65.4183               193.2194
  Atom  AN      X      Y      Z        X      Y      Z        X      Y      Z
     1   8     0.00   0.00   0.07     0.00   0.00   0.05     0.00   0.07   0.00
     2   1     0.00  -0.43  -0.56     0.00   0.58  -0.40     0.00  -0.56   0.43
     3   1     0.00   0.43  -0.56     0.00  -0.58  -0.40     0.00  -0.56  -0.43

 -------------------
 - Thermochemistry -
 -------------------
 Temperature   298.150 Kelvin.  Pressure   1.00000 Atm.
 Atom     1 has atomic number  8 and mass  15.99491
 Atom     2 has atomic number  1 and mass   1.00783
 Atom     3 has atomic number  1 and mass   1.00783
 Molecular mass:    18.01056 amu.
 Principal axes and moments of inertia in atomic units:
                           1         2         3
     Eigenvalues --     2.21862   4.21153   6.43015
           X            0.00000   0.00000   1.00000
           Y            1.00000   0.00000   0.00000
           Z            0.00000   1.00000   0.00000
 This molecule is an asymmetric top.
 Rotational symmetry number  2.
 Rotational temperatures (Kelvin)     39.03946    20.56587    13.46994
 Rotational constants (GHZ):         813.45138   428.52366   280.66841
 Zero-point vibrational energy      55861.3 (Joules/Mol)
                                   13.35116 (Kcal/Mol)
 Vibrational temperatures:   2242.51  5528.30  5666.31
          (Kelvin)
 
 Zero-point correction=                           0.021276 (Hartree/Particle)
 Thermal correction to Energy=                    0.024113
 Thermal correction to Enthalpy=                  0.025057
 Thermal correction to Gibbs Free Energy=         0.003623
 Sum of electronic and zero-point Energies=            -76.388169
 Sum of electronic and thermal Energies=               -76.385333
 Sum of electronic and thermal Enthalpies=             -76.384388
 Sum of electronic and thermal Free Energies=          -76.405823
 
                     E (Thermal)             CV                S
                      KCal/Mol        Cal/Mol-Kelvin    Cal/Mol-Kelvin
 Total                   15.131              6.023             45.112
 Electronic               0.000              0.000              0.000
 Translational            0.889              2.981             34.608
 Rotational               0.889              2.981             10.495
 Vibrational             13.354              0.061              0.009
                       Q            Log10(Q)             Ln(Q)
 Total Bot       0.215632D-01         -1.666287         -3.836768
 Total V=0       0.131877D+09          8.120170         18.697383
 Vib (Bot)       0.163598D-09         -9.786222        -22.533609
 Vib (V=0)       0.100054D+01          0.000235          0.000542
 Electronic      0.100000D+01          0.000000          0.000000
 Translational   0.300432D+07          6.477746         14.915562
 Rotational      0.438721D+02          1.642189          3.781280
 ***** Axes restored to original set *****
 -------------------------------------------------------------------
 Center     Atomic                   Forces (Hartrees/Bohr)
 Number     Number              X              Y              Z
 -------------------------------------------------------------------
      1        8          -0.000021892   -0.000030977    0.000000000
      2        1           0.000026896    0.000004216    0.000000000
      3        1          -0.000005004    0.000026761    0.000000000
 -------------------------------------------------------------------
 Cartesian Forces:  Max     0.000030977 RMS     0.000018016

 GradGradGradGradGradGradGradGradGradGradGradGradGradGradGradGradGradGrad
 Berny optimization.
 Internal  Forces:  Max     0.000027047 RMS     0.000022325
 Search for a local minimum.
 Step number   1 out of a maximum of    2
 All quantities printed in internal units (Hartrees-Bohrs-Radians)
 Second derivative matrix not updated -- analytic derivatives used.
 The second derivative matrix:
                          R1        R2        A1
           R1           0.54379
           R2          -0.00418   0.54379
           A1           0.02525   0.02525   0.14530
     Eigenvalues ---    0.14209   0.54281   0.54797
 Angle between quadratic step and forces=  29.10 degrees.
 Linear search not attempted -- first point.
 Iteration  1 RMS(Cart)=  0.00003567 RMS(Int)=  0.00000000
 Iteration  2 RMS(Cart)=  0.00000000 RMS(Int)=  0.00000000
 ClnCor:  largest displacement from symmetrization is 9.27D-15 for atom     3.
 Variable       Old X    -DE/DX   Delta X   Delta X   Delta X     New X
                                 (Linear)    (Quad)   (Total)
    R1        1.82451   0.00003   0.00000   0.00005   0.00005   1.82456
    R2        1.82451   0.00003   0.00000   0.00005   0.00005   1.82456
    A1        1.82900  -0.00001   0.00000  -0.00006  -0.00006   1.82895
         Item               Value     Threshold  Converged?
 Maximum Force            0.000027     0.000450     YES
 RMS     Force            0.000022     0.000300     YES
 Maximum Displacement     0.000040     0.001800     YES
 RMS     Displacement     0.000036     0.001200     YES
 Predicted change in Energy=-1.591024D-09
 Optimization completed.
    -- Stationary point found.
                           ----------------------------
                           !   Optimized Parameters   !
                           ! (Angstroms and Degrees)  !
 --------------------------                            --------------------------
 ! Name  Definition              Value          Derivative Info.                !
 --------------------------------------------------------------------------------
 ! R1    R(1,2)                  0.9655         -DE/DX =    0.0                 !
 ! R2    R(1,3)                  0.9655         -DE/DX =    0.0                 !
 ! A1    A(2,1,3)              104.7942         -DE/DX =    0.0                 !
 --------------------------------------------------------------------------------
 GradGradGradGradGradGradGradGradGradGradGradGradGradGradGradGradGradGrad

 1|1|UNPC-DESKTOP-319GPER|Freq|RM062X|6-31+G(d,p)|H2O1|SAGAD|19-Jan-202
 1|0||#N Geom=AllCheck Guess=TCheck SCRF=Check GenChk RM062X/6-31+G(d,p
 ) Freq||water M062x||0,1|O,-1.1673965872,1.3088790731,0.|H,-0.20272353
 61,1.348516092,0.|H,-1.4520475721,2.2314510245,0.||Version=IA32W-G09Re
 vA.02|State=1-A1|HF=-76.4094454|RMSD=5.605e-010|RMSF=1.802e-005|ZeroPo
 int=0.0212764|Thermal=0.0241128|Dipole=0.6104886,0.8638213,0.|DipoleDe
 riv=-0.7556062,0.0783945,0.,0.0783945,-0.7000843,0.,0.,0.,-0.9533969,0
 .3409799,-0.0364649,0.,-0.0680092,0.3868654,0.,0.,0.,0.4766984,0.41462
 63,-0.0419296,0.,-0.0103854,0.3132189,0.,0.,0.,0.4766984|Polar=8.13069
 78,-0.6846157,7.6458275,0.,0.,7.1567405|PG=C02V [C2(O1),SGV(H2)]|NImag
 =0||0.61039025,-0.10779660,0.53404469,0.,0.,-0.00320313,-0.53053881,0.
 00156144,0.,0.54418306,-0.05336161,-0.04167866,0.,0.00652809,0.0416029
 4,0.,0.,0.00160156,0.,0.,-0.00195801,-0.07985144,0.10623516,0.,-0.0136
 4425,0.04683352,0.,0.09349569,0.16115821,-0.49236603,0.,-0.00808953,0.
 00007572,0.,-0.15306868,0.49229032,0.,0.,0.00160156,0.,0.,0.00035644,0
 .,0.,-0.00195801||0.00002189,0.00003098,0.,-0.00002690,-0.00000422,0.,
 0.00000500,-0.00002676,0.|||@


 GOOD SENSE ABOUT TRIVIALITIES IS BETTER THAN NONSENSE
 ABOUT THINGS THAT MATTER

                                       -- MAX BEERBOHM
 Job cpu time:  0 days  0 hours  0 minutes  5.0 seconds.
 File lengths (MBytes):  RWF=      5 Int=      0 D2E=      0 Chk=      2 Scr=      1
 Normal termination of Gaussian 09 at Tue Jan 19 22:06:28 2021.
