 Entering Link 1 = C:\G09W\l1.exe PID=      2172.
  
 Copyright (c) 1988,1990,1992,1993,1995,1998,2003,2009, Gaussian, Inc.
                  All Rights Reserved.
  
 This is part of the Gaussian(R) 09 program.  It is based on
 the Gaussian(R) 03 system (copyright 2003, Gaussian, Inc.),
 the Gaussian(R) 98 system (copyright 1998, Gaussian, Inc.),
 the Gaussian(R) 94 system (copyright 1995, Gaussian, Inc.),
 the Gaussian 92(TM) system (copyright 1992, Gaussian, Inc.),
 the Gaussian 90(TM) system (copyright 1990, Gaussian, Inc.),
 the Gaussian 88(TM) system (copyright 1988, Gaussian, Inc.),
 the Gaussian 86(TM) system (copyright 1986, Carnegie Mellon
 University), and the Gaussian 82(TM) system (copyright 1983,
 Carnegie Mellon University). Gaussian is a federally registered
 trademark of Gaussian, Inc.
  
 This software contains proprietary and confidential information,
 including trade secrets, belonging to Gaussian, Inc.
  
 This software is provided under written license and may be
 used, copied, transmitted, or stored only in accord with that
 written license.
  
 The following legend is applicable only to US Government
 contracts under FAR:
  
                    RESTRICTED RIGHTS LEGEND
  
 Use, reproduction and disclosure by the US Government is
 subject to restrictions as set forth in subparagraphs (a)
 and (c) of the Commercial Computer Software - Restricted
 Rights clause in FAR 52.227-19.
  
 Gaussian, Inc.
 340 Quinnipiac St., Bldg. 40, Wallingford CT 06492
  
  
 ---------------------------------------------------------------
 Warning -- This program may not be used in any manner that
 competes with the business of Gaussian, Inc. or will provide
 assistance to any competitor of Gaussian, Inc.  The licensee
 of this program is prohibited from giving any competitor of
 Gaussian, Inc. access to this program.  By using this program,
 the user acknowledges that Gaussian, Inc. is engaged in the
 business of creating and licensing software in the field of
 computational chemistry and represents and warrants to the
 licensee that it is not a competitor of Gaussian, Inc. and that
 it will not use this program in any manner prohibited above.
 ---------------------------------------------------------------
  

 Cite this work as:
 Gaussian 09, Revision A.02,
 M. J. Frisch, G. W. Trucks, H. B. Schlegel, G. E. Scuseria, 
 M. A. Robb, J. R. Cheeseman, G. Scalmani, V. Barone, B. Mennucci, 
 G. A. Petersson, H. Nakatsuji, M. Caricato, X. Li, H. P. Hratchian, 
 A. F. Izmaylov, J. Bloino, G. Zheng, J. L. Sonnenberg, M. Hada, 
 M. Ehara, K. Toyota, R. Fukuda, J. Hasegawa, M. Ishida, T. Nakajima, 
 Y. Honda, O. Kitao, H. Nakai, T. Vreven, J. A. Montgomery, Jr., 
 J. E. Peralta, F. Ogliaro, M. Bearpark, J. J. Heyd, E. Brothers, 
 K. N. Kudin, V. N. Staroverov, R. Kobayashi, J. Normand, 
 K. Raghavachari, A. Rendell, J. C. Burant, S. S. Iyengar, J. Tomasi, 
 M. Cossi, N. Rega, J. M. Millam, M. Klene, J. E. Knox, J. B. Cross, 
 V. Bakken, C. Adamo, J. Jaramillo, R. Gomperts, R. E. Stratmann, 
 O. Yazyev, A. J. Austin, R. Cammi, C. Pomelli, J. W. Ochterski, 
 R. L. Martin, K. Morokuma, V. G. Zakrzewski, G. A. Voth, 
 P. Salvador, J. J. Dannenberg, S. Dapprich, A. D. Daniels, 
 O. Farkas, J. B. Foresman, J. V. Ortiz, J. Cioslowski, 
 and D. J. Fox, Gaussian, Inc., Wallingford CT, 2009.
 
 ******************************************
 Gaussian 09:  IA32W-G09RevA.02 11-Jun-2009
                02-Feb-2021 
 ******************************************
 %chk=D:\Documents\rayGit\FQ\quimicaComputacional\proyecto\decompositionHydrogenP
 eroxide\decompositionCatalyzedByIodine\step1\ts\ts.chk
 %mem=1500MB
 %nprocshared=4
 Will use up to    4 processors via shared memory.
 ----------------------------------------------------------------------
 # opt=(calcfc,ts,noeigen) freq=noraman lanl2dz scrf=smd iop(1/8=3) m06
 2x
 ----------------------------------------------------------------------
 1/5=1,8=3,10=4,11=1,14=-1,18=20,26=3,38=1/1,3;
 2/9=110,12=2,17=6,18=5,40=1/2;
 3/5=6,6=3,11=2,16=1,25=1,30=1,70=32201,71=2,72=1,74=-55/1,2,3;
 4//1;
 5/5=2,38=5/2;
 8/6=4,10=90,11=11/1;
 11/6=1,8=1,9=11,15=111,16=1/1,2,10;
 10/6=1,7=6,13=1/2;
 6/7=2,8=2,9=2,10=2,28=1/1;
 7/10=1,18=20,25=1/1,2,3,16;
 1/5=1,8=3,10=4,11=1,14=-1,18=20/3(2);
 2/9=110/2;
 99//99;
 2/9=110/2;
 3/5=6,6=3,11=2,16=1,25=1,30=1,70=32205,71=1,74=-55/1,2,3;
 4/5=5,16=3/1;
 5/5=2,38=5/2;
 7//1,2,3,16;
 1/5=1,8=3,11=1,14=-1,18=20/3(-5);
 2/9=110/2;
 6/7=2,8=2,9=2,10=2,19=2,28=1/1;
 99/9=1/99;
 -----------------------------
 Hydrogen peroxide with iodine
 -----------------------------
 Symbolic Z-matrix:
 Charge = -1 Multiplicity = 1
 O                    -1.59849   0.70831   0.195 
 H                    -1.27015   0.70831  -0.7071 
 O                     0.00151   0.70831   0.195 
 H                     0.32151   1.61341   0.195 
 I                    -2.98413   0.70831   0.995 
 

 GradGradGradGradGradGradGradGradGradGradGradGradGradGradGradGradGradGrad
 Berny optimization.
 Initialization pass.
                           ----------------------------
                           !    Initial Parameters    !
                           ! (Angstroms and Degrees)  !
 --------------------------                            --------------------------
 ! Name  Definition              Value          Derivative Info.                !
 --------------------------------------------------------------------------------
 ! R1    R(1,2)                  0.96           calculate D2E/DX2 analytically  !
 ! R2    R(1,3)                  1.6            calculate D2E/DX2 analytically  !
 ! R3    R(1,5)                  1.6            calculate D2E/DX2 analytically  !
 ! R4    R(2,3)                  1.5591         calculate D2E/DX2 analytically  !
 ! R5    R(3,4)                  0.96           calculate D2E/DX2 analytically  !
 ! A1    A(2,1,3)               70.0            calculate D2E/DX2 analytically  !
 ! A2    A(2,1,5)              140.0            calculate D2E/DX2 analytically  !
 ! A3    A(3,1,5)              150.0            calculate D2E/DX2 analytically  !
 ! A4    A(1,3,4)              109.4712         calculate D2E/DX2 analytically  !
 ! D1    D(2,1,3,4)             90.0            calculate D2E/DX2 analytically  !
 ! D2    D(5,1,3,4)            -90.0            calculate D2E/DX2 analytically  !
 --------------------------------------------------------------------------------
 Trust Radius=3.00D-02 FncErr=1.00D-07 GrdErr=1.00D-06
 Number of steps in this run=  21 maximum allowed number of steps= 100.
 Search for a saddle point of order  1.
 GradGradGradGradGradGradGradGradGradGradGradGradGradGradGradGradGradGrad

                          Input orientation:                          
 ---------------------------------------------------------------------
 Center     Atomic      Atomic             Coordinates (Angstroms)
 Number     Number       Type             X           Y           Z
 ---------------------------------------------------------------------
      1          8           0       -1.598492    0.708312    0.195000
      2          1           0       -1.270153    0.708312   -0.707105
      3          8           0        0.001508    0.708312    0.195000
      4          1           0        0.321508    1.613409    0.195000
      5         53           0       -2.984133    0.708312    0.995000
 ---------------------------------------------------------------------
                    Distance matrix (angstroms):
                    1          2          3          4          5
     1  O    0.000000
     2  H    0.960000   0.000000
     3  O    1.600000   1.559139   0.000000
     4  H    2.122640   2.041170   0.960000   0.000000
     5  I    1.600000   2.415551   3.090963   3.519440   0.000000
 Stoichiometry    H2IO2(1-)
 Framework group  C1[X(H2IO2)]
 Deg. of freedom     9
 Full point group                 C1      NOp   1
 Largest Abelian subgroup         C1      NOp   1
 Largest concise Abelian subgroup C1      NOp   1
                         Standard orientation:                         
 ---------------------------------------------------------------------
 Center     Atomic      Atomic             Coordinates (Angstroms)
 Number     Number       Type             X           Y           Z
 ---------------------------------------------------------------------
      1          8           0        0.963057    0.300912    0.009807
      2          1           0        1.556572    1.047368    0.120003
      3          8           0        2.482283   -0.184262   -0.118869
      4          1           0        2.812833   -0.434168    0.747089
      5         53           0       -0.602493   -0.029177    0.000102
 ---------------------------------------------------------------------
 Rotational constants (GHZ):    121.7123093      2.9926410      2.9464789
 Standard basis: LANL2DZ (5D, 7F)
 There are    30 symmetry adapted basis functions of A   symmetry.
 Integral buffers will be    262144 words long.
 Raffenetti 2 integral format.
 Two-electron integral symmetry is turned on.
    30 basis functions,    70 primitive gaussians,    30 cartesian basis functions
    13 alpha electrons       13 beta electrons
       nuclear repulsion energy        65.6500872748 Hartrees.



 Warning!  I  atom    5 may be hypervalent but has no d functions.



 NAtoms=    5 NActive=    5 NUniq=    5 SFac= 7.50D-01 NAtFMM=   80 NAOKFM=F Big=F
 ------------------------------------------------------------------------------
 Polarizable Continuum Model (PCM)
 =================================
 Model                : PCM.
 Atomic radii         : SMD-Coulomb.
 Polarization charges : Total charges.
 Charge compensation  : None.
 Solution method      : Matrix inversion.
 Cavity type          : VdW (van der Waals Surface) (Alpha=1.000).
 Cavity algorithm     : GePol (No added spheres)
                        Default sphere list used, NSphG=    5.
                        Lebedev-Laikov grids with approx.  5.0 points / Ang**2.
                        Smoothing algorithm: Karplus/York (Gamma=1.0000).
                        Polarization charges: spherical gaussians, with
                                              point-specific exponents (IZeta= 3).
                        Self-potential: point-specific (ISelfS= 7).
                        Self-field    : sphere-specific E.n sum rule (ISelfD= 2).
 1st derivatives      : Analytical E(r).r(x)/FMM algorithm (CHGder, D1EAlg=3).
                        Cavity 1st derivative terms included.
 2nd derivatives      : Analytical E(r).r(xy)/FMM algorithm (CHGder, D2EAlg=3).
                        Cavity 2nd derivative terms included.
 Solvent              : Water, Eps=  78.355300 Eps(inf)=   1.777849
 ------------------------------------------------------------------------------
 Spheres list:
 ISph  on   Nord    Re0     Alpha      Xe            Ye            Ze
    1   O      1    1.520   1.000      0.963057      0.300912      0.009807
    2   H      2    1.200   1.000      1.556572      1.047368      0.120003
    3   O      3    1.520   1.000      2.482283     -0.184262     -0.118869
    4   H      4    1.200   1.000      2.812833     -0.434168      0.747089
    5   I      5    1.980   1.000     -0.602493     -0.029177      0.000102
 ------------------------------------------------------------------------------
 ------------------------------------------------------------------------------
 Atomic radii for non-electrostatic terms: SMD-CDS.
 ------------------------------------------------------------------------------
 Nuclear repulsion after PCM non-electrostatic terms =       65.6520275148 Hartrees.
 One-electron integrals computed using PRISM.
   1 Symmetry operations used in ECPInt.
 ECPInt:  NShTT=     171 NPrTT=    1054 LenC2=     172 LenP2D=     959.
 LDataN:  DoStor=T MaxTD1= 4 Len=   56
 NBasis=    30 RedAO= T  NBF=    30
 NBsUse=    30 1.00D-06 NBFU=    30
 Defaulting to unpruned grid for atomic number  53.
 Harris functional with IExCor= 1009 diagonalized for initial guess.
 ExpMin= 1.05D-01 ExpMax= 7.82D+03 ExpMxC= 2.73D+02 IAcc=1 IRadAn=         1 AccDes= 0.00D+00
 HarFok:  IExCor= 1009 AccDes= 0.00D+00 IRadAn=         1 IDoV= 1
 ScaDFX=  1.000000  1.000000  1.000000  1.000000
 Defaulting to unpruned grid for atomic number  53.
 Defaulting to unpruned grid for atomic number  53.
 Defaulting to unpruned grid for atomic number  53.
 Defaulting to unpruned grid for atomic number  53.
 FoFCou: FMM=F IPFlag=           0 FMFlag=      100000 FMFlg1=           0
         NFxFlg=           0 DoJE=T BraDBF=F KetDBF=T FulRan=T
         Omega=  0.000000  0.000000  1.000000  0.000000  0.000000 ICntrl=     500 IOpCl=  0
         NMat0=    1 NMatS0=    1 NMatT0=    0 NMatD0=    1 NMtDS0=    0 NMtDT0=    0
         I1Cent=           4 NGrid=           0.
 Petite list used in FoFCou.
 Initial guess orbital symmetries:
       Occupied  (A) (A) (A) (A) (A) (A) (A) (A) (A) (A) (A) (A)
                 (A)
       Virtual   (A) (A) (A) (A) (A) (A) (A) (A) (A) (A) (A) (A)
                 (A) (A) (A) (A) (A)
 The electronic state of the initial guess is 1-A.
 Requested convergence on RMS density matrix=1.00D-08 within 128 cycles.
 Requested convergence on MAX density matrix=1.00D-06.
 Requested convergence on             energy=1.00D-06.
 No special actions if energy rises.
 Keep R1 ints in memory in canonical form, NReq=3376060.
 Defaulting to unpruned grid for atomic number  53.
 Defaulting to unpruned grid for atomic number  53.
 Defaulting to unpruned grid for atomic number  53.
 Defaulting to unpruned grid for atomic number  53.
 Error on total polarization charges =  0.08905
 SCF Done:  E(RM062X) =  -162.671809201     A.U. after   13 cycles
             Convg  =    0.6132D-08             -V/T =  2.0436
 SMD-CDS (non-electrostatic) energy             (kcal/mol) =       1.22
 (included in total energy above)
 Range of M.O.s used for correlation:     1    30
 NBasis=    30 NAE=    13 NBE=    13 NFC=     0 NFV=     0
 NROrb=     30 NOA=    13 NOB=    13 NVA=    17 NVB=    17
   1 Symmetry operations used in ECPInt.
 ECPInt:  NShTT=     171 NPrTT=    1054 LenC2=     172 LenP2D=     959.
 LDataN:  DoStor=T MaxTD1= 5 Len=  102
 Symmetrizing basis deriv contribution to polar:
 IMax=3 JMax=2 DiffMx= 0.00D+00
 G2DrvN: will do     6 centers at a time, making    1 passes doing MaxLOS=1.
 Calling FoFCou, ICntrl=  3107 FMM=F I1Cent=   0 AccDes= 0.00D+00.
 Defaulting to unpruned grid for atomic number  53.
 Defaulting to unpruned grid for atomic number  53.
 Defaulting to unpruned grid for atomic number  53.
 Defaulting to unpruned grid for atomic number  53.
 FoFDir/FoFCou used for L=0 through L=1.
 G2PCM: DoFxE=T DoFxN=T DoGrad=T DoPD/DQ/DG=FFF NFrqRd=   0 IEInf=0 DoCFld=F IF1Alg=4.
 End of G2Drv Frequency-dependent properties file   721 does not exist.
 End of G2Drv Frequency-dependent properties file   722 does not exist.
          IDoAtm=11111
 NEqPCM:  Using equilibrium solvation (IEInf=0, Eps=  78.3553, EpsInf=   1.7778)
          Differentiating once with respect to nuclear coordinates.
 Defaulting to unpruned grid for atomic number  53.
          Keep R1 ints in memory in canonical form, NReq=909353.
 Defaulting to unpruned grid for atomic number  53.
 Defaulting to unpruned grid for atomic number  53.
 Defaulting to unpruned grid for atomic number  53.
 Defaulting to unpruned grid for atomic number  53.
          There are    18 degrees of freedom in the 1st order CPHF.  IDoFFX=5.
     12 vectors produced by pass  0 Test12= 1.23D-11 5.56D-07 XBig12= 5.21D-01 6.01D-01.
 AX will form    12 AO Fock derivatives at one time.
     12 vectors produced by pass  1 Test12= 1.23D-11 5.56D-07 XBig12= 7.27D-02 7.91D-02.
     12 vectors produced by pass  2 Test12= 1.23D-11 5.56D-07 XBig12= 4.52D-03 1.77D-02.
     12 vectors produced by pass  3 Test12= 1.23D-11 5.56D-07 XBig12= 2.74D-05 1.61D-03.
      8 vectors produced by pass  4 Test12= 1.23D-11 5.56D-07 XBig12= 7.62D-08 6.18D-05.
      1 vectors produced by pass  5 Test12= 1.23D-11 5.56D-07 XBig12= 3.06D-10 4.02D-06.
 Inverted reduced A of dimension    57 with in-core refinement.
 End of Minotr Frequency-dependent properties file   721 does not exist.
 End of Minotr Frequency-dependent properties file   722 does not exist.

 **********************************************************************

            Population analysis using the SCF density.

 **********************************************************************

 Orbital symmetries:
       Occupied  (A) (A) (A) (A) (A) (A) (A) (A) (A) (A) (A) (A)
                 (A)
       Virtual   (A) (A) (A) (A) (A) (A) (A) (A) (A) (A) (A) (A)
                 (A) (A) (A) (A) (A)
 The electronic state is 1-A.
 Alpha  occ. eigenvalues --  -19.58334 -19.51059  -1.21699  -0.99507  -0.75844
 Alpha  occ. eigenvalues --   -0.55324  -0.51885  -0.48624  -0.38208  -0.29846
 Alpha  occ. eigenvalues --   -0.26719  -0.23872  -0.13887
 Alpha virt. eigenvalues --    0.06736   0.20130   0.23537   0.42390   0.43611
 Alpha virt. eigenvalues --    0.52576   0.70555   0.73739   0.79418   0.80294
 Alpha virt. eigenvalues --    0.88288   0.98676   1.11724   1.27613   1.56519
 Alpha virt. eigenvalues --    1.71756   9.61424
          Condensed to atoms (all electrons):
              1          2          3          4          5
     1  O   10.364889   0.299194  -0.886747   0.027584  -0.962442
     2  H    0.299194   0.258780  -0.030125   0.001929  -0.047851
     3  O   -0.886747  -0.030125   9.450426   0.225002   0.246279
     4  H    0.027584   0.001929   0.225002   0.458678  -0.018605
     5  I   -0.962442  -0.047851   0.246279  -0.018605   7.758792
 Mulliken atomic charges:
              1
     1  O   -0.842477
     2  H    0.518073
     3  O   -1.004835
     4  H    0.305411
     5  I    0.023828
 Sum of Mulliken atomic charges =  -1.00000
 Mulliken charges with hydrogens summed into heavy atoms:
              1
     1  O   -0.324404
     3  O   -0.699423
     5  I    0.023828
 Sum of Mulliken charges with hydrogens summed into heavy atoms =  -1.00000
 APT atomic charges:
              1
     1  O   -0.077697
     2  H    0.776159
     3  O   -1.979704
     4  H    0.454066
     5  I   -0.172823
 Sum of APT charges=  -1.00000
 APT Atomic charges with hydrogens summed into heavy atoms:
              1
     1  O    0.698461
     2  H    0.000000
     3  O   -1.525638
     4  H    0.000000
     5  I   -0.172823
 Sum of APT charges=  -1.00000
 Electronic spatial extent (au):  <R**2>=            352.2902
 Charge=             -1.0000 electrons
 Dipole moment (field-independent basis, Debye):
    X=             -5.3330    Y=              2.4444    Z=              2.5732  Tot=              6.4061
 Quadrupole moment (field-independent basis, Debye-Ang):
   XX=            -56.1828   YY=            -33.5554   ZZ=            -35.5673
   XY=              5.0220   XZ=              7.0000   YZ=             -0.5238
 Traceless Quadrupole moment (field-independent basis, Debye-Ang):
   XX=            -14.4143   YY=              8.2130   ZZ=              6.2012
   XY=              5.0220   XZ=              7.0000   YZ=             -0.5238
 Octapole moment (field-independent basis, Debye-Ang**2):
  XXX=            -87.5762  YYY=              4.1693  ZZZ=              2.0030  XYY=             -7.0289
  XXY=              5.0137  XXZ=             18.8966  XZZ=             -7.2360  YZZ=              0.1381
  YYZ=              1.2148  XYZ=             -2.0659
 Hexadecapole moment (field-independent basis, Debye-Ang**3):
 XXXX=           -565.1820 YYYY=            -57.7512 ZZZZ=            -56.8198 XXXY=             20.3477
 XXXZ=             54.9621 YYYX=             10.9737 YYYZ=              0.0120 ZZZX=              5.6674
 ZZZY=             -0.5301 XXYY=            -75.8713 XXZZ=            -74.9135 YYZZ=            -19.5749
 XXYZ=             -5.9468 YYXZ=              2.9342 ZZXY=              1.1677
 N-N= 6.565202751477D+01 E-N=-5.195592261928D+02  KE= 1.558769608361D+02
  Exact polarizability:   0.000   0.000   0.000   0.000   0.000   0.000
 Approx polarizability:  97.713   1.357  11.249   0.298  -0.606  10.819
   1 Symmetry operations used in ECPInt.
 ECPInt:  NShTT=     171 NPrTT=    1054 LenC2=     172 LenP2D=    1045.
 LDataN:  DoStor=T MaxTD1= 6 Len=  172
 D2PCM: PCM CHGder 2nd derivatives, FixD1E=F FixD2E=F DoIter=F DoCFld=F I1PDM=0
 Calling FoFJK, ICntrl=    100147 FMM=F ISym2X=0 I1Cent= 0 IOpClX= 0 NMat=1 NMatS=1 NMatT=0.
 Defaulting to unpruned grid for atomic number  53.
 Defaulting to unpruned grid for atomic number  53.
 Defaulting to unpruned grid for atomic number  53.
 Defaulting to unpruned grid for atomic number  53.
 ***** Axes restored to original set *****
 -------------------------------------------------------------------
 Center     Atomic                   Forces (Hartrees/Bohr)
 Number     Number              X              Y              Z
 -------------------------------------------------------------------
      1        8           0.146789955   -0.002278212   -0.202962277
      2        1          -0.008107223   -0.001937720   -0.019361114
      3        8           0.267837336   -0.018536323   -0.007617868
      4        1           0.015291701    0.022912343    0.001740076
      5       53          -0.421811769   -0.000160088    0.228201183
 -------------------------------------------------------------------
 Cartesian Forces:  Max     0.421811769 RMS     0.156224578

 GradGradGradGradGradGradGradGradGradGradGradGradGradGradGradGradGradGrad
 Berny optimization.
 Internal  Forces:  Max     0.479370027 RMS     0.164194864
 Search for a saddle point.
 Step number   1 out of a maximum of   21
 All quantities printed in internal units (Hartrees-Bohrs-Radians)
 Swaping is turned off.
 Second derivative matrix not updated -- analytic derivatives used.
 The second derivative matrix:
                          R1        R2        R3        R4        R5
           R1           0.50989
           R2          -0.03996   0.13098
           R3          -0.07982   0.21777   0.92539
           R4           0.06904   0.08413   0.03127   0.03613
           R5           0.00215  -0.00476   0.01272  -0.00053   0.56551
           A1          -0.01907  -0.00692  -0.07157  -0.02902   0.00160
           A2           0.00662  -0.00158   0.10606   0.01009  -0.00106
           A3           0.01245   0.00850  -0.03449   0.01893  -0.00053
           A4           0.00377   0.00214   0.02914   0.00713  -0.02667
           D1          -0.00083   0.00493  -0.00138   0.00349   0.00700
           D2           0.00014  -0.00268   0.00229  -0.00059   0.00065
                          A1        A2        A3        A4        D1
           A1          -0.01047
           A2           0.00550   0.02065
           A3           0.00497  -0.02615   0.02117
           A4           0.00251  -0.00239  -0.00012   0.01440
           D1          -0.00018  -0.00003   0.00020   0.01591  -0.00740
           D2           0.00090   0.00014  -0.00104   0.00218   0.02075
                          D2
           D2          -0.01696
     Eigenvalues ---   -0.06062  -0.03503  -0.00240   0.02522   0.02986
     Eigenvalues ---    0.13975   0.51043   0.56700   1.015081000.00000
     Eigenvalues --- 1000.00000
 Eigenvectors required to have negative eigenvalues:
                          R4        A1        R2        A2        A3
   1                    0.58278   0.53080  -0.40703  -0.35828  -0.17252
                          A4        R3        D1        D2        R1
   1                   -0.14545   0.14297   0.07609  -0.06708  -0.05222
 RFO step:  Lambda0=2.223146388D-02 Lambda=-2.66900920D-01.
 Linear search not attempted -- option 19 set.
 Maximum step size (   0.030) exceeded in Quadratic search.
    -- Step size scaled by   0.035
 Iteration  1 RMS(Cart)=  0.00661685 RMS(Int)=  0.00005173
 Iteration  2 RMS(Cart)=  0.00003606 RMS(Int)=  0.00000274
 Iteration  3 RMS(Cart)=  0.00000000 RMS(Int)=  0.00000274
 Variable       Old X    -DE/DX   Delta X   Delta X   Delta X     New X
                                 (Linear)    (Quad)   (Total)
    R1        1.81414  -0.00141   0.00000   0.00040   0.00040   1.81454
    R2        3.02356   0.23108   0.00000   0.00351   0.00352   3.02708
    R3        3.02356   0.47937   0.00000   0.01551   0.01551   3.03907
    R4        2.94635   0.06380   0.00000   0.01454   0.01453   2.96088
    R5        1.81414   0.02670   0.00000   0.00019   0.00019   1.81432
    A1        1.22173  -0.07105   0.00000   0.00661   0.00661   1.22834
    A2        2.44346   0.01497   0.00000  -0.01098  -0.01098   2.43248
    A3        2.61799   0.05608   0.00000   0.00437   0.00436   2.62236
    A4        1.91063   0.01229   0.00000  -0.01153  -0.01153   1.89910
    D1        1.57080   0.00342   0.00000   0.01007   0.01007   1.58087
    D2       -1.57080  -0.00015   0.00000   0.00424   0.00424  -1.56656
         Item               Value     Threshold  Converged?
 Maximum Force            0.479370     0.000450     NO 
 RMS     Force            0.164195     0.000300     NO 
 Maximum Displacement     0.011754     0.001800     NO 
 RMS     Displacement     0.006618     0.001200     NO 
 Predicted change in Energy=-8.578069D-03
 GradGradGradGradGradGradGradGradGradGradGradGradGradGradGradGradGradGrad

                          Input orientation:                          
 ---------------------------------------------------------------------
 Center     Atomic      Atomic             Coordinates (Angstroms)
 Number     Number       Type             X           Y           Z
 ---------------------------------------------------------------------
      1          8           0       -1.594127    0.709422    0.195541
      2          1           0       -1.273490    0.706195   -0.709551
      3          8           0        0.007728    0.706613    0.192356
      4          1           0        0.318910    1.614864    0.198215
      5         53           0       -2.988781    0.709563    0.996333
 ---------------------------------------------------------------------
                    Distance matrix (angstroms):
                    1          2          3          4          5
     1  O    0.000000
     2  H    0.960213   0.000000
     3  O    1.601860   1.566830   0.000000
     4  H    2.116492   2.045839   0.960098   0.000000
     5  I    1.608207   2.419148   3.102492   3.520992   0.000000
 Stoichiometry    H2IO2(1-)
 Framework group  C1[X(H2IO2)]
 Deg. of freedom     9
 Full point group                 C1      NOp   1
 Largest Abelian subgroup         C1      NOp   1
 Largest concise Abelian subgroup C1      NOp   1
                         Standard orientation:                         
 ---------------------------------------------------------------------
 Center     Atomic      Atomic             Coordinates (Angstroms)
 Number     Number       Type             X           Y           Z
 ---------------------------------------------------------------------
      1          8           0        0.969543    0.298931    0.010924
      2          1           0        1.556552    1.050850    0.120688
      3          8           0        2.491520   -0.183303   -0.119428
      4          1           0        2.811096   -0.437876    0.749395
      5         53           0       -0.604833   -0.029019   -0.000039
 ---------------------------------------------------------------------
 Rotational constants (GHZ):    121.9751909      2.9701373      2.9250052
 Standard basis: LANL2DZ (5D, 7F)
 There are    30 symmetry adapted basis functions of A   symmetry.
 Integral buffers will be    262144 words long.
 Raffenetti 2 integral format.
 Two-electron integral symmetry is turned on.
    30 basis functions,    70 primitive gaussians,    30 cartesian basis functions
    13 alpha electrons       13 beta electrons
       nuclear repulsion energy        65.4830601542 Hartrees.



 Warning!  I  atom    5 may be hypervalent but has no d functions.



 NAtoms=    5 NActive=    5 NUniq=    5 SFac= 7.50D-01 NAtFMM=   80 NAOKFM=F Big=F
 ------------------------------------------------------------------------------
 Polarizable Continuum Model (PCM)
 =================================
 Model                : PCM.
 Atomic radii         : SMD-Coulomb.
 Polarization charges : Total charges.
 Charge compensation  : None.
 Solution method      : Matrix inversion.
 Cavity type          : VdW (van der Waals Surface) (Alpha=1.000).
 Cavity algorithm     : GePol (No added spheres)
                        Default sphere list used, NSphG=    5.
                        Lebedev-Laikov grids with approx.  5.0 points / Ang**2.
                        Smoothing algorithm: Karplus/York (Gamma=1.0000).
                        Polarization charges: spherical gaussians, with
                                              point-specific exponents (IZeta= 3).
                        Self-potential: point-specific (ISelfS= 7).
                        Self-field    : sphere-specific E.n sum rule (ISelfD= 2).
 1st derivatives      : Analytical E(r).r(x)/FMM algorithm (CHGder, D1EAlg=3).
                        Cavity 1st derivative terms included.
 Solvent              : Water, Eps=  78.355300 Eps(inf)=   1.777849
 ------------------------------------------------------------------------------
 Spheres list:
 ISph  on   Nord    Re0     Alpha      Xe            Ye            Ze
    1   O      1    1.520   1.000      0.969543      0.298931      0.010924
    2   H      2    1.200   1.000      1.556552      1.050850      0.120688
    3   O      3    1.520   1.000      2.491520     -0.183303     -0.119428
    4   H      4    1.200   1.000      2.811096     -0.437876      0.749395
    5   I      5    1.980   1.000     -0.604833     -0.029019     -0.000039
 ------------------------------------------------------------------------------
 ------------------------------------------------------------------------------
 Atomic radii for non-electrostatic terms: SMD-CDS.
 ------------------------------------------------------------------------------
 Nuclear repulsion after PCM non-electrostatic terms =       65.4849996279 Hartrees.
 One-electron integrals computed using PRISM.
   1 Symmetry operations used in ECPInt.
 ECPInt:  NShTT=     171 NPrTT=    1054 LenC2=     172 LenP2D=     959.
 LDataN:  DoStor=T MaxTD1= 4 Len=   56
 NBasis=    30 RedAO= T  NBF=    30
 NBsUse=    30 1.00D-06 NBFU=    30
 Defaulting to unpruned grid for atomic number  53.
 Initial guess read from the read-write file.
 B after Tr=     0.000000    0.000000    0.000000
         Rot=    1.000000    0.000000    0.000000    0.000000 Ang=   0.00 deg.
 Initial guess orbital symmetries:
       Occupied  (A) (A) (A) (A) (A) (A) (A) (A) (A) (A) (A) (A)
                 (A)
       Virtual   (A) (A) (A) (A) (A) (A) (A) (A) (A) (A) (A) (A)
                 (A) (A) (A) (A) (A)
 Requested convergence on RMS density matrix=1.00D-08 within 128 cycles.
 Requested convergence on MAX density matrix=1.00D-06.
 Requested convergence on             energy=1.00D-06.
 No special actions if energy rises.
 Keep R1 ints in memory in canonical form, NReq=3376060.
 Defaulting to unpruned grid for atomic number  53.
 Defaulting to unpruned grid for atomic number  53.
 Defaulting to unpruned grid for atomic number  53.
 Defaulting to unpruned grid for atomic number  53.
 Error on total polarization charges =  0.08894
 SCF Done:  E(RM062X) =  -162.680388622     A.U. after   11 cycles
             Convg  =    0.6146D-08             -V/T =  2.0439
 SMD-CDS (non-electrostatic) energy             (kcal/mol) =       1.22
 (included in total energy above)
   1 Symmetry operations used in ECPInt.
 ECPInt:  NShTT=     171 NPrTT=    1054 LenC2=     172 LenP2D=     959.
 LDataN:  DoStor=T MaxTD1= 5 Len=  102
 D1PCM: PCM CHGder 1st derivatives, ID1Alg=3 FixD1E=F DoIter=F DoCFld=F I1PDM=0.
 Calling FoFJK, ICntrl=      2127 FMM=F ISym2X=0 I1Cent= 0 IOpClX= 0 NMat=1 NMatS=1 NMatT=0.
 Defaulting to unpruned grid for atomic number  53.
 Defaulting to unpruned grid for atomic number  53.
 Defaulting to unpruned grid for atomic number  53.
 Defaulting to unpruned grid for atomic number  53.
 ***** Axes restored to original set *****
 -------------------------------------------------------------------
 Center     Atomic                   Forces (Hartrees/Bohr)
 Number     Number              X              Y              Z
 -------------------------------------------------------------------
      1        8           0.142550321   -0.001620134   -0.194058337
      2        1          -0.008770205   -0.002013129   -0.019861368
      3        8           0.262770575   -0.018798871   -0.008270166
      4        1           0.014561618    0.022516747    0.001858143
      5       53          -0.411112309   -0.000084613    0.220331728
 -------------------------------------------------------------------
 Cartesian Forces:  Max     0.411112309 RMS     0.151923089

 GradGradGradGradGradGradGradGradGradGradGradGradGradGradGradGradGradGrad
 Berny optimization.
 Internal  Forces:  Max     0.466202138 RMS     0.159926497
 Search for a saddle point.
 Step number   2 out of a maximum of   21
 All quantities printed in internal units (Hartrees-Bohrs-Radians)
 Swaping is turned off.
 Update second derivatives using D2CorX and points    1    2
 The second derivative matrix:
                          R1        R2        R3        R4        R5
           R1           0.50988
           R2          -0.03985   0.13107
           R3          -0.07910   0.21732   0.91659
           R4           0.06961   0.08410   0.02603   0.03347
           R5           0.00217  -0.00482   0.01223  -0.00088   0.56549
           A1          -0.01896  -0.00638  -0.06963  -0.02700   0.00159
           A2           0.00632  -0.00204   0.10621   0.00925  -0.00093
           A3           0.01262   0.00847  -0.03623   0.01801  -0.00065
           A4           0.00341   0.00180   0.03049   0.00715  -0.02649
           D1          -0.00051   0.00519  -0.00277   0.00331   0.00683
           D2           0.00030  -0.00267   0.00094  -0.00123   0.00055
                          A1        A2        A3        A4        D1
           A1          -0.00927
           A2           0.00372   0.02251
           A3           0.00557  -0.02634   0.02086
           A4           0.00072  -0.00083  -0.00004   0.01555
           D1           0.00137  -0.00133   0.00009   0.01500  -0.00668
           D2           0.00150  -0.00016  -0.00126   0.00211   0.02077
                          D2
           D2          -0.01711
     Eigenvalues ---   -0.05919  -0.03480  -0.00139   0.02535   0.02989
     Eigenvalues ---    0.14015   0.51019   0.56697   1.006331000.00000
     Eigenvalues --- 1000.00000
 Eigenvectors required to have negative eigenvalues:
                          R4        A1        R2        A2        A3
   1                    0.58635   0.53470  -0.40873  -0.35506  -0.18006
                          R3        A4        D2        R1        D1
   1                    0.14547  -0.12471  -0.05394  -0.05277   0.04648
 RFO step:  Lambda0=2.121267928D-02 Lambda=-2.58702530D-01.
 Linear search not attempted -- option 19 set.
 Maximum step size (   0.030) exceeded in Quadratic search.
    -- Step size scaled by   0.035
 Iteration  1 RMS(Cart)=  0.00657633 RMS(Int)=  0.00004952
 Iteration  2 RMS(Cart)=  0.00003520 RMS(Int)=  0.00000186
 Iteration  3 RMS(Cart)=  0.00000000 RMS(Int)=  0.00000186
 Variable       Old X    -DE/DX   Delta X   Delta X   Delta X     New X
                                 (Linear)    (Quad)   (Total)
    R1        1.81454  -0.00108   0.00000   0.00038   0.00038   1.81492
    R2        3.02708   0.22601   0.00000   0.00339   0.00339   3.03046
    R3        3.03907   0.46620   0.00000   0.01549   0.01549   3.05456
    R4        2.96088   0.06285   0.00000   0.01485   0.01485   2.97572
    R5        1.81432   0.02604   0.00000   0.00022   0.00022   1.81454
    A1        1.22834  -0.06948   0.00000   0.00686   0.00686   1.23520
    A2        2.43248   0.01354   0.00000  -0.01109  -0.01109   2.42138
    A3        2.62236   0.05593   0.00000   0.00421   0.00421   2.62657
    A4        1.89910   0.01171   0.00000  -0.01118  -0.01118   1.88792
    D1        1.58087   0.00353   0.00000   0.00952   0.00952   1.59039
    D2       -1.56656  -0.00026   0.00000   0.00495   0.00495  -1.56161
         Item               Value     Threshold  Converged?
 Maximum Force            0.466202     0.000450     NO 
 RMS     Force            0.159926     0.000300     NO 
 Maximum Displacement     0.011692     0.001800     NO 
 RMS     Displacement     0.006577     0.001200     NO 
 Predicted change in Energy=-8.333745D-03
 GradGradGradGradGradGradGradGradGradGradGradGradGradGradGradGradGradGrad

                          Input orientation:                          
 ---------------------------------------------------------------------
 Center     Atomic      Atomic             Coordinates (Angstroms)
 Number     Number       Type             X           Y           Z
 ---------------------------------------------------------------------
      1          8           0       -1.589717    0.710229    0.196027
      2          1           0       -1.276959    0.704169   -0.712017
      3          8           0        0.013915    0.705034    0.189803
      4          1           0        0.316345    1.616301    0.201438
      5         53           0       -2.993345    0.710924    0.997643
 ---------------------------------------------------------------------
                    Distance matrix (angstroms):
                    1          2          3          4          5
     1  O    0.000000
     2  H    0.960416   0.000000
     3  O    1.603653   1.574686   0.000000
     4  H    2.110467   2.050610   0.960212   0.000000
     5  I    1.616403   2.422594   3.113880   3.522456   0.000000
 Stoichiometry    H2IO2(1-)
 Framework group  C1[X(H2IO2)]
 Deg. of freedom     9
 Full point group                 C1      NOp   1
 Largest Abelian subgroup         C1      NOp   1
 Largest concise Abelian subgroup C1      NOp   1
                         Standard orientation:                         
 ---------------------------------------------------------------------
 Center     Atomic      Atomic             Coordinates (Angstroms)
 Number     Number       Type             X           Y           Z
 ---------------------------------------------------------------------
      1          8           0        0.976009    0.297056    0.011884
      2          1           0        1.556340    1.054342    0.122029
      3          8           0        2.500641   -0.182341   -0.119935
      4          1           0        2.809297   -0.441958    0.751465
      5         53           0       -0.607148   -0.028870   -0.000171
 ---------------------------------------------------------------------
 Rotational constants (GHZ):    122.2030933      2.9481296      2.9039660
 Standard basis: LANL2DZ (5D, 7F)
 There are    30 symmetry adapted basis functions of A   symmetry.
 Integral buffers will be    262144 words long.
 Raffenetti 2 integral format.
 Two-electron integral symmetry is turned on.
    30 basis functions,    70 primitive gaussians,    30 cartesian basis functions
    13 alpha electrons       13 beta electrons
       nuclear repulsion energy        65.3186223255 Hartrees.



 Warning!  I  atom    5 may be hypervalent but has no d functions.



 NAtoms=    5 NActive=    5 NUniq=    5 SFac= 7.50D-01 NAtFMM=   80 NAOKFM=F Big=F
 ------------------------------------------------------------------------------
 Polarizable Continuum Model (PCM)
 =================================
 Model                : PCM.
 Atomic radii         : SMD-Coulomb.
 Polarization charges : Total charges.
 Charge compensation  : None.
 Solution method      : Matrix inversion.
 Cavity type          : VdW (van der Waals Surface) (Alpha=1.000).
 Cavity algorithm     : GePol (No added spheres)
                        Default sphere list used, NSphG=    5.
                        Lebedev-Laikov grids with approx.  5.0 points / Ang**2.
                        Smoothing algorithm: Karplus/York (Gamma=1.0000).
                        Polarization charges: spherical gaussians, with
                                              point-specific exponents (IZeta= 3).
                        Self-potential: point-specific (ISelfS= 7).
                        Self-field    : sphere-specific E.n sum rule (ISelfD= 2).
 1st derivatives      : Analytical E(r).r(x)/FMM algorithm (CHGder, D1EAlg=3).
                        Cavity 1st derivative terms included.
 Solvent              : Water, Eps=  78.355300 Eps(inf)=   1.777849
 ------------------------------------------------------------------------------
 Spheres list:
 ISph  on   Nord    Re0     Alpha      Xe            Ye            Ze
    1   O      1    1.520   1.000      0.976009      0.297056      0.011884
    2   H      2    1.200   1.000      1.556340      1.054342      0.122029
    3   O      3    1.520   1.000      2.500641     -0.182341     -0.119935
    4   H      4    1.200   1.000      2.809297     -0.441958      0.751465
    5   I      5    1.980   1.000     -0.607148     -0.028870     -0.000171
 ------------------------------------------------------------------------------
 ------------------------------------------------------------------------------
 Atomic radii for non-electrostatic terms: SMD-CDS.
 ------------------------------------------------------------------------------
 Nuclear repulsion after PCM non-electrostatic terms =       65.3205612061 Hartrees.
 One-electron integrals computed using PRISM.
   1 Symmetry operations used in ECPInt.
 ECPInt:  NShTT=     171 NPrTT=    1054 LenC2=     172 LenP2D=     959.
 LDataN:  DoStor=T MaxTD1= 4 Len=   56
 NBasis=    30 RedAO= T  NBF=    30
 NBsUse=    30 1.00D-06 NBFU=    30
 Defaulting to unpruned grid for atomic number  53.
 Initial guess read from the read-write file.
 B after Tr=     0.000000    0.000000    0.000000
         Rot=    1.000000    0.000000    0.000000    0.000000 Ang=   0.00 deg.
 Initial guess orbital symmetries:
       Occupied  (A) (A) (A) (A) (A) (A) (A) (A) (A) (A) (A) (A)
                 (A)
       Virtual   (A) (A) (A) (A) (A) (A) (A) (A) (A) (A) (A) (A)
                 (A) (A) (A) (A) (A)
 Requested convergence on RMS density matrix=1.00D-08 within 128 cycles.
 Requested convergence on MAX density matrix=1.00D-06.
 Requested convergence on             energy=1.00D-06.
 No special actions if energy rises.
 Keep R1 ints in memory in canonical form, NReq=3378505.
 Defaulting to unpruned grid for atomic number  53.
 Defaulting to unpruned grid for atomic number  53.
 Defaulting to unpruned grid for atomic number  53.
 Defaulting to unpruned grid for atomic number  53.
 Error on total polarization charges =  0.08883
 SCF Done:  E(RM062X) =  -162.688724432     A.U. after   11 cycles
             Convg  =    0.5923D-08             -V/T =  2.0442
 SMD-CDS (non-electrostatic) energy             (kcal/mol) =       1.22
 (included in total energy above)
   1 Symmetry operations used in ECPInt.
 ECPInt:  NShTT=     171 NPrTT=    1054 LenC2=     172 LenP2D=     959.
 LDataN:  DoStor=T MaxTD1= 5 Len=  102
 D1PCM: PCM CHGder 1st derivatives, ID1Alg=3 FixD1E=F DoIter=F DoCFld=F I1PDM=0.
 Calling FoFJK, ICntrl=      2127 FMM=F ISym2X=0 I1Cent= 0 IOpClX= 0 NMat=1 NMatS=1 NMatT=0.
 Defaulting to unpruned grid for atomic number  53.
 Defaulting to unpruned grid for atomic number  53.
 Defaulting to unpruned grid for atomic number  53.
 Defaulting to unpruned grid for atomic number  53.
 ***** Axes restored to original set *****
 -------------------------------------------------------------------
 Center     Atomic                   Forces (Hartrees/Bohr)
 Number     Number              X              Y              Z
 -------------------------------------------------------------------
      1        8           0.138585067   -0.001195267   -0.185580975
      2        1          -0.009430574   -0.002077171   -0.020344633
      3        8           0.257719008   -0.018948438   -0.008840763
      4        1           0.013889362    0.022119374    0.001961147
      5       53          -0.400762863    0.000101502    0.212805225
 -------------------------------------------------------------------
 Cartesian Forces:  Max     0.400762863 RMS     0.147782264

 GradGradGradGradGradGradGradGradGradGradGradGradGradGradGradGradGradGrad
 Berny optimization.
 Internal  Forces:  Max     0.453511714 RMS     0.155795717
 Search for a saddle point.
 Step number   3 out of a maximum of   21
 All quantities printed in internal units (Hartrees-Bohrs-Radians)
 Swaping is turned off.
 Update second derivatives using D2CorX and points    1    2    3
 The second derivative matrix:
                          R1        R2        R3        R4        R5
           R1           0.50988
           R2          -0.03987   0.13070
           R3          -0.07929   0.21476   0.90001
           R4           0.06960   0.08355   0.02087   0.03426
           R5           0.00216  -0.00497   0.01136  -0.00130   0.56545
           A1          -0.01895  -0.00651  -0.07132  -0.02627   0.00143
           A2           0.00630  -0.00197   0.10817   0.00764  -0.00070
           A3           0.01264   0.00851  -0.03661   0.01883  -0.00072
           A4           0.00338   0.00181   0.03211   0.00530  -0.02626
           D1          -0.00050   0.00497  -0.00538   0.00424   0.00659
           D2           0.00029  -0.00288  -0.00093  -0.00108   0.00041
                          A1        A2        A3        A4        D1
           A1          -0.00878
           A2           0.00275   0.02434
           A3           0.00602  -0.02717   0.02121
           A4          -0.00035   0.00117  -0.00092   0.01769
           D1           0.00202  -0.00263   0.00071   0.01355  -0.00583
           D2           0.00169  -0.00062  -0.00102   0.00158   0.02100
                          D2
           D2          -0.01710
     Eigenvalues ---   -0.05802  -0.03461   0.00081   0.02565   0.02993
     Eigenvalues ---    0.14196   0.50955   0.56693   0.990771000.00000
     Eigenvalues --- 1000.00000
 Eigenvectors required to have negative eigenvalues:
                          R4        A1        R2        A2        A3
   1                    0.58756   0.53844  -0.41309  -0.34850  -0.19038
                          R3        A4        R1        D2        D1
   1                    0.15089  -0.09271  -0.05250  -0.04558   0.01438
 RFO step:  Lambda0=1.967971221D-02 Lambda=-2.51627820D-01.
 Linear search not attempted -- option 19 set.
 Maximum step size (   0.030) exceeded in Quadratic search.
    -- Step size scaled by   0.040
 Iteration  1 RMS(Cart)=  0.00664961 RMS(Int)=  0.00002581
 Iteration  2 RMS(Cart)=  0.00002634 RMS(Int)=  0.00000310
 Iteration  3 RMS(Cart)=  0.00000000 RMS(Int)=  0.00000310
 Variable       Old X    -DE/DX   Delta X   Delta X   Delta X     New X
                                 (Linear)    (Quad)   (Total)
    R1        1.81492  -0.00076   0.00000   0.00025   0.00025   1.81518
    R2        3.03046   0.22099   0.00000   0.00374   0.00375   3.03421
    R3        3.05456   0.45351   0.00000   0.01738   0.01738   3.07194
    R4        2.97572   0.06192   0.00000   0.01793   0.01793   2.99365
    R5        1.81454   0.02541   0.00000   0.00084   0.00084   1.81538
    A1        1.23520  -0.06792   0.00000   0.00848   0.00848   1.24368
    A2        2.42138   0.01216   0.00000  -0.01226  -0.01227   2.40912
    A3        2.62657   0.05574   0.00000   0.00374   0.00373   2.63030
    A4        1.88792   0.01121   0.00000  -0.00295  -0.00295   1.88497
    D1        1.59039   0.00359   0.00000   0.00264   0.00264   1.59303
    D2       -1.56161  -0.00033   0.00000  -0.00312  -0.00312  -1.56473
         Item               Value     Threshold  Converged?
 Maximum Force            0.453512     0.000450     NO 
 RMS     Force            0.155796     0.000300     NO 
 Maximum Displacement     0.013612     0.001800     NO 
 RMS     Displacement     0.006652     0.001200     NO 
 Predicted change in Energy=-9.171408D-03
 GradGradGradGradGradGradGradGradGradGradGradGradGradGradGradGradGradGrad

                          Input orientation:                          
 ---------------------------------------------------------------------
 Center     Atomic      Atomic             Coordinates (Angstroms)
 Number     Number       Type             X           Y           Z
 ---------------------------------------------------------------------
      1          8           0       -1.586366    0.711229    0.196892
      2          1           0       -1.281790    0.703036   -0.714055
      3          8           0        0.019242    0.705016    0.189778
      4          1           0        0.319701    1.617398    0.201727
      5         53           0       -3.000548    0.709977    0.998553
 ---------------------------------------------------------------------
                    Distance matrix (angstroms):
                    1          2          3          4          5
     1  O    0.000000
     2  H    0.960550   0.000000
     3  O    1.605635   1.584173   0.000000
     4  H    2.110511   2.059002   0.960656   0.000000
     5  I    1.625600   2.426356   3.126223   3.533044   0.000000
 Stoichiometry    H2IO2(1-)
 Framework group  C1[X(H2IO2)]
 Deg. of freedom     9
 Full point group                 C1      NOp   1
 Largest Abelian subgroup         C1      NOp   1
 Largest concise Abelian subgroup C1      NOp   1
                         Standard orientation:                         
 ---------------------------------------------------------------------
 Center     Atomic      Atomic             Coordinates (Angstroms)
 Number     Number       Type             X           Y           Z
 ---------------------------------------------------------------------
      1          8           0        0.983091    0.295362    0.012217
      2          1           0        1.555717    1.058990    0.120052
      3          8           0        2.510331   -0.182248   -0.120035
      4          1           0        2.817427   -0.440015    0.752954
      5         53           0       -0.609821   -0.028753   -0.000197
 ---------------------------------------------------------------------
 Rotational constants (GHZ):    122.4097560      2.9234993      2.8802525
 Standard basis: LANL2DZ (5D, 7F)
 There are    30 symmetry adapted basis functions of A   symmetry.
 Integral buffers will be    262144 words long.
 Raffenetti 2 integral format.
 Two-electron integral symmetry is turned on.
    30 basis functions,    70 primitive gaussians,    30 cartesian basis functions
    13 alpha electrons       13 beta electrons
       nuclear repulsion energy        65.1258854724 Hartrees.



 Warning!  I  atom    5 may be hypervalent but has no d functions.



 NAtoms=    5 NActive=    5 NUniq=    5 SFac= 7.50D-01 NAtFMM=   80 NAOKFM=F Big=F
 ------------------------------------------------------------------------------
 Polarizable Continuum Model (PCM)
 =================================
 Model                : PCM.
 Atomic radii         : SMD-Coulomb.
 Polarization charges : Total charges.
 Charge compensation  : None.
 Solution method      : Matrix inversion.
 Cavity type          : VdW (van der Waals Surface) (Alpha=1.000).
 Cavity algorithm     : GePol (No added spheres)
                        Default sphere list used, NSphG=    5.
                        Lebedev-Laikov grids with approx.  5.0 points / Ang**2.
                        Smoothing algorithm: Karplus/York (Gamma=1.0000).
                        Polarization charges: spherical gaussians, with
                                              point-specific exponents (IZeta= 3).
                        Self-potential: point-specific (ISelfS= 7).
                        Self-field    : sphere-specific E.n sum rule (ISelfD= 2).
 1st derivatives      : Analytical E(r).r(x)/FMM algorithm (CHGder, D1EAlg=3).
                        Cavity 1st derivative terms included.
 Solvent              : Water, Eps=  78.355300 Eps(inf)=   1.777849
 ------------------------------------------------------------------------------
 Spheres list:
 ISph  on   Nord    Re0     Alpha      Xe            Ye            Ze
    1   O      1    1.520   1.000      0.983091      0.295362      0.012217
    2   H      2    1.200   1.000      1.555717      1.058990      0.120052
    3   O      3    1.520   1.000      2.510331     -0.182248     -0.120035
    4   H      4    1.200   1.000      2.817427     -0.440015      0.752954
    5   I      5    1.980   1.000     -0.609821     -0.028753     -0.000197
 ------------------------------------------------------------------------------
 ------------------------------------------------------------------------------
 Atomic radii for non-electrostatic terms: SMD-CDS.
 ------------------------------------------------------------------------------
 Nuclear repulsion after PCM non-electrostatic terms =       65.1278295697 Hartrees.
 One-electron integrals computed using PRISM.
   1 Symmetry operations used in ECPInt.
 ECPInt:  NShTT=     171 NPrTT=    1054 LenC2=     172 LenP2D=     959.
 LDataN:  DoStor=T MaxTD1= 4 Len=   56
 NBasis=    30 RedAO= T  NBF=    30
 NBsUse=    30 1.00D-06 NBFU=    30
 Defaulting to unpruned grid for atomic number  53.
 Initial guess read from the read-write file.
 B after Tr=     0.000000    0.000000    0.000000
         Rot=    1.000000    0.000000    0.000000    0.000000 Ang=   0.00 deg.
 Initial guess orbital symmetries:
       Occupied  (A) (A) (A) (A) (A) (A) (A) (A) (A) (A) (A) (A)
                 (A)
       Virtual   (A) (A) (A) (A) (A) (A) (A) (A) (A) (A) (A) (A)
                 (A) (A) (A) (A) (A)
 Requested convergence on RMS density matrix=1.00D-08 within 128 cycles.
 Requested convergence on MAX density matrix=1.00D-06.
 Requested convergence on             energy=1.00D-06.
 No special actions if energy rises.
 Keep R1 ints in memory in canonical form, NReq=3379677.
 Defaulting to unpruned grid for atomic number  53.
 Defaulting to unpruned grid for atomic number  53.
 Defaulting to unpruned grid for atomic number  53.
 Defaulting to unpruned grid for atomic number  53.
 Error on total polarization charges =  0.08871
 SCF Done:  E(RM062X) =  -162.697901881     A.U. after   11 cycles
             Convg  =    0.4388D-08             -V/T =  2.0445
 SMD-CDS (non-electrostatic) energy             (kcal/mol) =       1.22
 (included in total energy above)
   1 Symmetry operations used in ECPInt.
 ECPInt:  NShTT=     171 NPrTT=    1054 LenC2=     172 LenP2D=     959.
 LDataN:  DoStor=T MaxTD1= 5 Len=  102
 D1PCM: PCM CHGder 1st derivatives, ID1Alg=3 FixD1E=F DoIter=F DoCFld=F I1PDM=0.
 Calling FoFJK, ICntrl=      2127 FMM=F ISym2X=0 I1Cent= 0 IOpClX= 0 NMat=1 NMatS=1 NMatT=0.
 Defaulting to unpruned grid for atomic number  53.
 Defaulting to unpruned grid for atomic number  53.
 Defaulting to unpruned grid for atomic number  53.
 Defaulting to unpruned grid for atomic number  53.
 ***** Axes restored to original set *****
 -------------------------------------------------------------------
 Center     Atomic                   Forces (Hartrees/Bohr)
 Number     Number              X              Y              Z
 -------------------------------------------------------------------
      1        8           0.134381382   -0.000334059   -0.176439967
      2        1          -0.010105292   -0.002113883   -0.020893122
      3        8           0.251812000   -0.018673755   -0.008934695
      4        1           0.013310750    0.021545497    0.001941137
      5       53          -0.389398840   -0.000423800    0.204326647
 -------------------------------------------------------------------
 Cartesian Forces:  Max     0.389398840 RMS     0.143200705

 GradGradGradGradGradGradGradGradGradGradGradGradGradGradGradGradGradGrad
 Berny optimization.
 Internal  Forces:  Max     0.439488250 RMS     0.151211263
 Search for a saddle point.
 Step number   4 out of a maximum of   21
 All quantities printed in internal units (Hartrees-Bohrs-Radians)
 Swaping is turned off.
 Update second derivatives using D2CorX and points    1    2    3    4
 The second derivative matrix:
                          R1        R2        R3        R4        R5
           R1           0.50987
           R2          -0.03992   0.13057
           R3          -0.07979   0.21225   0.87511
           R4           0.06943   0.08360   0.01351   0.03679
           R5           0.00215  -0.00499   0.01100  -0.00121   0.56543
           A1          -0.01898  -0.00617  -0.07250  -0.02377   0.00151
           A2           0.00634  -0.00255   0.10955   0.00374  -0.00084
           A3           0.01263   0.00875  -0.03675   0.02025  -0.00066
           A4           0.00342   0.00159   0.03328   0.00398  -0.02636
           D1          -0.00055   0.00506  -0.00695   0.00512   0.00665
           D2           0.00031  -0.00285  -0.00031  -0.00108   0.00041
                          A1        A2        A3        A4        D1
           A1          -0.00714
           A2           0.00022   0.02821
           A3           0.00691  -0.02851   0.02167
           A4          -0.00135   0.00267  -0.00143   0.01814
           D1           0.00278  -0.00380   0.00112   0.01316  -0.00553
           D2           0.00161  -0.00049  -0.00107   0.00156   0.02104
                          D2
           D2          -0.01707
     Eigenvalues ---   -0.05484  -0.03457   0.00116   0.02574   0.03054
     Eigenvalues ---    0.14620   0.50834   0.56693   0.967771000.00000
     Eigenvalues --- 1000.00000
 Eigenvectors required to have negative eigenvalues:
                          R4        A1        R2        A2        A3
   1                    0.58190   0.54110  -0.42330  -0.33142  -0.21003
                          R3        A4        R1        D2        R5
   1                    0.15949  -0.07609  -0.05077  -0.03855  -0.01003
 RFO step:  Lambda0=1.917766729D-02 Lambda=-2.43957133D-01.
 Linear search not attempted -- option 19 set.
 Maximum step size (   0.030) exceeded in Quadratic search.
    -- Step size scaled by   0.040
 Iteration  1 RMS(Cart)=  0.00654763 RMS(Int)=  0.00002542
 Iteration  2 RMS(Cart)=  0.00002591 RMS(Int)=  0.00000289
 Iteration  3 RMS(Cart)=  0.00000000 RMS(Int)=  0.00000289
 Variable       Old X    -DE/DX   Delta X   Delta X   Delta X     New X
                                 (Linear)    (Quad)   (Total)
    R1        1.81518  -0.00039   0.00000   0.00032   0.00033   1.81550
    R2        3.03421   0.21530   0.00000   0.00314   0.00314   3.03735
    R3        3.07194   0.43949   0.00000   0.01760   0.01760   3.08954
    R4        2.99365   0.06086   0.00000   0.01800   0.01800   3.01165
    R5        1.81538   0.02467   0.00000   0.00082   0.00082   1.81620
    A1        1.24368  -0.06618   0.00000   0.00881   0.00881   1.25249
    A2        2.40912   0.01067   0.00000  -0.01210  -0.01210   2.39701
    A3        2.63030   0.05548   0.00000   0.00324   0.00323   2.63353
    A4        1.88497   0.01065   0.00000  -0.00262  -0.00262   1.88235
    D1        1.59303   0.00364   0.00000   0.00215   0.00215   1.59518
    D2       -1.56473  -0.00042   0.00000  -0.00307  -0.00307  -1.56781
         Item               Value     Threshold  Converged?
 Maximum Force            0.439488     0.000450     NO 
 RMS     Force            0.151211     0.000300     NO 
 Maximum Displacement     0.013311     0.001800     NO 
 RMS     Displacement     0.006549     0.001200     NO 
 Predicted change in Energy=-8.852801D-03
 GradGradGradGradGradGradGradGradGradGradGradGradGradGradGradGradGradGrad

                          Input orientation:                          
 ---------------------------------------------------------------------
 Center     Atomic      Atomic             Coordinates (Angstroms)
 Number     Number       Type             X           Y           Z
 ---------------------------------------------------------------------
      1          8           0       -1.582925    0.712111    0.197562
      2          1           0       -1.286606    0.701949   -0.716264
      3          8           0        0.024339    0.705048    0.189981
      4          1           0        0.323023    1.618468    0.202015
      5         53           0       -3.007592    0.709080    0.999600
 ---------------------------------------------------------------------
                    Distance matrix (angstroms):
                    1          2          3          4          5
     1  O    0.000000
     2  H    0.960722   0.000000
     3  O    1.607298   1.593697   0.000000
     4  H    2.110484   2.067402   0.961090   0.000000
     5  I    1.634916   2.430233   3.138170   3.543463   0.000000
 Stoichiometry    H2IO2(1-)
 Framework group  C1[X(H2IO2)]
 Deg. of freedom     9
 Full point group                 C1      NOp   1
 Largest Abelian subgroup         C1      NOp   1
 Largest concise Abelian subgroup C1      NOp   1
                         Standard orientation:                         
 ---------------------------------------------------------------------
 Center     Atomic      Atomic             Coordinates (Angstroms)
 Number     Number       Type             X           Y           Z
 ---------------------------------------------------------------------
      1          8           0        0.990273    0.293927    0.012464
      2          1           0        1.555161    1.063810    0.118151
      3          8           0        2.519658   -0.182323   -0.120106
      4          1           0        2.825427   -0.438106    0.754407
      5         53           0       -0.612453   -0.028652   -0.000216
 ---------------------------------------------------------------------
 Rotational constants (GHZ):    122.5014508      2.8997172      2.8572831
 Standard basis: LANL2DZ (5D, 7F)
 There are    30 symmetry adapted basis functions of A   symmetry.
 Integral buffers will be    262144 words long.
 Raffenetti 2 integral format.
 Two-electron integral symmetry is turned on.
    30 basis functions,    70 primitive gaussians,    30 cartesian basis functions
    13 alpha electrons       13 beta electrons
       nuclear repulsion energy        64.9388183058 Hartrees.



 Warning!  I  atom    5 may be hypervalent but has no d functions.



 NAtoms=    5 NActive=    5 NUniq=    5 SFac= 7.50D-01 NAtFMM=   80 NAOKFM=F Big=F
 ------------------------------------------------------------------------------
 Polarizable Continuum Model (PCM)
 =================================
 Model                : PCM.
 Atomic radii         : SMD-Coulomb.
 Polarization charges : Total charges.
 Charge compensation  : None.
 Solution method      : Matrix inversion.
 Cavity type          : VdW (van der Waals Surface) (Alpha=1.000).
 Cavity algorithm     : GePol (No added spheres)
                        Default sphere list used, NSphG=    5.
                        Lebedev-Laikov grids with approx.  5.0 points / Ang**2.
                        Smoothing algorithm: Karplus/York (Gamma=1.0000).
                        Polarization charges: spherical gaussians, with
                                              point-specific exponents (IZeta= 3).
                        Self-potential: point-specific (ISelfS= 7).
                        Self-field    : sphere-specific E.n sum rule (ISelfD= 2).
 1st derivatives      : Analytical E(r).r(x)/FMM algorithm (CHGder, D1EAlg=3).
                        Cavity 1st derivative terms included.
 Solvent              : Water, Eps=  78.355300 Eps(inf)=   1.777849
 ------------------------------------------------------------------------------
 Spheres list:
 ISph  on   Nord    Re0     Alpha      Xe            Ye            Ze
    1   O      1    1.520   1.000      0.990273      0.293927      0.012464
    2   H      2    1.200   1.000      1.555161      1.063810      0.118151
    3   O      3    1.520   1.000      2.519658     -0.182323     -0.120106
    4   H      4    1.200   1.000      2.825427     -0.438106      0.754407
    5   I      5    1.980   1.000     -0.612453     -0.028652     -0.000216
 ------------------------------------------------------------------------------
 ------------------------------------------------------------------------------
 Atomic radii for non-electrostatic terms: SMD-CDS.
 ------------------------------------------------------------------------------
 Nuclear repulsion after PCM non-electrostatic terms =       64.9407677397 Hartrees.
 One-electron integrals computed using PRISM.
   1 Symmetry operations used in ECPInt.
 ECPInt:  NShTT=     171 NPrTT=    1054 LenC2=     172 LenP2D=     959.
 LDataN:  DoStor=T MaxTD1= 4 Len=   56
 NBasis=    30 RedAO= T  NBF=    30
 NBsUse=    30 1.00D-06 NBFU=    30
 Defaulting to unpruned grid for atomic number  53.
 Initial guess read from the read-write file.
 B after Tr=     0.000000    0.000000    0.000000
         Rot=    1.000000    0.000000    0.000000    0.000000 Ang=   0.00 deg.
 Initial guess orbital symmetries:
       Occupied  (A) (A) (A) (A) (A) (A) (A) (A) (A) (A) (A) (A)
                 (A)
       Virtual   (A) (A) (A) (A) (A) (A) (A) (A) (A) (A) (A) (A)
                 (A) (A) (A) (A) (A)
 Requested convergence on RMS density matrix=1.00D-08 within 128 cycles.
 Requested convergence on MAX density matrix=1.00D-06.
 Requested convergence on             energy=1.00D-06.
 No special actions if energy rises.
 Keep R1 ints in memory in canonical form, NReq=3382068.
 Defaulting to unpruned grid for atomic number  53.
 Defaulting to unpruned grid for atomic number  53.
 Defaulting to unpruned grid for atomic number  53.
 Defaulting to unpruned grid for atomic number  53.
 Error on total polarization charges =  0.08862
 SCF Done:  E(RM062X) =  -162.706760518     A.U. after   11 cycles
             Convg  =    0.3832D-08             -V/T =  2.0449
 SMD-CDS (non-electrostatic) energy             (kcal/mol) =       1.22
 (included in total energy above)
   1 Symmetry operations used in ECPInt.
 ECPInt:  NShTT=     171 NPrTT=    1054 LenC2=     172 LenP2D=     959.
 LDataN:  DoStor=T MaxTD1= 5 Len=  102
 D1PCM: PCM CHGder 1st derivatives, ID1Alg=3 FixD1E=F DoIter=F DoCFld=F I1PDM=0.
 Calling FoFJK, ICntrl=      2127 FMM=F ISym2X=0 I1Cent= 0 IOpClX= 0 NMat=1 NMatS=1 NMatT=0.
 Defaulting to unpruned grid for atomic number  53.
 Defaulting to unpruned grid for atomic number  53.
 Defaulting to unpruned grid for atomic number  53.
 Defaulting to unpruned grid for atomic number  53.
 ***** Axes restored to original set *****
 -------------------------------------------------------------------
 Center     Atomic                   Forces (Hartrees/Bohr)
 Number     Number              X              Y              Z
 -------------------------------------------------------------------
      1        8           0.130372343    0.000407566   -0.167805492
      2        1          -0.010821730   -0.002146139   -0.021444954
      3        8           0.246010508   -0.018384440   -0.008918641
      4        1           0.012756233    0.020992392    0.001919074
      5       53          -0.378317354   -0.000869380    0.196250013
 -------------------------------------------------------------------
 Cartesian Forces:  Max     0.378317354 RMS     0.138785693

 GradGradGradGradGradGradGradGradGradGradGradGradGradGradGradGradGradGrad
 Berny optimization.
 Internal  Forces:  Max     0.425911939 RMS     0.146761409
 Search for a saddle point.
 Step number   5 out of a maximum of   21
 All quantities printed in internal units (Hartrees-Bohrs-Radians)
 Swaping is turned off.
 Update second derivatives using D2CorX and points    1    2    3    4    5
 The second derivative matrix:
                          R1        R2        R3        R4        R5
           R1           0.50985
           R2          -0.04000   0.13028
           R3          -0.08042   0.20961   0.85279
           R4           0.06920   0.08327   0.00792   0.03945
           R5           0.00213  -0.00506   0.01029  -0.00129   0.56541
           A1          -0.01908  -0.00624  -0.07454  -0.02219   0.00150
           A2           0.00644  -0.00263   0.11098   0.00089  -0.00088
           A3           0.01262   0.00889  -0.03620   0.02147  -0.00062
           A4           0.00344   0.00157   0.03308   0.00340  -0.02637
           D1          -0.00057   0.00506  -0.00690   0.00557   0.00665
           D2           0.00034  -0.00285   0.00064  -0.00175   0.00041
                          A1        A2        A3        A4        D1
           A1          -0.00622
           A2          -0.00130   0.03064
           A3           0.00750  -0.02938   0.02194
           A4          -0.00156   0.00300  -0.00155   0.01806
           D1           0.00292  -0.00406   0.00123   0.01320  -0.00553
           D2           0.00116   0.00024  -0.00134   0.00179   0.02088
                          D2
           D2          -0.01698
     Eigenvalues ---   -0.05292  -0.03443   0.00090   0.02579   0.03087
     Eigenvalues ---    0.14921   0.50717   0.56691   0.947341000.00000
     Eigenvalues --- 1000.00000
 Eigenvectors required to have negative eigenvalues:
                          R4        A1        R2        A2        A3
   1                    0.57658   0.54237  -0.43000  -0.32057  -0.22163
                          R3        A4        R1        D1        D2
   1                    0.16771  -0.07150  -0.04898  -0.02680  -0.01252
 RFO step:  Lambda0=1.773627495D-02 Lambda=-2.36486850D-01.
 Linear search not attempted -- option 19 set.
 Maximum step size (   0.030) exceeded in Quadratic search.
    -- Step size scaled by   0.040
 Iteration  1 RMS(Cart)=  0.00651407 RMS(Int)=  0.00002472
 Iteration  2 RMS(Cart)=  0.00002603 RMS(Int)=  0.00000255
 Iteration  3 RMS(Cart)=  0.00000000 RMS(Int)=  0.00000255
 Variable       Old X    -DE/DX   Delta X   Delta X   Delta X     New X
                                 (Linear)    (Quad)   (Total)
    R1        1.81550  -0.00005   0.00000   0.00038   0.00038   1.81589
    R2        3.03735   0.20969   0.00000   0.00313   0.00313   3.04049
    R3        3.08954   0.42591   0.00000   0.01778   0.01778   3.10732
    R4        3.01165   0.05985   0.00000   0.01812   0.01811   3.02976
    R5        1.81620   0.02396   0.00000   0.00090   0.00090   1.81710
    A1        1.25249  -0.06444   0.00000   0.00888   0.00888   1.26137
    A2        2.39701   0.00920   0.00000  -0.01205  -0.01205   2.38496
    A3        2.63353   0.05520   0.00000   0.00323   0.00322   2.63675
    A4        1.88235   0.01010   0.00000  -0.00167  -0.00167   1.88067
    D1        1.59518   0.00367   0.00000  -0.00200  -0.00200   1.59318
    D2       -1.56781  -0.00048   0.00000   0.00196   0.00196  -1.56585
         Item               Value     Threshold  Converged?
 Maximum Force            0.425912     0.000450     NO 
 RMS     Force            0.146761     0.000300     NO 
 Maximum Displacement     0.013505     0.001800     NO 
 RMS     Displacement     0.006516     0.001200     NO 
 Predicted change in Energy=-8.681772D-03
 GradGradGradGradGradGradGradGradGradGradGradGradGradGradGradGradGradGrad

                          Input orientation:                          
 ---------------------------------------------------------------------
 Center     Atomic      Atomic             Coordinates (Angstroms)
 Number     Number       Type             X           Y           Z
 ---------------------------------------------------------------------
      1          8           0       -1.579394    0.710863    0.198331
      2          1           0       -1.291245    0.702014   -0.718332
      3          8           0        0.029534    0.705118    0.190537
      4          1           0        0.326082    1.619747    0.201794
      5         53           0       -3.014739    0.708915    1.000566
 ---------------------------------------------------------------------
                    Distance matrix (angstroms):
                    1          2          3          4          5
     1  O    0.000000
     2  H    0.960926   0.000000
     3  O    1.608957   1.603281   0.000000
     4  H    2.111142   2.074756   0.961568   0.000000
     5  I    1.644324   2.434151   3.150200   3.553693   0.000000
 Stoichiometry    H2IO2(1-)
 Framework group  C1[X(H2IO2)]
 Deg. of freedom     9
 Full point group                 C1      NOp   1
 Largest Abelian subgroup         C1      NOp   1
 Largest concise Abelian subgroup C1      NOp   1
                         Standard orientation:                         
 ---------------------------------------------------------------------
 Center     Atomic      Atomic             Coordinates (Angstroms)
 Number     Number       Type             X           Y           Z
 ---------------------------------------------------------------------
      1          8           0        0.997479    0.292778    0.011477
      2          1           0        1.554701    1.068014    0.120521
      3          8           0        2.529070   -0.182310   -0.119907
      4          1           0        2.833065   -0.437534    0.755912
      5         53           0       -0.615097   -0.028570   -0.000170
 ---------------------------------------------------------------------
 Rotational constants (GHZ):    122.5437965      2.8760879      2.8344225
 Standard basis: LANL2DZ (5D, 7F)
 There are    30 symmetry adapted basis functions of A   symmetry.
 Integral buffers will be    262144 words long.
 Raffenetti 2 integral format.
 Two-electron integral symmetry is turned on.
    30 basis functions,    70 primitive gaussians,    30 cartesian basis functions
    13 alpha electrons       13 beta electrons
       nuclear repulsion energy        64.7513249864 Hartrees.



 Warning!  I  atom    5 may be hypervalent but has no d functions.



 NAtoms=    5 NActive=    5 NUniq=    5 SFac= 7.50D-01 NAtFMM=   80 NAOKFM=F Big=F
 ------------------------------------------------------------------------------
 Polarizable Continuum Model (PCM)
 =================================
 Model                : PCM.
 Atomic radii         : SMD-Coulomb.
 Polarization charges : Total charges.
 Charge compensation  : None.
 Solution method      : Matrix inversion.
 Cavity type          : VdW (van der Waals Surface) (Alpha=1.000).
 Cavity algorithm     : GePol (No added spheres)
                        Default sphere list used, NSphG=    5.
                        Lebedev-Laikov grids with approx.  5.0 points / Ang**2.
                        Smoothing algorithm: Karplus/York (Gamma=1.0000).
                        Polarization charges: spherical gaussians, with
                                              point-specific exponents (IZeta= 3).
                        Self-potential: point-specific (ISelfS= 7).
                        Self-field    : sphere-specific E.n sum rule (ISelfD= 2).
 1st derivatives      : Analytical E(r).r(x)/FMM algorithm (CHGder, D1EAlg=3).
                        Cavity 1st derivative terms included.
 Solvent              : Water, Eps=  78.355300 Eps(inf)=   1.777849
 ------------------------------------------------------------------------------
 Spheres list:
 ISph  on   Nord    Re0     Alpha      Xe            Ye            Ze
    1   O      1    1.520   1.000      0.997479      0.292778      0.011477
    2   H      2    1.200   1.000      1.554701      1.068014      0.120521
    3   O      3    1.520   1.000      2.529070     -0.182310     -0.119907
    4   H      4    1.200   1.000      2.833065     -0.437534      0.755912
    5   I      5    1.980   1.000     -0.615097     -0.028570     -0.000170
 ------------------------------------------------------------------------------
 ------------------------------------------------------------------------------
 Atomic radii for non-electrostatic terms: SMD-CDS.
 ------------------------------------------------------------------------------
 Nuclear repulsion after PCM non-electrostatic terms =       64.7532791170 Hartrees.
 One-electron integrals computed using PRISM.
   1 Symmetry operations used in ECPInt.
 ECPInt:  NShTT=     171 NPrTT=    1054 LenC2=     172 LenP2D=     959.
 LDataN:  DoStor=T MaxTD1= 4 Len=   56
 NBasis=    30 RedAO= T  NBF=    30
 NBsUse=    30 1.00D-06 NBFU=    30
 Defaulting to unpruned grid for atomic number  53.
 Initial guess read from the read-write file.
 B after Tr=     0.000000    0.000000    0.000000
         Rot=    1.000000    0.000000    0.000000    0.000000 Ang=   0.00 deg.
 Initial guess orbital symmetries:
       Occupied  (A) (A) (A) (A) (A) (A) (A) (A) (A) (A) (A) (A)
                 (A)
       Virtual   (A) (A) (A) (A) (A) (A) (A) (A) (A) (A) (A) (A)
                 (A) (A) (A) (A) (A)
 Requested convergence on RMS density matrix=1.00D-08 within 128 cycles.
 Requested convergence on MAX density matrix=1.00D-06.
 Requested convergence on             energy=1.00D-06.
 No special actions if energy rises.
 Keep R1 ints in memory in canonical form, NReq=3380856.
 Defaulting to unpruned grid for atomic number  53.
 Defaulting to unpruned grid for atomic number  53.
 Defaulting to unpruned grid for atomic number  53.
 Defaulting to unpruned grid for atomic number  53.
 Error on total polarization charges =  0.08854
 SCF Done:  E(RM062X) =  -162.715448005     A.U. after   11 cycles
             Convg  =    0.3863D-08             -V/T =  2.0452
 SMD-CDS (non-electrostatic) energy             (kcal/mol) =       1.23
 (included in total energy above)
   1 Symmetry operations used in ECPInt.
 ECPInt:  NShTT=     171 NPrTT=    1054 LenC2=     172 LenP2D=     959.
 LDataN:  DoStor=T MaxTD1= 5 Len=  102
 D1PCM: PCM CHGder 1st derivatives, ID1Alg=3 FixD1E=F DoIter=F DoCFld=F I1PDM=0.
 Calling FoFJK, ICntrl=      2127 FMM=F ISym2X=0 I1Cent= 0 IOpClX= 0 NMat=1 NMatS=1 NMatT=0.
 Defaulting to unpruned grid for atomic number  53.
 Defaulting to unpruned grid for atomic number  53.
 Defaulting to unpruned grid for atomic number  53.
 Defaulting to unpruned grid for atomic number  53.
 ***** Axes restored to original set *****
 -------------------------------------------------------------------
 Center     Atomic                   Forces (Hartrees/Bohr)
 Number     Number              X              Y              Z
 -------------------------------------------------------------------
      1        8           0.126554001    0.000080567   -0.159473636
      2        1          -0.011524662   -0.002094099   -0.021952212
      3        8           0.240248375   -0.017834532   -0.008841991
      4        1           0.012206882    0.020451628    0.001879816
      5       53          -0.367484596   -0.000603564    0.188388023
 -------------------------------------------------------------------
 Cartesian Forces:  Max     0.367484596 RMS     0.134483840

 GradGradGradGradGradGradGradGradGradGradGradGradGradGradGradGradGradGrad
 Berny optimization.
 Internal  Forces:  Max     0.412663595 RMS     0.142407283
 Search for a saddle point.
 Step number   6 out of a maximum of   21
 All quantities printed in internal units (Hartrees-Bohrs-Radians)
 Swaping is turned off.
 Update second derivatives using D2CorX and points    1    2    3    4    5
                                                      6
 The second derivative matrix:
                          R1        R2        R3        R4        R5
           R1           0.50984
           R2          -0.04004   0.12995
           R3          -0.08079   0.20687   0.83016
           R4           0.06913   0.08287   0.00246   0.04252
           R5           0.00212  -0.00512   0.00972  -0.00125   0.56540
           A1          -0.01910  -0.00634  -0.07647  -0.02029   0.00155
[...]
    A1        1.37325  -0.04120   0.00000   0.00835   0.00835   1.38160
    A2        2.23635  -0.00643   0.00000  -0.01055  -0.01056   2.22579
    A3        2.67277   0.04760   0.00000   0.00201   0.00200   2.67477
    A4        1.84115   0.00412   0.00000  -0.00209  -0.00209   1.83906
    D1        1.61998   0.00312   0.00000   0.00332   0.00332   1.62329
    D2       -1.57572  -0.00060   0.00000  -0.00349  -0.00349  -1.57921
         Item               Value     Threshold  Converged?
 Maximum Force            0.264366     0.000450     NO 
 RMS     Force            0.092764     0.000300     NO 
 Maximum Displacement     0.014504     0.001800     NO 
 RMS     Displacement     0.006568     0.001200     NO 
 Predicted change in Energy=-6.156625D-03
 GradGradGradGradGradGradGradGradGradGradGradGradGradGradGradGradGradGrad

                          Input orientation:                          
 ---------------------------------------------------------------------
 Center     Atomic      Atomic             Coordinates (Angstroms)
 Number     Number       Type             X           Y           Z
 ---------------------------------------------------------------------
      1          8           0       -1.524641    0.716509    0.202186
      2          1           0       -1.350829    0.688430   -0.749422
      3          8           0        0.101136    0.704590    0.188511
      4          1           0        0.364593    1.635326    0.209014
      5         53           0       -3.120019    0.701801    1.022606
 ---------------------------------------------------------------------
                    Distance matrix (angstroms):
                    1          2          3          4          5
     1  O    0.000000
     2  H    0.967759   0.000000
     3  O    1.625878   1.728636   0.000000
     4  H    2.100828   2.181258   0.967522   0.000000
     5  I    1.794028   2.504056   3.327395   3.698097   0.000000
 Stoichiometry    H2IO2(1-)
 Framework group  C1[X(H2IO2)]
 Deg. of freedom     9
 Full point group                 C1      NOp   1
 Largest Abelian subgroup         C1      NOp   1
 Largest concise Abelian subgroup C1      NOp   1
                         Standard orientation:                         
 ---------------------------------------------------------------------
 Center     Atomic      Atomic             Coordinates (Angstroms)
 Number     Number       Type             X           Y           Z
 ---------------------------------------------------------------------
      1          8           0        1.112636    0.277072    0.013134
      2          1           0        1.563670    1.127494    0.112676
      3          8           0        2.666219   -0.183215   -0.121013
      4          1           0        2.938143   -0.431971    0.773569
      5         53           0       -0.655333   -0.027290   -0.000438
 ---------------------------------------------------------------------
 Rotational constants (GHZ):    122.2514090      2.5531114      2.5208527
 Standard basis: LANL2DZ (5D, 7F)
 There are    30 symmetry adapted basis functions of A   symmetry.
 Integral buffers will be    262144 words long.
 Raffenetti 2 integral format.
 Two-electron integral symmetry is turned on.
    30 basis functions,    70 primitive gaussians,    30 cartesian basis functions
    13 alpha electrons       13 beta electrons
       nuclear repulsion energy        62.1919732570 Hartrees.
 NAtoms=    5 NActive=    5 NUniq=    5 SFac= 7.50D-01 NAtFMM=   80 NAOKFM=F Big=F
 ------------------------------------------------------------------------------
 Polarizable Continuum Model (PCM)
 =================================
 Model                : PCM.
 Atomic radii         : SMD-Coulomb.
 Polarization charges : Total charges.
 Charge compensation  : None.
 Solution method      : Matrix inversion.
 Cavity type          : VdW (van der Waals Surface) (Alpha=1.000).
 Cavity algorithm     : GePol (No added spheres)
                        Default sphere list used, NSphG=    5.
                        Lebedev-Laikov grids with approx.  5.0 points / Ang**2.
                        Smoothing algorithm: Karplus/York (Gamma=1.0000).
                        Polarization charges: spherical gaussians, with
                                              point-specific exponents (IZeta= 3).
                        Self-potential: point-specific (ISelfS= 7).
                        Self-field    : sphere-specific E.n sum rule (ISelfD= 2).
 1st derivatives      : Analytical E(r).r(x)/FMM algorithm (CHGder, D1EAlg=3).
                        Cavity 1st derivative terms included.
 Solvent              : Water, Eps=  78.355300 Eps(inf)=   1.777849
 ------------------------------------------------------------------------------
 Spheres list:
 ISph  on   Nord    Re0     Alpha      Xe            Ye            Ze
    1   O      1    1.520   1.000      1.112636      0.277072      0.013134
    2   H      2    1.200   1.000      1.563670      1.127494      0.112676
    3   O      3    1.520   1.000      2.666219     -0.183215     -0.121013
    4   H      4    1.200   1.000      2.938143     -0.431971      0.773569
    5   I      5    1.980   1.000     -0.655333     -0.027290     -0.000438
 ------------------------------------------------------------------------------
 ------------------------------------------------------------------------------
 Atomic radii for non-electrostatic terms: SMD-CDS.
 ------------------------------------------------------------------------------
 Nuclear repulsion after PCM non-electrostatic terms =       62.1939733328 Hartrees.
 One-electron integrals computed using PRISM.
   1 Symmetry operations used in ECPInt.
 ECPInt:  NShTT=     171 NPrTT=    1054 LenC2=     172 LenP2D=     955.
 LDataN:  DoStor=T MaxTD1= 4 Len=   56
 NBasis=    30 RedAO= T  NBF=    30
 NBsUse=    30 1.00D-06 NBFU=    30
 Defaulting to unpruned grid for atomic number  53.
 Initial guess read from the read-write file.
 B after Tr=     0.000000    0.000000    0.000000
         Rot=    1.000000    0.000000    0.000000    0.000000 Ang=   0.00 deg.
 Initial guess orbital symmetries:
       Occupied  (A) (A) (A) (A) (A) (A) (A) (A) (A) (A) (A) (A)
                 (A)
       Virtual   (A) (A) (A) (A) (A) (A) (A) (A) (A) (A) (A) (A)
                 (A) (A) (A) (A) (A)
 Requested convergence on RMS density matrix=1.00D-08 within 128 cycles.
 Requested convergence on MAX density matrix=1.00D-06.
 Requested convergence on             energy=1.00D-06.
 No special actions if energy rises.
 Keep R1 ints in memory in canonical form, NReq=3386934.
 Defaulting to unpruned grid for atomic number  53.
 Defaulting to unpruned grid for atomic number  53.
 Defaulting to unpruned grid for atomic number  53.
 Defaulting to unpruned grid for atomic number  53.
 Error on total polarization charges =  0.08860
 SCF Done:  E(RM062X) =  -162.821569580     A.U. after   11 cycles
             Convg  =    0.1964D-08             -V/T =  2.0495
 SMD-CDS (non-electrostatic) energy             (kcal/mol) =       1.26
 (included in total energy above)
   1 Symmetry operations used in ECPInt.
 ECPInt:  NShTT=     171 NPrTT=    1054 LenC2=     172 LenP2D=     955.
 LDataN:  DoStor=T MaxTD1= 5 Len=  102
 D1PCM: PCM CHGder 1st derivatives, ID1Alg=3 FixD1E=F DoIter=F DoCFld=F I1PDM=0.
 Calling FoFJK, ICntrl=      2127 FMM=F ISym2X=0 I1Cent= 0 IOpClX= 0 NMat=1 NMatS=1 NMatT=0.
 Defaulting to unpruned grid for atomic number  53.
 Defaulting to unpruned grid for atomic number  53.
 Defaulting to unpruned grid for atomic number  53.
 Defaulting to unpruned grid for atomic number  53.
 ***** Axes restored to original set *****
 -------------------------------------------------------------------
 Center     Atomic                   Forces (Hartrees/Bohr)
 Number     Number              X              Y              Z
 -------------------------------------------------------------------
      1        8           0.085278142    0.003875788   -0.073592246
      2        1          -0.018748668   -0.002322060   -0.023310551
      3        8           0.161967977   -0.012758451   -0.007468087
      4        1           0.005970884    0.013395267    0.001647084
      5       53          -0.234468336   -0.002190544    0.102723800
 -------------------------------------------------------------------
 Cartesian Forces:  Max     0.234468336 RMS     0.083986443

 GradGradGradGradGradGradGradGradGradGradGradGradGradGradGradGradGradGrad
 Berny optimization.
 Internal  Forces:  Max     0.255499054 RMS     0.089716967
 Search for a saddle point.
 Step number  21 out of a maximum of   21
 All quantities printed in internal units (Hartrees-Bohrs-Radians)
 Swaping is turned off.
 Update second derivatives using D2CorX and points   10   11   12   13   14
                                                     15   16   17   18   19
                                                     20   21
 The second derivative matrix:
                          R1        R2        R3        R4        R5
           R1           0.50968
           R2          -0.03812   0.11799
           R3          -0.07567   0.16382   0.53450
           R4           0.07519   0.07141  -0.03890   0.07867
           R5           0.00239  -0.00626   0.00093  -0.00143   0.56510
           A1          -0.01600  -0.00963  -0.08691   0.00310   0.00163
           A2           0.00171   0.00111   0.10696  -0.03795  -0.00191
           A3           0.01431   0.00841  -0.02014   0.03460   0.00032
           A4           0.00216   0.00217   0.02196  -0.00096  -0.02606
           D1           0.00037   0.00499  -0.00140   0.00528   0.00472
           D2           0.00038  -0.00287   0.00721  -0.00641   0.00161
                          A1        A2        A3        A4        D1
           A1           0.00858
           A2          -0.02366   0.06240
           A3           0.01488  -0.03848   0.02349
           A4          -0.00368   0.00521  -0.00141   0.02099
           D1           0.00149  -0.00284   0.00139   0.00808   0.00222
           D2          -0.00129   0.00514  -0.00393   0.00698   0.00986
                          D2
           D2          -0.00276
     Eigenvalues ---   -0.02890  -0.01132   0.00260   0.02597   0.03808
     Eigenvalues ---    0.18019   0.47718   0.56638   0.670511000.00000
     Eigenvalues --- 1000.00000
 Eigenvectors required to have negative eigenvalues:
                          A1        R4        R2        A3        R3
   1                    0.53321   0.49086  -0.47367  -0.40112   0.26141
                          A2        A4        R1        R5        D1
   1                   -0.13264  -0.04537  -0.03735  -0.00771  -0.00404
 RFO step:  Lambda0=5.285532529D-03 Lambda=-1.42367364D-01.
 Linear search not attempted -- option 19 set.
 Maximum step size (   0.030) exceeded in Quadratic search.
    -- Step size scaled by   0.045
 Iteration  1 RMS(Cart)=  0.00646839 RMS(Int)=  0.00002166
 Iteration  2 RMS(Cart)=  0.00002267 RMS(Int)=  0.00000338
 Iteration  3 RMS(Cart)=  0.00000000 RMS(Int)=  0.00000338
 Variable       Old X    -DE/DX   Delta X   Delta X   Delta X     New X
                                 (Linear)    (Quad)   (Total)
    R1        1.82880   0.00287   0.00000   0.00105   0.00105   1.82985
    R2        3.07246   0.13143   0.00000   0.00101   0.00102   3.07348
    R3        3.39022   0.25550   0.00000   0.02141   0.02141   3.41163
    R4        3.26665   0.04375   0.00000   0.01529   0.01529   3.28194
    R5        1.82835   0.01454   0.00000   0.00079   0.00079   1.82914
    A1        1.38160  -0.03974   0.00000   0.00831   0.00832   1.38991
    A2        2.22579  -0.00716   0.00000  -0.01050  -0.01051   2.21528
    A3        2.67477   0.04688   0.00000   0.00239   0.00238   2.67715
    A4        1.83906   0.00381   0.00000  -0.00186  -0.00186   1.83720
    D1        1.62329   0.00306   0.00000  -0.00229  -0.00229   1.62100
    D2       -1.57921  -0.00061   0.00000   0.00334   0.00334  -1.57587
         Item               Value     Threshold  Converged?
 Maximum Force            0.255499     0.000450     NO 
 RMS     Force            0.089717     0.000300     NO 
 Maximum Displacement     0.014675     0.001800     NO 
 RMS     Displacement     0.006469     0.001200     NO 
 Predicted change in Energy=-6.030996D-03
 Optimization stopped.
    -- Number of steps exceeded,  NStep=  21
    -- Flag reset to prevent archiving.
                           ----------------------------
                           ! Non-Optimized Parameters !
                           ! (Angstroms and Degrees)  !
 --------------------------                            --------------------------
 ! Name  Definition              Value          Derivative Info.                !
 --------------------------------------------------------------------------------
 ! R1    R(1,2)                  0.9683         -DE/DX =    0.0029              !
 ! R2    R(1,3)                  1.6264         -DE/DX =    0.1314              !
 ! R3    R(1,5)                  1.8054         -DE/DX =    0.2555              !
 ! R4    R(2,3)                  1.7367         -DE/DX =    0.0437              !
 ! R5    R(3,4)                  0.9679         -DE/DX =    0.0145              !
 ! A1    A(2,1,3)               79.6361         -DE/DX =   -0.0397              !
 ! A2    A(2,1,5)              126.9263         -DE/DX =   -0.0072              !
 ! A3    A(3,1,5)              153.3894         -DE/DX =    0.0469              !
 ! A4    A(1,3,4)              105.2638         -DE/DX =    0.0038              !
 ! D1    D(2,1,3,4)             92.8767         -DE/DX =    0.0031              !
 ! D2    D(5,1,3,4)            -90.2909         -DE/DX =   -0.0006              !
 --------------------------------------------------------------------------------
 GradGradGradGradGradGradGradGradGradGradGradGradGradGradGradGradGradGrad

                          Input orientation:                          
 ---------------------------------------------------------------------
 Center     Atomic      Atomic             Coordinates (Angstroms)
 Number     Number       Type             X           Y           Z
 ---------------------------------------------------------------------
      1          8           0       -1.524641    0.716509    0.202186
      2          1           0       -1.350829    0.688430   -0.749422
      3          8           0        0.101136    0.704590    0.188511
      4          1           0        0.364593    1.635326    0.209014
      5         53           0       -3.120019    0.701801    1.022606
 ---------------------------------------------------------------------
                    Distance matrix (angstroms):
                    1          2          3          4          5
     1  O    0.000000
     2  H    0.967759   0.000000
     3  O    1.625878   1.728636   0.000000
     4  H    2.100828   2.181258   0.967522   0.000000
     5  I    1.794028   2.504056   3.327395   3.698097   0.000000
 Stoichiometry    H2IO2(1-)
 Framework group  C1[X(H2IO2)]
 Deg. of freedom     9
 Full point group                 C1      NOp   1
 Largest Abelian subgroup         C1      NOp   1
 Largest concise Abelian subgroup C1      NOp   1
                         Standard orientation:                         
 ---------------------------------------------------------------------
 Center     Atomic      Atomic             Coordinates (Angstroms)
 Number     Number       Type             X           Y           Z
 ---------------------------------------------------------------------
      1          8           0        1.112636    0.277072    0.013134
      2          1           0        1.563670    1.127494    0.112676
      3          8           0        2.666219   -0.183215   -0.121013
      4          1           0        2.938143   -0.431971    0.773569
      5         53           0       -0.655333   -0.027290   -0.000438
 ---------------------------------------------------------------------
 Rotational constants (GHZ):    122.2514090      2.5531114      2.5208527

 **********************************************************************

            Population analysis using the SCF density.

 **********************************************************************

 Orbital symmetries:
       Occupied  (A) (A) (A) (A) (A) (A) (A) (A) (A) (A) (A) (A)
                 (A)
       Virtual   (A) (A) (A) (A) (A) (A) (A) (A) (A) (A) (A) (A)
                 (A) (A) (A) (A) (A)
 The electronic state is 1-A.
 Alpha  occ. eigenvalues --  -19.63279 -19.55021  -1.18069  -0.99896  -0.73385
 Alpha  occ. eigenvalues --   -0.55183  -0.51315  -0.46661  -0.39142  -0.31439
 Alpha  occ. eigenvalues --   -0.27443  -0.25145  -0.16827
 Alpha virt. eigenvalues --    0.05374   0.18154   0.22476   0.43711   0.44227
 Alpha virt. eigenvalues --    0.46891   0.69548   0.73613   0.76409   0.79390
 Alpha virt. eigenvalues --    0.85758   0.97875   1.09292   1.21401   1.52301
 Alpha virt. eigenvalues --    1.78405   9.30003
          Condensed to atoms (all electrons):
              1          2          3          4          5
     1  O    9.644946   0.267784  -0.459934   0.000831  -0.748180
     2  H    0.267784   0.277981  -0.016950  -0.000679  -0.021111
     3  O   -0.459934  -0.016950   8.949736   0.253011   0.158223
     4  H    0.000831  -0.000679   0.253011   0.411561  -0.011351
     5  I   -0.748180  -0.021111   0.158223  -0.011351   7.872489
 Mulliken atomic charges:
              1
     1  O   -0.705448
     2  H    0.492975
     3  O   -0.884086
     4  H    0.346628
     5  I   -0.250070
 Sum of Mulliken atomic charges =  -1.00000
 Mulliken charges with hydrogens summed into heavy atoms:
              1
     1  O   -0.212472
     3  O   -0.537458
     5  I   -0.250070
 Sum of Mulliken charges with hydrogens summed into heavy atoms =  -1.00000
 Electronic spatial extent (au):  <R**2>=            391.7896
 Charge=             -1.0000 electrons
 Dipole moment (field-independent basis, Debye):
    X=             -3.5472    Y=              2.3339    Z=              2.5918  Tot=              4.9747
 Quadrupole moment (field-independent basis, Debye-Ang):
   XX=            -54.6037   YY=            -33.4639   ZZ=            -35.7562
   XY=              4.1657   XZ=              7.4167   YZ=             -0.5868
 Traceless Quadrupole moment (field-independent basis, Debye-Ang):
   XX=            -13.3291   YY=              7.8107   ZZ=              5.5184
   XY=              4.1657   XZ=              7.4167   YZ=             -0.5868
 Octapole moment (field-independent basis, Debye-Ang**2):
  XXX=            -81.1889  YYY=              4.1602  ZZZ=              2.0804  XYY=             -6.2746
  XXY=              4.0707  XXZ=             21.2255  XZZ=             -6.9738  YZZ=             -0.1980
  YYZ=              1.2227  XYZ=             -2.3232
 Hexadecapole moment (field-independent basis, Debye-Ang**3):
 XXXX=           -607.2728 YYYY=            -57.5085 ZZZZ=            -57.0863 XXXY=             12.8834
 XXXZ=             64.5635 YYYX=             10.2531 YYYZ=             -0.0229 ZZZX=              6.2826
 ZZZY=             -0.6562 XXYY=            -82.7820 XXZZ=            -80.7227 YYZZ=            -19.7162
 XXYZ=             -7.1025 YYXZ=              3.0990 ZZXY=              0.3223
 N-N= 6.219397333276D+01 E-N=-5.119701072645D+02  KE= 1.551400598428D+02


 KEEP CLOSE TO NATURES HEART, YOURSELF;
 AND BREAK CLEAR AWAY, ONCE IN A WHILE, AND
 CLIMB A MOUNTAIN OR SPEND A WEEK IN THE
 WOODS.  WASH YOUR SPIRIT CLEAN...
                                         -- JOHN MUIR
 Error termination request processed by link 9999.
 Error termination via Lnk1e in C:\G09W\l9999.exe at Tue Feb 02 02:44:58 2021.
 Job cpu time:  0 days  0 hours  2 minutes  2.0 seconds.
 File lengths (MBytes):  RWF=     17 Int=      0 D2E=      0 Chk=      2 Scr=      1
