 Entering Link 1 = C:\G09W\l1.exe PID=      9116.
  
 Copyright (c) 1988,1990,1992,1993,1995,1998,2003,2009, Gaussian, Inc.
                  All Rights Reserved.
  
 This is part of the Gaussian(R) 09 program.  It is based on
 the Gaussian(R) 03 system (copyright 2003, Gaussian, Inc.),
 the Gaussian(R) 98 system (copyright 1998, Gaussian, Inc.),
 the Gaussian(R) 94 system (copyright 1995, Gaussian, Inc.),
 the Gaussian 92(TM) system (copyright 1992, Gaussian, Inc.),
 the Gaussian 90(TM) system (copyright 1990, Gaussian, Inc.),
 the Gaussian 88(TM) system (copyright 1988, Gaussian, Inc.),
 the Gaussian 86(TM) system (copyright 1986, Carnegie Mellon
 University), and the Gaussian 82(TM) system (copyright 1983,
 Carnegie Mellon University). Gaussian is a federally registered
 trademark of Gaussian, Inc.
  
 This software contains proprietary and confidential information,
 including trade secrets, belonging to Gaussian, Inc.
  
 This software is provided under written license and may be
 used, copied, transmitted, or stored only in accord with that
 written license.
  
 The following legend is applicable only to US Government
 contracts under FAR:
  
                    RESTRICTED RIGHTS LEGEND
  
 Use, reproduction and disclosure by the US Government is
 subject to restrictions as set forth in subparagraphs (a)
 and (c) of the Commercial Computer Software - Restricted
 Rights clause in FAR 52.227-19.
  
 Gaussian, Inc.
 340 Quinnipiac St., Bldg. 40, Wallingford CT 06492
  
  
 ---------------------------------------------------------------
 Warning -- This program may not be used in any manner that
 competes with the business of Gaussian, Inc. or will provide
 assistance to any competitor of Gaussian, Inc.  The licensee
 of this program is prohibited from giving any competitor of
 Gaussian, Inc. access to this program.  By using this program,
 the user acknowledges that Gaussian, Inc. is engaged in the
 business of creating and licensing software in the field of
 computational chemistry and represents and warrants to the
 licensee that it is not a competitor of Gaussian, Inc. and that
 it will not use this program in any manner prohibited above.
 ---------------------------------------------------------------
  

 Cite this work as:
 Gaussian 09, Revision A.02,
 M. J. Frisch, G. W. Trucks, H. B. Schlegel, G. E. Scuseria, 
 M. A. Robb, J. R. Cheeseman, G. Scalmani, V. Barone, B. Mennucci, 
 G. A. Petersson, H. Nakatsuji, M. Caricato, X. Li, H. P. Hratchian, 
 A. F. Izmaylov, J. Bloino, G. Zheng, J. L. Sonnenberg, M. Hada, 
 M. Ehara, K. Toyota, R. Fukuda, J. Hasegawa, M. Ishida, T. Nakajima, 
 Y. Honda, O. Kitao, H. Nakai, T. Vreven, J. A. Montgomery, Jr., 
 J. E. Peralta, F. Ogliaro, M. Bearpark, J. J. Heyd, E. Brothers, 
 K. N. Kudin, V. N. Staroverov, R. Kobayashi, J. Normand, 
 K. Raghavachari, A. Rendell, J. C. Burant, S. S. Iyengar, J. Tomasi, 
 M. Cossi, N. Rega, J. M. Millam, M. Klene, J. E. Knox, J. B. Cross, 
 V. Bakken, C. Adamo, J. Jaramillo, R. Gomperts, R. E. Stratmann, 
 O. Yazyev, A. J. Austin, R. Cammi, C. Pomelli, J. W. Ochterski, 
 R. L. Martin, K. Morokuma, V. G. Zakrzewski, G. A. Voth, 
 P. Salvador, J. J. Dannenberg, S. Dapprich, A. D. Daniels, 
 O. Farkas, J. B. Foresman, J. V. Ortiz, J. Cioslowski, 
 and D. J. Fox, Gaussian, Inc., Wallingford CT, 2009.
 
 ******************************************
 Gaussian 09:  IA32W-G09RevA.02 11-Jun-2009
                02-Feb-2021 
 ******************************************
 %chk=D:\Documents\rayGit\FQ\quimicaComputacional\proyecto\decompositionHydrogenP
 eroxide\decompositionCatalyzedByIodine\step1\ts\ts.chk
 %mem=1500MB
 %nprocshared=4
 Will use up to    4 processors via shared memory.
 ----------------------------------------------------------------------
 # opt=(readfc,ts,noeigen) geom=check guess=check freq=noraman lanl2dz 
 scrf=smd iop(1/8=3) m062x
 ----------------------------------------------------------------------
 1/5=1,8=3,10=3,11=1,14=-1,18=20,26=3,29=2,38=1/1,3;
 2/9=110,12=2,40=1/2;
 3/5=6,6=3,11=2,14=-4,16=1,25=1,30=1,70=32201,71=1,72=1,74=-55,116=-2/1,2,3;
 4/5=1/1;
 5/5=2,38=6/2;
 6/7=2,8=2,9=2,10=2,28=1/1;
 7//1,2,3,16;
 1/5=1,8=3,11=1,14=-1,18=20/3(2);
 2/9=110/2;
 99//99;
 2/9=110/2;
 3/5=6,6=3,11=2,14=-2,16=1,25=1,30=1,70=32205,71=1,74=-55/1,2,3;
 4/5=5,16=3/1;
 5/5=2,38=5/2;
 7//1,2,3,16;
 1/5=1,8=3,11=1,14=-1,18=20/3(-5);
 2/9=110/2;
 6/7=2,8=2,9=2,10=2,19=2,28=1/1;
 99/9=1/99;
 -----------------------------
 Hydrogen peroxide with iodine
 -----------------------------
 Redundant internal coordinates taken from checkpoint file:
 D:\Documents\rayGit\FQ\quimicaComputacional\proyecto\decompositionHydrogenPeroxide\decompositionCatalyzedByIodine\step1\ts\ts.chk
 Charge = -1 Multiplicity = 1
 O,0,-1.5246411175,0.7165090362,0.2021863008
 H,0,-1.3508291003,0.688430221,-0.7494223292
 O,0,0.1011357621,0.7045904226,0.1885114278
 H,0,0.3645930339,1.6353262555,0.2090141167
 I,0,-3.1200192482,0.7018007947,1.0226055638
 Recover connectivity data from disk.

 GradGradGradGradGradGradGradGradGradGradGradGradGradGradGradGradGradGrad
 Berny optimization.
 Initialization pass.
 Force constant matrix read from checkpoint file:
 D:\Documents\rayGit\FQ\quimicaComputacional\proyecto\decompositionHydrogenPeroxi
 de\decompositionCatalyzedByIodine\step1\ts\ts.chk
                           ----------------------------
                           !    Initial Parameters    !
                           ! (Angstroms and Degrees)  !
 --------------------------                            --------------------------
 ! Name  Definition              Value          Derivative Info.                !
 --------------------------------------------------------------------------------
 ! R1    R(1,2)                  0.9678         D2E/DX2 =    0.5097             !
 ! R2    R(1,3)                  1.6259         D2E/DX2 =    0.118              !
 ! R3    R(1,5)                  1.794          D2E/DX2 =    0.5345             !
 ! R4    R(2,3)                  1.7286         D2E/DX2 =    0.0787             !
 ! R5    R(3,4)                  0.9675         D2E/DX2 =    0.5651             !
 ! A1    A(2,1,3)               79.1596         D2E/DX2 =    0.0086             !
 ! A2    A(2,1,5)              127.5282         D2E/DX2 =    0.0624             !
 ! A3    A(3,1,5)              153.253          D2E/DX2 =    0.0235             !
 ! A4    A(1,3,4)              105.3702         D2E/DX2 =    0.021              !
 ! D1    D(2,1,3,4)             93.0078         D2E/DX2 =    0.0022             !
 ! D2    D(5,1,3,4)            -90.4821         D2E/DX2 =   -0.0028             !
 --------------------------------------------------------------------------------
 Trust Radius=3.00D-02 FncErr=1.00D-07 GrdErr=1.00D-06
 Number of steps in this run=  21 maximum allowed number of steps= 100.
 Search for a saddle point of order  1.
 GradGradGradGradGradGradGradGradGradGradGradGradGradGradGradGradGradGrad

                          Input orientation:                          
 ---------------------------------------------------------------------
 Center     Atomic      Atomic             Coordinates (Angstroms)
 Number     Number       Type             X           Y           Z
 ---------------------------------------------------------------------
      1          8           0       -1.524641    0.716509    0.202186
      2          1           0       -1.350829    0.688430   -0.749422
      3          8           0        0.101136    0.704590    0.188511
      4          1           0        0.364593    1.635326    0.209014
      5         53           0       -3.120019    0.701801    1.022606
 ---------------------------------------------------------------------
                    Distance matrix (angstroms):
                    1          2          3          4          5
     1  O    0.000000
     2  H    0.967759   0.000000
     3  O    1.625878   1.728636   0.000000
     4  H    2.100828   2.181258   0.967522   0.000000
     5  I    1.794028   2.504056   3.327395   3.698097   0.000000
 Stoichiometry    H2IO2(1-)
 Framework group  C1[X(H2IO2)]
 Deg. of freedom     9
 Full point group                 C1      NOp   1
 Largest Abelian subgroup         C1      NOp   1
 Largest concise Abelian subgroup C1      NOp   1
                         Standard orientation:                         
 ---------------------------------------------------------------------
 Center     Atomic      Atomic             Coordinates (Angstroms)
 Number     Number       Type             X           Y           Z
 ---------------------------------------------------------------------
      1          8           0        1.112636    0.277072    0.013134
      2          1           0        1.563670    1.127494    0.112676
      3          8           0        2.666219   -0.183215   -0.121013
      4          1           0        2.938143   -0.431971    0.773569
      5         53           0       -0.655333   -0.027290   -0.000438
 ---------------------------------------------------------------------
 Rotational constants (GHZ):    122.2514090      2.5531114      2.5208527
 Standard basis: LANL2DZ (5D, 7F)
 There are    30 symmetry adapted basis functions of A   symmetry.
 Integral buffers will be    262144 words long.
 Raffenetti 2 integral format.
 Two-electron integral symmetry is turned on.
    30 basis functions,    70 primitive gaussians,    30 cartesian basis functions
    13 alpha electrons       13 beta electrons
       nuclear repulsion energy        62.1919732570 Hartrees.
 NAtoms=    5 NActive=    5 NUniq=    5 SFac= 7.50D-01 NAtFMM=   80 NAOKFM=F Big=F
 ------------------------------------------------------------------------------
 Polarizable Continuum Model (PCM)
 =================================
 Model                : PCM.
 Atomic radii         : SMD-Coulomb.
 Polarization charges : Total charges.
 Charge compensation  : None.
 Solution method      : Matrix inversion.
 Cavity type          : VdW (van der Waals Surface) (Alpha=1.000).
 Cavity algorithm     : GePol (No added spheres)
                        Default sphere list used, NSphG=    5.
                        Lebedev-Laikov grids with approx.  5.0 points / Ang**2.
                        Smoothing algorithm: Karplus/York (Gamma=1.0000).
                        Polarization charges: spherical gaussians, with
                                              point-specific exponents (IZeta= 3).
                        Self-potential: point-specific (ISelfS= 7).
                        Self-field    : sphere-specific E.n sum rule (ISelfD= 2).
 1st derivatives      : Analytical E(r).r(x)/FMM algorithm (CHGder, D1EAlg=3).
                        Cavity 1st derivative terms included.
 Solvent              : Water, Eps=  78.355300 Eps(inf)=   1.777849
 ------------------------------------------------------------------------------
 Spheres list:
 ISph  on   Nord    Re0     Alpha      Xe            Ye            Ze
    1   O      1    1.520   1.000      1.112636      0.277072      0.013134
    2   H      2    1.200   1.000      1.563670      1.127494      0.112676
    3   O      3    1.520   1.000      2.666219     -0.183215     -0.121013
    4   H      4    1.200   1.000      2.938143     -0.431971      0.773569
    5   I      5    1.980   1.000     -0.655333     -0.027290     -0.000438
 ------------------------------------------------------------------------------
 ------------------------------------------------------------------------------
 Atomic radii for non-electrostatic terms: SMD-CDS.
 ------------------------------------------------------------------------------
 Nuclear repulsion after PCM non-electrostatic terms =       62.1939733328 Hartrees.
 One-electron integrals computed using PRISM.
   1 Symmetry operations used in ECPInt.
 ECPInt:  NShTT=     171 NPrTT=    1054 LenC2=     172 LenP2D=     955.
 LDataN:  DoStor=T MaxTD1= 4 Len=   56
 NBasis=    30 RedAO= T  NBF=    30
 NBsUse=    30 1.00D-06 NBFU=    30
 Defaulting to unpruned grid for atomic number  53.
 Initial guess read from the checkpoint file:  D:\Documents\rayGit\FQ\quimicaComp
 utacional\proyecto\decompositionHydrogenPeroxide\decompositionCatalyzedByIodine\
 step1\ts\ts.chk
 B after Tr=     0.000000    0.000000    0.000000
         Rot=    1.000000    0.000000    0.000000    0.000000 Ang=   0.00 deg.
 Initial guess orbital symmetries:
       Occupied  (A) (A) (A) (A) (A) (A) (A) (A) (A) (A) (A) (A)
                 (A)
       Virtual   (A) (A) (A) (A) (A) (A) (A) (A) (A) (A) (A) (A)
                 (A) (A) (A) (A) (A)
 Requested convergence on RMS density matrix=1.00D-08 within 128 cycles.
 Requested convergence on MAX density matrix=1.00D-06.
 Requested convergence on             energy=1.00D-06.
 No special actions if energy rises.
 Keep R1 ints in memory in canonical form, NReq=3386934.
 Defaulting to unpruned grid for atomic number  53.
 Defaulting to unpruned grid for atomic number  53.
 Defaulting to unpruned grid for atomic number  53.
 Defaulting to unpruned grid for atomic number  53.
 Error on total polarization charges =  0.08860
 SCF Done:  E(RM062X) =  -162.821569580     A.U. after    1 cycles
             Convg  =    0.2197D-09             -V/T =  2.0495
 SMD-CDS (non-electrostatic) energy             (kcal/mol) =       1.26
 (included in total energy above)

 **********************************************************************

            Population analysis using the SCF density.

 **********************************************************************

 Orbital symmetries:
       Occupied  (A) (A) (A) (A) (A) (A) (A) (A) (A) (A) (A) (A)
                 (A)
       Virtual   (A) (A) (A) (A) (A) (A) (A) (A) (A) (A) (A) (A)
                 (A) (A) (A) (A) (A)
 The electronic state is 1-A.
 Alpha  occ. eigenvalues --  -19.63279 -19.55021  -1.18069  -0.99896  -0.73385
 Alpha  occ. eigenvalues --   -0.55183  -0.51315  -0.46661  -0.39142  -0.31439
 Alpha  occ. eigenvalues --   -0.27443  -0.25145  -0.16827
 Alpha virt. eigenvalues --    0.05374   0.18154   0.22476   0.43711   0.44227
 Alpha virt. eigenvalues --    0.46891   0.69548   0.73613   0.76409   0.79390
 Alpha virt. eigenvalues --    0.85758   0.97875   1.09292   1.21401   1.52301
 Alpha virt. eigenvalues --    1.78405   9.30003
          Condensed to atoms (all electrons):
              1          2          3          4          5
     1  O    9.644946   0.267784  -0.459934   0.000831  -0.748180
     2  H    0.267784   0.277981  -0.016950  -0.000679  -0.021111
     3  O   -0.459934  -0.016950   8.949736   0.253011   0.158223
     4  H    0.000831  -0.000679   0.253011   0.411561  -0.011351
     5  I   -0.748180  -0.021111   0.158223  -0.011351   7.872489
 Mulliken atomic charges:
              1
     1  O   -0.705448
     2  H    0.492975
     3  O   -0.884086
     4  H    0.346628
     5  I   -0.250070
 Sum of Mulliken atomic charges =  -1.00000
 Mulliken charges with hydrogens summed into heavy atoms:
              1
     1  O   -0.212472
     3  O   -0.537458
     5  I   -0.250070
 Sum of Mulliken charges with hydrogens summed into heavy atoms =  -1.00000
 Electronic spatial extent (au):  <R**2>=            391.7896
 Charge=             -1.0000 electrons
 Dipole moment (field-independent basis, Debye):
    X=             -3.5472    Y=              2.3339    Z=              2.5918  Tot=              4.9747
 Quadrupole moment (field-independent basis, Debye-Ang):
   XX=            -54.6037   YY=            -33.4639   ZZ=            -35.7562
   XY=              4.1657   XZ=              7.4167   YZ=             -0.5868
 Traceless Quadrupole moment (field-independent basis, Debye-Ang):
   XX=            -13.3291   YY=              7.8107   ZZ=              5.5184
   XY=              4.1657   XZ=              7.4167   YZ=             -0.5868
 Octapole moment (field-independent basis, Debye-Ang**2):
  XXX=            -81.1889  YYY=              4.1602  ZZZ=              2.0804  XYY=             -6.2746
  XXY=              4.0707  XXZ=             21.2255  XZZ=             -6.9738  YZZ=             -0.1980
  YYZ=              1.2227  XYZ=             -2.3232
 Hexadecapole moment (field-independent basis, Debye-Ang**3):
 XXXX=           -607.2728 YYYY=            -57.5085 ZZZZ=            -57.0863 XXXY=             12.8834
 XXXZ=             64.5635 YYYX=             10.2531 YYYZ=             -0.0229 ZZZX=              6.2826
 ZZZY=             -0.6562 XXYY=            -82.7820 XXZZ=            -80.7227 YYZZ=            -19.7162
 XXYZ=             -7.1025 YYXZ=              3.0990 ZZXY=              0.3223
 N-N= 6.219397333276D+01 E-N=-5.119701072649D+02  KE= 1.551400598426D+02
   1 Symmetry operations used in ECPInt.
 ECPInt:  NShTT=     171 NPrTT=    1054 LenC2=     172 LenP2D=     955.
 LDataN:  DoStor=T MaxTD1= 5 Len=  102
 D1PCM: PCM CHGder 1st derivatives, ID1Alg=3 FixD1E=F DoIter=F DoCFld=F I1PDM=0.
 Calling FoFJK, ICntrl=      2127 FMM=F ISym2X=0 I1Cent= 0 IOpClX= 0 NMat=1 NMatS=1 NMatT=0.
 Defaulting to unpruned grid for atomic number  53.
 Defaulting to unpruned grid for atomic number  53.
 Defaulting to unpruned grid for atomic number  53.
 Defaulting to unpruned grid for atomic number  53.
 ***** Axes restored to original set *****
 -------------------------------------------------------------------
 Center     Atomic                   Forces (Hartrees/Bohr)
 Number     Number              X              Y              Z
 -------------------------------------------------------------------
      1        8           0.085278142    0.003875788   -0.073592246
      2        1          -0.018748668   -0.002322060   -0.023310551
      3        8           0.161967977   -0.012758451   -0.007468087
      4        1           0.005970884    0.013395267    0.001647084
      5       53          -0.234468336   -0.002190543    0.102723800
 -------------------------------------------------------------------
 Cartesian Forces:  Max     0.234468336 RMS     0.083986443

 GradGradGradGradGradGradGradGradGradGradGradGradGradGradGradGradGradGrad
 Berny optimization.
 Internal  Forces:  Max     0.255499054 RMS     0.089716967
 Search for a saddle point.
 Step number   1 out of a maximum of   21
 All quantities printed in internal units (Hartrees-Bohrs-Radians)
 Swaping is turned off.
 Second derivative matrix not updated -- first step.
 The second derivative matrix:
                          R1        R2        R3        R4        R5
           R1           0.50968
           R2          -0.03812   0.11799
           R3          -0.07567   0.16382   0.53450
           R4           0.07519   0.07141  -0.03890   0.07867
           R5           0.00239  -0.00626   0.00093  -0.00143   0.56510
           A1          -0.01600  -0.00963  -0.08691   0.00310   0.00163
           A2           0.00171   0.00111   0.10696  -0.03795  -0.00191
           A3           0.01431   0.00841  -0.02014   0.03460   0.00032
           A4           0.00216   0.00217   0.02196  -0.00096  -0.02606
           D1           0.00037   0.00499  -0.00140   0.00528   0.00472
           D2           0.00038  -0.00287   0.00721  -0.00641   0.00161
                          A1        A2        A3        A4        D1
           A1           0.00858
           A2          -0.02366   0.06240
           A3           0.01488  -0.03848   0.02349
           A4          -0.00368   0.00521  -0.00141   0.02099
           D1           0.00149  -0.00284   0.00139   0.00808   0.00222
           D2          -0.00129   0.00514  -0.00393   0.00698   0.00986
                          D2
           D2          -0.00276
     Eigenvalues ---   -0.02890  -0.01132   0.00260   0.02597   0.03808
     Eigenvalues ---    0.18019   0.47718   0.56638   0.670511000.00000
     Eigenvalues --- 1000.00000
 Eigenvectors required to have negative eigenvalues:
                          A1        R4        R2        A3        R3
   1                    0.53321   0.49086  -0.47367  -0.40112   0.26141
                          A2        A4        R1        R5        D1
   1                   -0.13264  -0.04537  -0.03735  -0.00771  -0.00404
 RFO step:  Lambda0=5.285532823D-03 Lambda=-1.42367364D-01.
 Linear search not attempted -- option 19 set.
 Maximum step size (   0.030) exceeded in Quadratic search.
    -- Step size scaled by   0.045
 Iteration  1 RMS(Cart)=  0.00646839 RMS(Int)=  0.00002166
 Iteration  2 RMS(Cart)=  0.00002267 RMS(Int)=  0.00000338
 Iteration  3 RMS(Cart)=  0.00000000 RMS(Int)=  0.00000338
 Variable       Old X    -DE/DX   Delta X   Delta X   Delta X     New X
                                 (Linear)    (Quad)   (Total)
    R1        1.82880   0.00287   0.00000   0.00105   0.00105   1.82985
    R2        3.07246   0.13143   0.00000   0.00101   0.00102   3.07348
    R3        3.39022   0.25550   0.00000   0.02141   0.02141   3.41163
    R4        3.26665   0.04375   0.00000   0.01529   0.01529   3.28194
    R5        1.82835   0.01454   0.00000   0.00079   0.00079   1.82914
    A1        1.38160  -0.03974   0.00000   0.00831   0.00832   1.38991
    A2        2.22579  -0.00716   0.00000  -0.01050  -0.01051   2.21528
    A3        2.67477   0.04688   0.00000   0.00239   0.00238   2.67715
    A4        1.83906   0.00381   0.00000  -0.00186  -0.00186   1.83720
    D1        1.62329   0.00306   0.00000  -0.00229  -0.00229   1.62100
    D2       -1.57921  -0.00061   0.00000   0.00334   0.00334  -1.57587
         Item               Value     Threshold  Converged?
 Maximum Force            0.255499     0.000450     NO 
 RMS     Force            0.089717     0.000300     NO 
 Maximum Displacement     0.014675     0.001800     NO 
 RMS     Displacement     0.006469     0.001200     NO 
 Predicted change in Energy=-6.030996D-03
 GradGradGradGradGradGradGradGradGradGradGradGradGradGradGradGradGradGrad

                          Input orientation:                          
 ---------------------------------------------------------------------
 Center     Atomic      Atomic             Coordinates (Angstroms)
 Number     Number       Type             X           Y           Z
 ---------------------------------------------------------------------
      1          8           0       -1.520397    0.714957    0.202387
      2          1           0       -1.354365    0.688707   -0.751227
      3          8           0        0.105928    0.704619    0.188725
      4          1           0        0.366858    1.636512    0.208764
      5         53           0       -3.127785    0.701862    1.024246
 ---------------------------------------------------------------------
                    Distance matrix (angstroms):
                    1          2          3          4          5
     1  O    0.000000
     2  H    0.968316   0.000000
     3  O    1.626416   1.736727   0.000000
     4  H    2.100247   2.186899   0.967941   0.000000
     5  I    1.805358   2.509481   3.339911   3.708249   0.000000
 Stoichiometry    H2IO2(1-)
 Framework group  C1[X(H2IO2)]
 Deg. of freedom     9
 Full point group                 C1      NOp   1
 Largest Abelian subgroup         C1      NOp   1
 Largest concise Abelian subgroup C1      NOp   1
                         Standard orientation:                         
 ---------------------------------------------------------------------
 Center     Atomic      Atomic             Coordinates (Angstroms)
 Number     Number       Type             X           Y           Z
 ---------------------------------------------------------------------
      1          8           0        1.121359    0.276287    0.012004
      2          1           0        1.565094    1.130677    0.115703
      3          8           0        2.675826   -0.183318   -0.120752
      4          1           0        2.945327   -0.432291    0.774955
      5         53           0       -0.658262   -0.027210   -0.000390
 ---------------------------------------------------------------------
 Rotational constants (GHZ):    122.1973107      2.5319555      2.5002446
 Standard basis: LANL2DZ (5D, 7F)
 There are    30 symmetry adapted basis functions of A   symmetry.
 Integral buffers will be    262144 words long.
 Raffenetti 2 integral format.
 Two-electron integral symmetry is turned on.
    30 basis functions,    70 primitive gaussians,    30 cartesian basis functions
    13 alpha electrons       13 beta electrons
       nuclear repulsion energy        62.0262238271 Hartrees.
 NAtoms=    5 NActive=    5 NUniq=    5 SFac= 7.50D-01 NAtFMM=   80 NAOKFM=F Big=F
 ------------------------------------------------------------------------------
 Polarizable Continuum Model (PCM)
 =================================
 Model                : PCM.
 Atomic radii         : SMD-Coulomb.
 Polarization charges : Total charges.
 Charge compensation  : None.
 Solution method      : Matrix inversion.
 Cavity type          : VdW (van der Waals Surface) (Alpha=1.000).
 Cavity algorithm     : GePol (No added spheres)
                        Default sphere list used, NSphG=    5.
                        Lebedev-Laikov grids with approx.  5.0 points / Ang**2.
                        Smoothing algorithm: Karplus/York (Gamma=1.0000).
                        Polarization charges: spherical gaussians, with
                                              point-specific exponents (IZeta= 3).
                        Self-potential: point-specific (ISelfS= 7).
                        Self-field    : sphere-specific E.n sum rule (ISelfD= 2).
 1st derivatives      : Analytical E(r).r(x)/FMM algorithm (CHGder, D1EAlg=3).
                        Cavity 1st derivative terms included.
 Solvent              : Water, Eps=  78.355300 Eps(inf)=   1.777849
 ------------------------------------------------------------------------------
 Spheres list:
 ISph  on   Nord    Re0     Alpha      Xe            Ye            Ze
    1   O      1    1.520   1.000      1.121359      0.276287      0.012004
    2   H      2    1.200   1.000      1.565094      1.130677      0.115703
    3   O      3    1.520   1.000      2.675826     -0.183318     -0.120752
    4   H      4    1.200   1.000      2.945327     -0.432291      0.774955
    5   I      5    1.980   1.000     -0.658262     -0.027210     -0.000390
 ------------------------------------------------------------------------------
 ------------------------------------------------------------------------------
 Atomic radii for non-electrostatic terms: SMD-CDS.
 ------------------------------------------------------------------------------
 Nuclear repulsion after PCM non-electrostatic terms =       62.0282268032 Hartrees.
 One-electron integrals computed using PRISM.
   1 Symmetry operations used in ECPInt.
 ECPInt:  NShTT=     171 NPrTT=    1054 LenC2=     172 LenP2D=     954.
 LDataN:  DoStor=T MaxTD1= 4 Len=   56
 NBasis=    30 RedAO= T  NBF=    30
 NBsUse=    30 1.00D-06 NBFU=    30
 Defaulting to unpruned grid for atomic number  53.
 Initial guess read from the read-write file.
 B after Tr=     0.000000    0.000000    0.000000
         Rot=    1.000000    0.000000    0.000000    0.000000 Ang=   0.00 deg.
 Initial guess orbital symmetries:
       Occupied  (A) (A) (A) (A) (A) (A) (A) (A) (A) (A) (A) (A)
                 (A)
       Virtual   (A) (A) (A) (A) (A) (A) (A) (A) (A) (A) (A) (A)
                 (A) (A) (A) (A) (A)
 Requested convergence on RMS density matrix=1.00D-08 within 128 cycles.
 Requested convergence on MAX density matrix=1.00D-06.
 Requested convergence on             energy=1.00D-06.
 No special actions if energy rises.
 Keep R1 ints in memory in canonical form, NReq=3388155.
 Defaulting to unpruned grid for atomic number  53.
 Defaulting to unpruned grid for atomic number  53.
 Defaulting to unpruned grid for atomic number  53.
 Defaulting to unpruned grid for atomic number  53.
 Error on total polarization charges =  0.08868
 SCF Done:  E(RM062X) =  -162.827603560     A.U. after   11 cycles
             Convg  =    0.2221D-08             -V/T =  2.0498
 SMD-CDS (non-electrostatic) energy             (kcal/mol) =       1.26
 (included in total energy above)
   1 Symmetry operations used in ECPInt.
 ECPInt:  NShTT=     171 NPrTT=    1054 LenC2=     172 LenP2D=     954.
 LDataN:  DoStor=T MaxTD1= 5 Len=  102
 D1PCM: PCM CHGder 1st derivatives, ID1Alg=3 FixD1E=F DoIter=F DoCFld=F I1PDM=0.
 Calling FoFJK, ICntrl=      2127 FMM=F ISym2X=0 I1Cent= 0 IOpClX= 0 NMat=1 NMatS=1 NMatT=0.
 Defaulting to unpruned grid for atomic number  53.
 Defaulting to unpruned grid for atomic number  53.
 Defaulting to unpruned grid for atomic number  53.
 Defaulting to unpruned grid for atomic number  53.
 ***** Axes restored to original set *****
 -------------------------------------------------------------------
 Center     Atomic                   Forces (Hartrees/Bohr)
 Number     Number              X              Y              Z
 -------------------------------------------------------------------
      1        8           0.083409735    0.003544870   -0.069545761
      2        1          -0.019014487   -0.002253820   -0.023114454
      3        8           0.156979899   -0.012317000   -0.007282239
      4        1           0.005624444    0.012974866    0.001619422
      5       53          -0.226999591   -0.001948916    0.098323031
 -------------------------------------------------------------------
 Cartesian Forces:  Max     0.226999591 RMS     0.081222876

 GradGradGradGradGradGradGradGradGradGradGradGradGradGradGradGradGradGrad
 Berny optimization.
 Internal  Forces:  Max     0.246883708 RMS     0.086747674
 Search for a saddle point.
 Step number   2 out of a maximum of   21
 All quantities printed in internal units (Hartrees-Bohrs-Radians)
 Swaping is turned off.
 Update second derivatives using D2CorX and points    1    2
 The second derivative matrix:
                          R1        R2        R3        R4        R5
           R1           0.50971
           R2          -0.03814   0.11757
           R3          -0.07545   0.16067   0.51588
           R4           0.07550   0.07054  -0.04060   0.08148
           R5           0.00240  -0.00634   0.00062  -0.00136   0.56510
           A1          -0.01582  -0.00995  -0.08657   0.00507   0.00170
           A2           0.00147   0.00151   0.10650  -0.04044  -0.00200
           A3           0.01437   0.00838  -0.01951   0.03535   0.00036
           A4           0.00212   0.00228   0.02214  -0.00131  -0.02607
           D1           0.00031   0.00496  -0.00248   0.00440   0.00468
           D2           0.00046  -0.00292   0.00802  -0.00538   0.00165
                          A1        A2        A3        A4        D1
           A1           0.00984
           A2          -0.02526   0.06442
           A3           0.01532  -0.03904   0.02363
           A4          -0.00393   0.00552  -0.00150   0.02104
           D1           0.00100  -0.00221   0.00124   0.00819   0.00237
           D2          -0.00068   0.00438  -0.00373   0.00685   0.00966
                          D2
           D2          -0.00249
     Eigenvalues ---   -0.02741  -0.01062   0.00258   0.02596   0.03842
     Eigenvalues ---    0.18261   0.47266   0.56633   0.657601000.00000
     Eigenvalues --- 1000.00000
 Eigenvectors required to have negative eigenvalues:
                          A1        R4        R2        A3        R3
   1                    0.52752   0.47924  -0.47376  -0.41238   0.26691
                          A2        D2        D1        A4        R1
   1                   -0.11980  -0.07212   0.05786  -0.04546  -0.03557
 RFO step:  Lambda0=4.678879223D-03 Lambda=-1.37809617D-01.
 Linear search not attempted -- option 19 set.
 Maximum step size (   0.030) exceeded in Quadratic search.
    -- Step size scaled by   0.045
 Iteration  1 RMS(Cart)=  0.00676240 RMS(Int)=  0.00002263
 Iteration  2 RMS(Cart)=  0.00002308 RMS(Int)=  0.00000453
 Iteration  3 RMS(Cart)=  0.00000000 RMS(Int)=  0.00000453
 Variable       Old X    -DE/DX   Delta X   Delta X   Delta X     New X
                                 (Linear)    (Quad)   (Total)
    R1        1.82985   0.00295   0.00000   0.00122   0.00122   1.83107
    R2        3.07348   0.12694   0.00000   0.00086   0.00086   3.07434
    R3        3.41163   0.24688   0.00000   0.02180   0.02180   3.43343
    R4        3.28194   0.04270   0.00000   0.01427   0.01427   3.29621
    R5        1.82914   0.01403   0.00000   0.00074   0.00074   1.82989
    A1        1.38991  -0.03832   0.00000   0.00776   0.00776   1.39767
    A2        2.21528  -0.00785   0.00000  -0.01039  -0.01040   2.20488
    A3        2.67715   0.04615   0.00000   0.00237   0.00236   2.67951
    A4        1.83720   0.00350   0.00000  -0.00197  -0.00197   1.83523
    D1        1.62100   0.00299   0.00000   0.00418   0.00418   1.62519
    D2       -1.57587  -0.00060   0.00000  -0.00479  -0.00479  -1.58066
         Item               Value     Threshold  Converged?
 Maximum Force            0.246884     0.000450     NO 
 RMS     Force            0.086748     0.000300     NO 
 Maximum Displacement     0.015326     0.001800     NO 
 RMS     Displacement     0.006763     0.001200     NO 
 Predicted change in Energy=-5.920832D-03
 GradGradGradGradGradGradGradGradGradGradGradGradGradGradGradGradGradGrad

                          Input orientation:                          
 ---------------------------------------------------------------------
 Center     Atomic      Atomic             Coordinates (Angstroms)
 Number     Number       Type             X           Y           Z
 ---------------------------------------------------------------------
      1          8           0       -1.516483    0.716730    0.202430
      2          1           0       -1.358084    0.687232   -0.753040
      3          8           0        0.110285    0.704777    0.188285
      4          1           0        0.370416    1.637283    0.209169
      5         53           0       -3.135895    0.700635    1.026052
 ---------------------------------------------------------------------
                    Distance matrix (angstroms):
                    1          2          3          4          5
     1  O    0.000000
     2  H    0.968960   0.000000
     3  O    1.626873   1.744278   0.000000
     4  H    2.099489   2.194574   0.968334   0.000000
     5  I    1.816894   2.515146   3.352544   3.720057   0.000000
 Stoichiometry    H2IO2(1-)
 Framework group  C1[X(H2IO2)]
 Deg. of freedom     9
 Full point group                 C1      NOp   1
 Largest Abelian subgroup         C1      NOp   1
 Largest concise Abelian subgroup C1      NOp   1
                         Standard orientation:                         
 ---------------------------------------------------------------------
 Center     Atomic      Atomic             Coordinates (Angstroms)
 Number     Number       Type             X           Y           Z
 ---------------------------------------------------------------------
      1          8           0        1.130279    0.275039    0.012974
      2          1           0        1.566782    1.134368    0.112497
      3          8           0        2.685459   -0.183405   -0.121046
      4          1           0        2.954441   -0.431160    0.775580
      5         53           0       -0.661267   -0.027100   -0.000443
 ---------------------------------------------------------------------
 Rotational constants (GHZ):    122.2535556      2.5106407      2.4795190
 Standard basis: LANL2DZ (5D, 7F)
 There are    30 symmetry adapted basis functions of A   symmetry.
 Integral buffers will be    262144 words long.
 Raffenetti 2 integral format.
 Two-electron integral symmetry is turned on.
    30 basis functions,    70 primitive gaussians,    30 cartesian basis functions
    13 alpha electrons       13 beta electrons
       nuclear repulsion energy        61.8608580242 Hartrees.
 NAtoms=    5 NActive=    5 NUniq=    5 SFac= 7.50D-01 NAtFMM=   80 NAOKFM=F Big=F
 ------------------------------------------------------------------------------
 Polarizable Continuum Model (PCM)
 =================================
 Model                : PCM.
 Atomic radii         : SMD-Coulomb.
 Polarization charges : Total charges.
 Charge compensation  : None.
 Solution method      : Matrix inversion.
 Cavity type          : VdW (van der Waals Surface) (Alpha=1.000).
 Cavity algorithm     : GePol (No added spheres)
                        Default sphere list used, NSphG=    5.
                        Lebedev-Laikov grids with approx.  5.0 points / Ang**2.
                        Smoothing algorithm: Karplus/York (Gamma=1.0000).
                        Polarization charges: spherical gaussians, with
                                              point-specific exponents (IZeta= 3).
                        Self-potential: point-specific (ISelfS= 7).
                        Self-field    : sphere-specific E.n sum rule (ISelfD= 2).
 1st derivatives      : Analytical E(r).r(x)/FMM algorithm (CHGder, D1EAlg=3).
                        Cavity 1st derivative terms included.
 Solvent              : Water, Eps=  78.355300 Eps(inf)=   1.777849
 ------------------------------------------------------------------------------
 Spheres list:
 ISph  on   Nord    Re0     Alpha      Xe            Ye            Ze
    1   O      1    1.520   1.000      1.130279      0.275039      0.012974
    2   H      2    1.200   1.000      1.566782      1.134368      0.112497
    3   O      3    1.520   1.000      2.685459     -0.183405     -0.121046
    4   H      4    1.200   1.000      2.954441     -0.431160      0.775580
    5   I      5    1.980   1.000     -0.661267     -0.027100     -0.000443
 ------------------------------------------------------------------------------
 ------------------------------------------------------------------------------
 Atomic radii for non-electrostatic terms: SMD-CDS.
 ------------------------------------------------------------------------------
 Nuclear repulsion after PCM non-electrostatic terms =       61.8628637014 Hartrees.
 One-electron integrals computed using PRISM.
   1 Symmetry operations used in ECPInt.
 ECPInt:  NShTT=     171 NPrTT=    1054 LenC2=     172 LenP2D=     954.
 LDataN:  DoStor=T MaxTD1= 4 Len=   56
 NBasis=    30 RedAO= T  NBF=    30
 NBsUse=    30 1.00D-06 NBFU=    30
 Defaulting to unpruned grid for atomic number  53.
 Initial guess read from the read-write file.
 B after Tr=     0.000000    0.000000    0.000000
         Rot=    1.000000    0.000000    0.000000    0.000000 Ang=   0.00 deg.
 Initial guess orbital symmetries:
       Occupied  (A) (A) (A) (A) (A) (A) (A) (A) (A) (A) (A) (A)
                 (A)
       Virtual   (A) (A) (A) (A) (A) (A) (A) (A) (A) (A) (A) (A)
                 (A) (A) (A) (A) (A)
 Requested convergence on RMS density matrix=1.00D-08 within 128 cycles.
 Requested convergence on MAX density matrix=1.00D-06.
 Requested convergence on             energy=1.00D-06.
 No special actions if energy rises.
 Keep R1 ints in memory in canonical form, NReq=3388155.
 Defaulting to unpruned grid for atomic number  53.
 Defaulting to unpruned grid for atomic number  53.
 Defaulting to unpruned grid for atomic number  53.
 Defaulting to unpruned grid for atomic number  53.
 Error on total polarization charges =  0.08876
 SCF Done:  E(RM062X) =  -162.833526431     A.U. after   11 cycles
             Convg  =    0.1987D-08             -V/T =  2.0500
 SMD-CDS (non-electrostatic) energy             (kcal/mol) =       1.26
 (included in total energy above)
   1 Symmetry operations used in ECPInt.
 ECPInt:  NShTT=     171 NPrTT=    1054 LenC2=     172 LenP2D=     954.
 LDataN:  DoStor=T MaxTD1= 5 Len=  102
 D1PCM: PCM CHGder 1st derivatives, ID1Alg=3 FixD1E=F DoIter=F DoCFld=F I1PDM=0.
 Calling FoFJK, ICntrl=      2127 FMM=F ISym2X=0 I1Cent= 0 IOpClX= 0 NMat=1 NMatS=1 NMatT=0.
 Defaulting to unpruned grid for atomic number  53.
 Defaulting to unpruned grid for atomic number  53.
 Defaulting to unpruned grid for atomic number  53.
 Defaulting to unpruned grid for atomic number  53.
 ***** Axes restored to original set *****
 -------------------------------------------------------------------
 Center     Atomic                   Forces (Hartrees/Bohr)
 Number     Number              X              Y              Z
 -------------------------------------------------------------------
      1        8           0.081586921    0.003983277   -0.065785864
      2        1          -0.019258997   -0.002293831   -0.022776938
      3        8           0.152019720   -0.012000506   -0.007145157
      4        1           0.005326621    0.012549480    0.001599996
      5       53          -0.219674265   -0.002238420    0.094107963
 -------------------------------------------------------------------
 Cartesian Forces:  Max     0.219674265 RMS     0.078530935

 GradGradGradGradGradGradGradGradGradGradGradGradGradGradGradGradGradGrad
 Berny optimization.
 Internal  Forces:  Max     0.238483074 RMS     0.083846895
 Search for a saddle point.
 Step number   3 out of a maximum of   21
 All quantities printed in internal units (Hartrees-Bohrs-Radians)
 Swaping is turned off.
 Update second derivatives using D2CorX and points    1    2    3
 The second derivative matrix:
                          R1        R2        R3        R4        R5
           R1           0.50960
           R2          -0.03778   0.11688
           R3          -0.07242   0.15643   0.49780
           R4           0.07684   0.06922  -0.04240   0.08396
           R5           0.00250  -0.00647   0.00007  -0.00140   0.56509
           A1          -0.01513  -0.01058  -0.08692   0.00665   0.00170
           A2           0.00066   0.00214   0.10559  -0.04302  -0.00205
           A3           0.01453   0.00830  -0.01889   0.03608   0.00038
           A4           0.00202   0.00229   0.02125  -0.00204  -0.02610
           D1           0.00041   0.00503  -0.00077   0.00556   0.00474
           D2           0.00034  -0.00295   0.00644  -0.00653   0.00160
                          A1        A2        A3        A4        D1
           A1           0.01080
           A2          -0.02678   0.06668
           A3           0.01573  -0.03963   0.02378
           A4          -0.00433   0.00608  -0.00163   0.02115
           D1           0.00163  -0.00305   0.00143   0.00803   0.00259
           D2          -0.00131   0.00522  -0.00393   0.00702   0.00942
                          D2
           D2          -0.00223
     Eigenvalues ---   -0.02576  -0.01041   0.00266   0.02601   0.03925
     Eigenvalues ---    0.18460   0.46976   0.56624   0.643171000.00000
     Eigenvalues --- 1000.00000
 Eigenvectors required to have negative eigenvalues:
                          A1        R4        R2        A3        R3
   1                    0.52953   0.48416  -0.46761  -0.42531   0.26839
                          A2        R1        A4        D1        R5
   1                   -0.10459  -0.03869  -0.02946  -0.01601  -0.00663
 RFO step:  Lambda0=4.362511084D-03 Lambda=-1.33280321D-01.
 Linear search not attempted -- option 19 set.
 Maximum step size (   0.030) exceeded in Quadratic search.
    -- Step size scaled by   0.045
 Iteration  1 RMS(Cart)=  0.00649998 RMS(Int)=  0.00002213
 Iteration  2 RMS(Cart)=  0.00002262 RMS(Int)=  0.00000545
 Iteration  3 RMS(Cart)=  0.00000000 RMS(Int)=  0.00000545
 Variable       Old X    -DE/DX   Delta X   Delta X   Delta X     New X
                                 (Linear)    (Quad)   (Total)
    R1        1.83107   0.00294   0.00000   0.00097   0.00097   1.83204
    R2        3.07434   0.12255   0.00000   0.00086   0.00087   3.07521
    R3        3.43343   0.23848   0.00000   0.02161   0.02161   3.45504
    R4        3.29621   0.04163   0.00000   0.01476   0.01475   3.31096
    R5        1.82989   0.01353   0.00000   0.00078   0.00078   1.83067
    A1        1.39767  -0.03692   0.00000   0.00812   0.00812   1.40579
    A2        2.20488  -0.00850   0.00000  -0.01016  -0.01018   2.19470
    A3        2.67951   0.04541   0.00000   0.00235   0.00234   2.68185
    A4        1.83523   0.00322   0.00000  -0.00157  -0.00157   1.83366
    D1        1.62519   0.00292   0.00000  -0.00367  -0.00367   1.62152
    D2       -1.58066  -0.00061   0.00000   0.00472   0.00472  -1.57594
         Item               Value     Threshold  Converged?
 Maximum Force            0.238483     0.000450     NO 
 RMS     Force            0.083847     0.000300     NO 
 Maximum Displacement     0.014832     0.001800     NO 
 RMS     Displacement     0.006501     0.001200     NO 
 Predicted change in Energy=-5.670959D-03
 GradGradGradGradGradGradGradGradGradGradGradGradGradGradGradGradGradGrad

                          Input orientation:                          
 ---------------------------------------------------------------------
 Center     Atomic      Atomic             Coordinates (Angstroms)
 Number     Number       Type             X           Y           Z
 ---------------------------------------------------------------------
      1          8           0       -1.512207    0.714562    0.202638
      2          1           0       -1.361381    0.687908   -0.754661
      3          8           0        0.115035    0.704821    0.188583
      4          1           0        0.372535    1.638504    0.208658
      5         53           0       -3.143743    0.700861    1.027677
 ---------------------------------------------------------------------
                    Distance matrix (angstroms):
                    1          2          3          4          5
     1  O    0.000000
     2  H    0.969474   0.000000
     3  O    1.627332   1.752084   0.000000
     4  H    2.099037   2.199564   0.968748   0.000000
     5  I    1.828329   2.520657   3.365075   3.730171   0.000000
 Stoichiometry    H2IO2(1-)
 Framework group  C1[X(H2IO2)]
 Deg. of freedom     9
 Full point group                 C1      NOp   1
 Largest Abelian subgroup         C1      NOp   1
 Largest concise Abelian subgroup C1      NOp   1
                         Standard orientation:                         
 ---------------------------------------------------------------------
 Center     Atomic      Atomic             Coordinates (Angstroms)
 Number     Number       Type             X           Y           Z
 ---------------------------------------------------------------------
      1          8           0        1.139073    0.274341    0.011442
      2          1           0        1.568431    1.137167    0.116617
      3          8           0        2.695072   -0.183506   -0.120666
      4          1           0        2.961541   -0.431639    0.777051
      5         53           0       -0.664210   -0.027023   -0.000375
 ---------------------------------------------------------------------
 Rotational constants (GHZ):    122.2038999      2.4899242      2.4593281
 Standard basis: LANL2DZ (5D, 7F)
 There are    30 symmetry adapted basis functions of A   symmetry.
 Integral buffers will be    262144 words long.
 Raffenetti 2 integral format.
 Two-electron integral symmetry is turned on.
    30 basis functions,    70 primitive gaussians,    30 cartesian basis functions
    13 alpha electrons       13 beta electrons
       nuclear repulsion energy        61.6990363336 Hartrees.
 NAtoms=    5 NActive=    5 NUniq=    5 SFac= 7.50D-01 NAtFMM=   80 NAOKFM=F Big=F
 ------------------------------------------------------------------------------
 Polarizable Continuum Model (PCM)
 =================================
 Model                : PCM.
 Atomic radii         : SMD-Coulomb.
 Polarization charges : Total charges.
 Charge compensation  : None.
 Solution method      : Matrix inversion.
 Cavity type          : VdW (van der Waals Surface) (Alpha=1.000).
 Cavity algorithm     : GePol (No added spheres)
                        Default sphere list used, NSphG=    5.
                        Lebedev-Laikov grids with approx.  5.0 points / Ang**2.
                        Smoothing algorithm: Karplus/York (Gamma=1.0000).
                        Polarization charges: spherical gaussians, with
                                              point-specific exponents (IZeta= 3).
                        Self-potential: point-specific (ISelfS= 7).
                        Self-field    : sphere-specific E.n sum rule (ISelfD= 2).
 1st derivatives      : Analytical E(r).r(x)/FMM algorithm (CHGder, D1EAlg=3).
                        Cavity 1st derivative terms included.
 Solvent              : Water, Eps=  78.355300 Eps(inf)=   1.777849
 ------------------------------------------------------------------------------
 Spheres list:
 ISph  on   Nord    Re0     Alpha      Xe            Ye            Ze
    1   O      1    1.520   1.000      1.139073      0.274341      0.011442
    2   H      2    1.200   1.000      1.568431      1.137167      0.116617
    3   O      3    1.520   1.000      2.695072     -0.183506     -0.120666
    4   H      4    1.200   1.000      2.961541     -0.431639      0.777051
    5   I      5    1.980   1.000     -0.664210     -0.027023     -0.000375
 ------------------------------------------------------------------------------
 ------------------------------------------------------------------------------
 Atomic radii for non-electrostatic terms: SMD-CDS.
 ------------------------------------------------------------------------------
 Nuclear repulsion after PCM non-electrostatic terms =       61.7010450468 Hartrees.
 One-electron integrals computed using PRISM.
   1 Symmetry operations used in ECPInt.
 ECPInt:  NShTT=     171 NPrTT=    1054 LenC2=     172 LenP2D=     954.
 LDataN:  DoStor=T MaxTD1= 4 Len=   56
 NBasis=    30 RedAO= T  NBF=    30
 NBsUse=    30 1.00D-06 NBFU=    30
 Defaulting to unpruned grid for atomic number  53.
 Initial guess read from the read-write file.
 B after Tr=     0.000000    0.000000    0.000000
         Rot=    1.000000    0.000000    0.000000    0.000000 Ang=   0.00 deg.
 Initial guess orbital symmetries:
       Occupied  (A) (A) (A) (A) (A) (A) (A) (A) (A) (A) (A) (A)
                 (A)
       Virtual   (A) (A) (A) (A) (A) (A) (A) (A) (A) (A) (A) (A)
                 (A) (A) (A) (A) (A)
 Requested convergence on RMS density matrix=1.00D-08 within 128 cycles.
 Requested convergence on MAX density matrix=1.00D-06.
 Requested convergence on             energy=1.00D-06.
 No special actions if energy rises.
 Keep R1 ints in memory in canonical form, NReq=3390604.
 Defaulting to unpruned grid for atomic number  53.
 Defaulting to unpruned grid for atomic number  53.
 Defaulting to unpruned grid for atomic number  53.
 Defaulting to unpruned grid for atomic number  53.
 Error on total polarization charges =  0.08884
 SCF Done:  E(RM062X) =  -162.839199457     A.U. after   11 cycles
             Convg  =    0.2212D-08             -V/T =  2.0503
 SMD-CDS (non-electrostatic) energy             (kcal/mol) =       1.26
 (included in total energy above)
   1 Symmetry operations used in ECPInt.
 ECPInt:  NShTT=     171 NPrTT=    1054 LenC2=     172 LenP2D=     954.
 LDataN:  DoStor=T MaxTD1= 5 Len=  102
 D1PCM: PCM CHGder 1st derivatives, ID1Alg=3 FixD1E=F DoIter=F DoCFld=F I1PDM=0.
 Calling FoFJK, ICntrl=      2127 FMM=F ISym2X=0 I1Cent= 0 IOpClX= 0 NMat=1 NMatS=1 NMatT=0.
 Defaulting to unpruned grid for atomic number  53.
 Defaulting to unpruned grid for atomic number  53.
 Defaulting to unpruned grid for atomic number  53.
 Defaulting to unpruned grid for atomic number  53.
 ***** Axes restored to original set *****
 -------------------------------------------------------------------
 Center     Atomic                   Forces (Hartrees/Bohr)
 Number     Number              X              Y              Z
 -------------------------------------------------------------------
      1        8           0.079925597    0.003553916   -0.062120697
      2        1          -0.019442718   -0.002206919   -0.022556228
      3        8           0.147207308   -0.011568010   -0.006959560
      4        1           0.004995409    0.012153615    0.001571209
      5       53          -0.212685596   -0.001932602    0.090065276
 -------------------------------------------------------------------
 Cartesian Forces:  Max     0.212685596 RMS     0.075951483

 GradGradGradGradGradGradGradGradGradGradGradGradGradGradGradGradGradGrad
 Berny optimization.
 Internal  Forces:  Max     0.230458891 RMS     0.081061980
 Search for a saddle point.
 Step number   4 out of a maximum of   21
 All quantities printed in internal units (Hartrees-Bohrs-Radians)
 Swaping is turned off.
 Update second derivatives using D2CorX and points    1    2    3    4
 The second derivative matrix:
                          R1        R2        R3        R4        R5
           R1           0.50962
           R2          -0.03785   0.11670
           R3          -0.07313   0.15470   0.48137
           R4           0.07642   0.06909  -0.04344   0.08642
           R5           0.00247  -0.00649  -0.00011  -0.00127   0.56509
           A1          -0.01536  -0.01053  -0.08630   0.00843   0.00180
           A2           0.00093   0.00211   0.10512  -0.04501  -0.00216
           A3           0.01447   0.00835  -0.01836   0.03667   0.00042
           A4           0.00204   0.00236   0.02197  -0.00195  -0.02609
           D1           0.00052   0.00483  -0.00263   0.00419   0.00465
           D2           0.00020  -0.00278   0.00807  -0.00515   0.00169
                          A1        A2        A3        A4        D1
           A1           0.01198
           A2          -0.02811   0.06820
           A3           0.01610  -0.04005   0.02388
           A4          -0.00433   0.00607  -0.00164   0.02112
           D1           0.00084  -0.00214   0.00122   0.00809   0.00304
           D2          -0.00049   0.00429  -0.00370   0.00698   0.00891
                          D2
           D2          -0.00166
     Eigenvalues ---   -0.02523  -0.00894   0.00259   0.02596   0.03904
     Eigenvalues ---    0.18732   0.46418   0.56619   0.633851000.00000
     Eigenvalues --- 1000.00000
 Eigenvectors required to have negative eigenvalues:
                          A1        R2        R4        A3        R3
   1                    0.52114  -0.47064   0.46653  -0.42844   0.27635
                          D2        A2        D1        A4        R1
   1                   -0.10214  -0.09887   0.07804  -0.04208  -0.03454
 RFO step:  Lambda0=3.393322259D-03 Lambda=-1.28840609D-01.
 Linear search not attempted -- option 19 set.
 Maximum step size (   0.030) exceeded in Quadratic search.
    -- Step size scaled by   0.045
 Iteration  1 RMS(Cart)=  0.00715034 RMS(Int)=  0.00002668
 Iteration  2 RMS(Cart)=  0.00002531 RMS(Int)=  0.00001022
 Iteration  3 RMS(Cart)=  0.00000000 RMS(Int)=  0.00001022
 Variable       Old X    -DE/DX   Delta X   Delta X   Delta X     New X
                                 (Linear)    (Quad)   (Total)
    R1        1.83204   0.00303   0.00000   0.00133   0.00133   1.83337
    R2        3.07521   0.11825   0.00000   0.00128   0.00129   3.07650
    R3        3.45504   0.23046   0.00000   0.02175   0.02175   3.47679
    R4        3.31096   0.04058   0.00000   0.01253   0.01252   3.32348
    R5        1.83067   0.01304   0.00000   0.00071   0.00071   1.83138
    A1        1.40579  -0.03558   0.00000   0.00651   0.00650   1.41229
    A2        2.19470  -0.00911   0.00000  -0.01016  -0.01018   2.18452
    A3        2.68185   0.04467   0.00000   0.00322   0.00320   2.68506
    A4        1.83366   0.00292   0.00000  -0.00193  -0.00193   1.83172
    D1        1.62152   0.00286   0.00000   0.00654   0.00654   1.62806
    D2       -1.57594  -0.00060   0.00000  -0.00796  -0.00796  -1.58390
         Item               Value     Threshold  Converged?
 Maximum Force            0.230459     0.000450     NO 
 RMS     Force            0.081062     0.000300     NO 
 Maximum Displacement     0.016340     0.001800     NO 
 RMS     Displacement     0.007153     0.001200     NO 
 Predicted change in Energy=-5.617163D-03
 GradGradGradGradGradGradGradGradGradGradGradGradGradGradGradGradGradGrad

                          Input orientation:                          
 ---------------------------------------------------------------------
 Center     Atomic      Atomic             Coordinates (Angstroms)
 Number     Number       Type             X           Y           Z
 ---------------------------------------------------------------------
      1          8           0       -1.508591    0.717581    0.203053
      2          1           0       -1.364833    0.685996   -0.755896
      3          8           0        0.119300    0.705003    0.187529
      4          1           0        0.376753    1.639060    0.208969
      5         53           0       -3.152390    0.699017    1.029239
 ---------------------------------------------------------------------
                    Distance matrix (angstroms):
                    1          2          3          4          5
     1  O    0.000000
     2  H    0.970179   0.000000
     3  O    1.628014   1.758712   0.000000
     4  H    2.098494   2.207356   0.969125   0.000000
     5  I    1.839838   2.526309   3.378235   3.743177   0.000000
 Stoichiometry    H2IO2(1-)
 Framework group  C1[X(H2IO2)]
 Deg. of freedom     9
 Full point group                 C1      NOp   1
 Largest Abelian subgroup         C1      NOp   1
 Largest concise Abelian subgroup C1      NOp   1
                         Standard orientation:                         
 ---------------------------------------------------------------------
 Center     Atomic      Atomic             Coordinates (Angstroms)
 Number     Number       Type             X           Y           Z
 ---------------------------------------------------------------------
      1          8           0        1.147976    0.272396    0.013207
      2          1           0        1.570469    1.140219    0.111340
      3          8           0        2.705145   -0.183227   -0.121190
      4          1           0        2.971944   -0.429753    0.777279
      5         53           0       -0.667309   -0.026865   -0.000467
 ---------------------------------------------------------------------
 Rotational constants (GHZ):    122.5653959      2.4683795      2.4384853
 Standard basis: LANL2DZ (5D, 7F)
 There are    30 symmetry adapted basis functions of A   symmetry.
 Integral buffers will be    262144 words long.
 Raffenetti 2 integral format.
 Two-electron integral symmetry is turned on.
    30 basis functions,    70 primitive gaussians,    30 cartesian basis functions
    13 alpha electrons       13 beta electrons
       nuclear repulsion energy        61.5335861023 Hartrees.
 NAtoms=    5 NActive=    5 NUniq=    5 SFac= 7.50D-01 NAtFMM=   80 NAOKFM=F Big=F
 ------------------------------------------------------------------------------
 Polarizable Continuum Model (PCM)
 =================================
 Model                : PCM.
 Atomic radii         : SMD-Coulomb.
 Polarization charges : Total charges.
 Charge compensation  : None.
 Solution method      : Matrix inversion.
 Cavity type          : VdW (van der Waals Surface) (Alpha=1.000).
 Cavity algorithm     : GePol (No added spheres)
                        Default sphere list used, NSphG=    5.
                        Lebedev-Laikov grids with approx.  5.0 points / Ang**2.
                        Smoothing algorithm: Karplus/York (Gamma=1.0000).
                        Polarization charges: spherical gaussians, with
                                              point-specific exponents (IZeta= 3).
                        Self-potential: point-specific (ISelfS= 7).
                        Self-field    : sphere-specific E.n sum rule (ISelfD= 2).
 1st derivatives      : Analytical E(r).r(x)/FMM algorithm (CHGder, D1EAlg=3).
                        Cavity 1st derivative terms included.
 Solvent              : Water, Eps=  78.355300 Eps(inf)=   1.777849
 ------------------------------------------------------------------------------
 Spheres list:
 ISph  on   Nord    Re0     Alpha      Xe            Ye            Ze
    1   O      1    1.520   1.000      1.147976      0.272396      0.013207
    2   H      2    1.200   1.000      1.570469      1.140219      0.111340
    3   O      3    1.520   1.000      2.705145     -0.183227     -0.121190
    4   H      4    1.200   1.000      2.971944     -0.429753      0.777279
    5   I      5    1.980   1.000     -0.667309     -0.026865     -0.000467
 ------------------------------------------------------------------------------
 ------------------------------------------------------------------------------
 Atomic radii for non-electrostatic terms: SMD-CDS.
 ------------------------------------------------------------------------------
 Nuclear repulsion after PCM non-electrostatic terms =       61.5355967573 Hartrees.
 One-electron integrals computed using PRISM.
   1 Symmetry operations used in ECPInt.
 ECPInt:  NShTT=     171 NPrTT=    1054 LenC2=     172 LenP2D=     954.
 LDataN:  DoStor=T MaxTD1= 4 Len=   56
 NBasis=    30 RedAO= T  NBF=    30
 NBsUse=    30 1.00D-06 NBFU=    30
 Defaulting to unpruned grid for atomic number  53.
 Initial guess read from the read-write file.
 B after Tr=     0.000000    0.000000    0.000000
         Rot=    1.000000    0.000000    0.000000    0.000000 Ang=   0.00 deg.
 Initial guess orbital symmetries:
       Occupied  (A) (A) (A) (A) (A) (A) (A) (A) (A) (A) (A) (A)
                 (A)
       Virtual   (A) (A) (A) (A) (A) (A) (A) (A) (A) (A) (A) (A)
                 (A) (A) (A) (A) (A)
 Requested convergence on RMS density matrix=1.00D-08 within 128 cycles.
 Requested convergence on MAX density matrix=1.00D-06.
 Requested convergence on             energy=1.00D-06.
 No special actions if energy rises.
 Keep R1 ints in memory in canonical form, NReq=3390604.
 Defaulting to unpruned grid for atomic number  53.
 Defaulting to unpruned grid for atomic number  53.
 Defaulting to unpruned grid for atomic number  53.
 Defaulting to unpruned grid for atomic number  53.
 Error on total polarization charges =  0.08891
 SCF Done:  E(RM062X) =  -162.844816834     A.U. after   11 cycles
             Convg  =    0.2257D-08             -V/T =  2.0506
 SMD-CDS (non-electrostatic) energy             (kcal/mol) =       1.26
 (included in total energy above)
   1 Symmetry operations used in ECPInt.
 ECPInt:  NShTT=     171 NPrTT=    1054 LenC2=     172 LenP2D=     954.
 LDataN:  DoStor=T MaxTD1= 5 Len=  102
 D1PCM: PCM CHGder 1st derivatives, ID1Alg=3 FixD1E=F DoIter=F DoCFld=F I1PDM=0.
 Calling FoFJK, ICntrl=      2127 FMM=F ISym2X=0 I1Cent= 0 IOpClX= 0 NMat=1 NMatS=1 NMatT=0.
 Defaulting to unpruned grid for atomic number  53.
 Defaulting to unpruned grid for atomic number  53.
 Defaulting to unpruned grid for atomic number  53.
 Defaulting to unpruned grid for atomic number  53.
 ***** Axes restored to original set *****
 -------------------------------------------------------------------
 Center     Atomic                   Forces (Hartrees/Bohr)
 Number     Number              X              Y              Z
 -------------------------------------------------------------------
      1        8           0.078168132    0.004187438   -0.058722348
      2        1          -0.019589183   -0.002271539   -0.022038106
      3        8           0.142485446   -0.011283290   -0.006920749
      4        1           0.004744674    0.011745163    0.001555949
      5       53          -0.205809068   -0.002377771    0.086125255
 -------------------------------------------------------------------
 Cartesian Forces:  Max     0.205809068 RMS     0.073426362

 GradGradGradGradGradGradGradGradGradGradGradGradGradGradGradGradGradGrad
 Berny optimization.
 Internal  Forces:  Max     0.222590820 RMS     0.078343576
 Search for a saddle point.
 Step number   5 out of a maximum of   21
 All quantities printed in internal units (Hartrees-Bohrs-Radians)
 Swaping is turned off.
 Update second derivatives using D2CorX and points    1    2    3    4    5
 The second derivative matrix:
                          R1        R2        R3        R4        R5
           R1           0.50973
           R2          -0.03731   0.11531
           R3          -0.06762   0.14731   0.46425
           R4           0.07855   0.06675  -0.04534   0.08838
           R5           0.00262  -0.00672  -0.00079  -0.00136   0.56507
           A1          -0.01437  -0.01153  -0.08639   0.00981   0.00179
           A2          -0.00053   0.00335   0.10331  -0.04771  -0.00219
           A3           0.01486   0.00807  -0.01745   0.03761   0.00044
           A4           0.00174   0.00245   0.02011  -0.00295  -0.02614
           D1           0.00137   0.00427  -0.00036   0.00583   0.00469
           D2          -0.00079  -0.00203   0.00617  -0.00685   0.00166
                          A1        A2        A3        A4        D1
           A1           0.01287
           A2          -0.02972   0.07099
           A3           0.01664  -0.04095   0.02417
           A4          -0.00484   0.00690  -0.00189   0.02135
           D1           0.00173  -0.00372   0.00170   0.00757   0.00410
           D2          -0.00145   0.00600  -0.00424   0.00755   0.00776
                          D2
           D2          -0.00043
     Eigenvalues ---   -0.02287  -0.00718   0.00285   0.02609   0.04169
     Eigenvalues ---    0.18797   0.46179   0.56600   0.618461000.00000
     Eigenvalues --- 1000.00000
 Eigenvectors required to have negative eigenvalues:
                          A1        R4        R2        A3        R3
   1                    0.52505   0.48294  -0.45333  -0.45150   0.26883
                          A2        D1        R1        D2        A4
   1                   -0.07242  -0.04384  -0.04142   0.01979  -0.01292
 RFO step:  Lambda0=3.954934776D-03 Lambda=-1.24714556D-01.
 Linear search not attempted -- option 19 set.
 Maximum step size (   0.030) exceeded in Quadratic search.
    -- Step size scaled by   0.041
 Iteration  1 RMS(Cart)=  0.00644491 RMS(Int)=  0.00003190
 Iteration  2 RMS(Cart)=  0.00002537 RMS(Int)=  0.00001885
 Iteration  3 RMS(Cart)=  0.00000000 RMS(Int)=  0.00001885
 Variable       Old X    -DE/DX   Delta X   Delta X   Delta X     New X
                                 (Linear)    (Quad)   (Total)
    R1        1.83337   0.00292   0.00000   0.00073   0.00073   1.83411
    R2        3.07650   0.11416   0.00000   0.00075   0.00076   3.07726
    R3        3.47679   0.22259   0.00000   0.02002   0.02002   3.49681
    R4        3.32348   0.03950   0.00000   0.01356   0.01354   3.33702
    R5        1.83138   0.01257   0.00000   0.00070   0.00070   1.83208
    A1        1.41229  -0.03426   0.00000   0.00754   0.00753   1.41982
    A2        2.18452  -0.00963   0.00000  -0.00912  -0.00916   2.17536
    A3        2.68506   0.04389   0.00000   0.00227   0.00223   2.68728
    A4        1.83172   0.00270   0.00000  -0.00170  -0.00170   1.83003
    D1        1.62806   0.00278   0.00000  -0.00763  -0.00763   1.62043
    D2       -1.58390  -0.00060   0.00000   0.01038   0.01039  -1.57352
         Item               Value     Threshold  Converged?
 Maximum Force            0.222591     0.000450     NO 
 RMS     Force            0.078344     0.000300     NO 
 Maximum Displacement     0.013354     0.001800     NO 
 RMS     Displacement     0.006445     0.001200     NO 
 Predicted change in Energy=-4.913594D-03
 GradGradGradGradGradGradGradGradGradGradGradGradGradGradGradGradGradGrad

                          Input orientation:                          
 ---------------------------------------------------------------------
 Center     Atomic      Atomic             Coordinates (Angstroms)
 Number     Number       Type             X           Y           Z
 ---------------------------------------------------------------------
      1          8           0       -1.504329    0.713268    0.203326
      2          1           0       -1.367487    0.687847   -0.757209
      3          8           0        0.123996    0.704913    0.188045
      4          1           0        0.377517    1.640458    0.208077
      5         53           0       -3.159457    0.700170    1.030657
 ---------------------------------------------------------------------
                    Distance matrix (angstroms):
                    1          2          3          4          5
     1  O    0.000000
     2  H    0.970567   0.000000
     3  O    1.628418   1.765876   0.000000
     4  H    2.097868   2.210042   0.969495   0.000000
     5  I    1.850431   2.531358   3.389850   3.751128   0.000000
 Stoichiometry    H2IO2(1-)
 Framework group  C1[X(H2IO2)]
 Deg. of freedom     9
 Full point group                 C1      NOp   1
 Largest Abelian subgroup         C1      NOp   1
 Largest concise Abelian subgroup C1      NOp   1
                         Standard orientation:                         
 ---------------------------------------------------------------------
 Center     Atomic      Atomic             Coordinates (Angstroms)
 Number     Number       Type             X           Y           Z
 ---------------------------------------------------------------------
      1          8           0        1.156100    0.272026    0.010346
      2          1           0        1.572102    1.142092    0.119563
      3          8           0        2.714096   -0.183263   -0.120444
      4          1           0        2.976856   -0.431398    0.779171
      5         53           0       -0.670010   -0.026808   -0.000339
 ---------------------------------------------------------------------
 Rotational constants (GHZ):    122.4821827      2.4497645      2.4203212
 Standard basis: LANL2DZ (5D, 7F)
 There are    30 symmetry adapted basis functions of A   symmetry.
 Integral buffers will be    262144 words long.
 Raffenetti 2 integral format.
 Two-electron integral symmetry is turned on.
    30 basis functions,    70 primitive gaussians,    30 cartesian basis functions
    13 alpha electrons       13 beta electrons
       nuclear repulsion energy        61.3882711774 Hartrees.
 NAtoms=    5 NActive=    5 NUniq=    5 SFac= 7.50D-01 NAtFMM=   80 NAOKFM=F Big=F
 ------------------------------------------------------------------------------
 Polarizable Continuum Model (PCM)
 =================================
 Model                : PCM.
 Atomic radii         : SMD-Coulomb.
 Polarization charges : Total charges.
 Charge compensation  : None.
 Solution method      : Matrix inversion.
 Cavity type          : VdW (van der Waals Surface) (Alpha=1.000).
 Cavity algorithm     : GePol (No added spheres)
                        Default sphere list used, NSphG=    5.
                        Lebedev-Laikov grids with approx.  5.0 points / Ang**2.
                        Smoothing algorithm: Karplus/York (Gamma=1.0000).
                        Polarization charges: spherical gaussians, with
                                              point-specific exponents (IZeta= 3).
                        Self-potential: point-specific (ISelfS= 7).
                        Self-field    : sphere-specific E.n sum rule (ISelfD= 2).
 1st derivatives      : Analytical E(r).r(x)/FMM algorithm (CHGder, D1EAlg=3).
                        Cavity 1st derivative terms included.
 Solvent              : Water, Eps=  78.355300 Eps(inf)=   1.777849
 ------------------------------------------------------------------------------
 Spheres list:
 ISph  on   Nord    Re0     Alpha      Xe            Ye            Ze
    1   O      1    1.520   1.000      1.156100      0.272026      0.010346
    2   H      2    1.200   1.000      1.572102      1.142092      0.119563
    3   O      3    1.520   1.000      2.714096     -0.183263     -0.120444
    4   H      4    1.200   1.000      2.976856     -0.431398      0.779171
    5   I      5    1.980   1.000     -0.670010     -0.026808     -0.000339
 ------------------------------------------------------------------------------
 ------------------------------------------------------------------------------
 Atomic radii for non-electrostatic terms: SMD-CDS.
 ------------------------------------------------------------------------------
 Nuclear repulsion after PCM non-electrostatic terms =       61.3902848623 Hartrees.
 One-electron integrals computed using PRISM.
   1 Symmetry operations used in ECPInt.
 ECPInt:  NShTT=     171 NPrTT=    1054 LenC2=     172 LenP2D=     954.
 LDataN:  DoStor=T MaxTD1= 4 Len=   56
 NBasis=    30 RedAO= T  NBF=    30
 NBsUse=    30 1.00D-06 NBFU=    30
 Defaulting to unpruned grid for atomic number  53.
 Initial guess read from the read-write file.
 B after Tr=     0.000000    0.000000    0.000000
         Rot=    1.000000    0.000000    0.000000    0.000000 Ang=   0.00 deg.
 Initial guess orbital symmetries:
       Occupied  (A) (A) (A) (A) (A) (A) (A) (A) (A) (A) (A) (A)
                 (A)
       Virtual   (A) (A) (A) (A) (A) (A) (A) (A) (A) (A) (A) (A)
                 (A) (A) (A) (A) (A)
 Requested convergence on RMS density matrix=1.00D-08 within 128 cycles.
 Requested convergence on MAX density matrix=1.00D-06.
 Requested convergence on             energy=1.00D-06.
 No special actions if energy rises.
 Keep R1 ints in memory in canonical form, NReq=3391832.
 Defaulting to unpruned grid for atomic number  53.
 Defaulting to unpruned grid for atomic number  53.
 Defaulting to unpruned grid for atomic number  53.
 Defaulting to unpruned grid for atomic number  53.
 Error on total polarization charges =  0.08898
 SCF Done:  E(RM062X) =  -162.849730691     A.U. after   11 cycles
             Convg  =    0.2531D-08             -V/T =  2.0508
 SMD-CDS (non-electrostatic) energy             (kcal/mol) =       1.26
 (included in total energy above)
   1 Symmetry operations used in ECPInt.
 ECPInt:  NShTT=     171 NPrTT=    1054 LenC2=     172 LenP2D=     954.
 LDataN:  DoStor=T MaxTD1= 5 Len=  102
 D1PCM: PCM CHGder 1st derivatives, ID1Alg=3 FixD1E=F DoIter=F DoCFld=F I1PDM=0.
 Calling FoFJK, ICntrl=      2127 FMM=F ISym2X=0 I1Cent= 0 IOpClX= 0 NMat=1 NMatS=1 NMatT=0.
 Defaulting to unpruned grid for atomic number  53.
 Defaulting to unpruned grid for atomic number  53.
 Defaulting to unpruned grid for atomic number  53.
 Defaulting to unpruned grid for atomic number  53.
 ***** Axes restored to original set *****
 -------------------------------------------------------------------
 Center     Atomic                   Forces (Hartrees/Bohr)
 Number     Number              X              Y              Z
 -------------------------------------------------------------------
      1        8           0.076781175    0.003361054   -0.055597338
      2        1          -0.019677537   -0.002129441   -0.021870297
      3        8           0.138208945   -0.010859304   -0.006745309
      4        1           0.004444940    0.011413897    0.001530631
      5       53          -0.199757522   -0.001786207    0.082682313
 -------------------------------------------------------------------
 Cartesian Forces:  Max     0.199757522 RMS     0.071193584

 GradGradGradGradGradGradGradGradGradGradGradGradGradGradGradGradGradGrad
 Berny optimization.
 Internal  Forces:  Max     0.215669119 RMS     0.075925313
 Search for a saddle point.
 Step number   6 out of a maximum of   21
 All quantities printed in internal units (Hartrees-Bohrs-Radians)
 Swaping is turned off.
 Update second derivatives using D2CorX and points    1    2    3    4    5
                                                      6
 The second derivative matrix:
                          R1        R2        R3        R4        R5
           R1           0.50984
           R2          -0.03776   0.11578
           R3          -0.07097   0.14848   0.45166
           R4           0.07715   0.06770  -0.04599   0.09017
           R5           0.00252  -0.00667  -0.00102  -0.00132   0.56507
           A1          -0.01505  -0.01097  -0.08576   0.01110   0.00184
           A2           0.00023   0.00283   0.10343  -0.04896  -0.00223
           A3           0.01473   0.00819  -0.01702   0.03812   0.00046
           A4           0.00185   0.00249   0.02122  -0.00271  -0.02611
           D1           0.00184   0.00364  -0.00327   0.00381   0.00457
           D2          -0.00144  -0.00138   0.00809  -0.00491   0.00176
                          A1        A2        A3        A4        D1
           A1           0.01371
           A2          -0.03059   0.07190
           A3           0.01695  -0.04131   0.02429
           A4          -0.00477   0.00681  -0.00191   0.02130
           D1           0.00059  -0.00247   0.00137   0.00764   0.00526
           D2          -0.00028   0.00476  -0.00388   0.00755   0.00643
                          D2
           D2           0.00103
     Eigenvalues ---   -0.02377  -0.00406   0.00274   0.02605   0.04048
     Eigenvalues ---    0.19114   0.45480   0.56594   0.615451000.00000
     Eigenvalues --- 1000.00000
 Eigenvectors required to have negative eigenvalues:
                          A1        R4        R2        A3        R3
   1                    0.51961   0.46506  -0.46379  -0.44722   0.28228
                          D2        A2        D1        R1        A4
   1                   -0.08306  -0.07709   0.06221  -0.03511  -0.03065
 RFO step:  Lambda0=2.525126994D-03 Lambda=-1.20545681D-01.
 Linear search not attempted -- option 19 set.
 Maximum step size (   0.030) exceeded in Quadratic search.
    -- Step size scaled by   0.046
 Iteration  1 RMS(Cart)=  0.00747477 RMS(Int)=  0.00002703
 Iteration  2 RMS(Cart)=  0.00002584 RMS(Int)=  0.00001107
 Iteration  3 RMS(Cart)=  0.00000000 RMS(Int)=  0.00001107
 Variable       Old X    -DE/DX   Delta X   Delta X   Delta X     New X
                                 (Linear)    (Quad)   (Total)
    R1        1.83411   0.00306   0.00000   0.00132   0.00132   1.83543
    R2        3.07726   0.11035   0.00000   0.00164   0.00165   3.07891
    R3        3.49681   0.21567   0.00000   0.02200   0.02200   3.51881
    R4        3.33702   0.03856   0.00000   0.01188   0.01187   3.34889
    R5        1.83208   0.01216   0.00000   0.00076   0.00076   1.83284
    A1        1.41982  -0.03310   0.00000   0.00596   0.00595   1.42577
    A2        2.17536  -0.01011   0.00000  -0.00998  -0.01001   2.16536
    A3        2.68728   0.04319   0.00000   0.00361   0.00359   2.69087
    A4        1.83003   0.00244   0.00000  -0.00115  -0.00115   1.82888
    D1        1.62043   0.00274   0.00000   0.00641   0.00641   1.62684
    D2       -1.57352  -0.00059   0.00000  -0.00891  -0.00891  -1.58242
         Item               Value     Threshold  Converged?
 Maximum Force            0.215669     0.000450     NO 
 RMS     Force            0.075925     0.000300     NO 
 Maximum Displacement     0.017352     0.001800     NO 
 RMS     Displacement     0.007479     0.001200     NO 
 Predicted change in Energy=-5.386279D-03
 GradGradGradGradGradGradGradGradGradGradGradGradGradGradGradGradGradGrad

                          Input orientation:                          
 ---------------------------------------------------------------------
 Center     Atomic      Atomic             Coordinates (Angstroms)
 Number     Number       Type             X           Y           Z
 ---------------------------------------------------------------------
      1          8           0       -1.500944    0.716456    0.203962
      2          1           0       -1.370852    0.686017   -0.758070
      3          8           0        0.128217    0.705215    0.186900
      4          1           0        0.382456    1.640957    0.208032
      5         53           0       -3.168639    0.698012    1.032071
 ---------------------------------------------------------------------
                    Distance matrix (angstroms):
[...]
 Center     Atomic      Atomic             Coordinates (Angstroms)
 Number     Number       Type             X           Y           Z
 ---------------------------------------------------------------------
      1          8           0       -1.451844    0.710340    0.233590
      2          1           0       -1.403231    0.692308   -0.743969
      3          8           0        0.210324    0.706096    0.155570
      4          1           0        0.436284    1.654492    0.188714
      5         53           0       -3.321294    0.683421    1.038990
 ---------------------------------------------------------------------
                    Distance matrix (angstroms):
                    1          2          3          4          5
     1  O    0.000000
     2  H    0.978933   0.000000
     3  O    1.664004   1.847409   0.000000
     4  H    2.111507   2.275853   0.975505   0.000000
     5  I    2.035740   2.618776   3.640505   3.973077   0.000000
 Stoichiometry    H2IO2(1-)
 Framework group  C1[X(H2IO2)]
 Deg. of freedom     9
 Full point group                 C1      NOp   1
 Largest Abelian subgroup         C1      NOp   1
 Largest concise Abelian subgroup C1      NOp   1
                         Standard orientation:                         
 ---------------------------------------------------------------------
 Center     Atomic      Atomic             Coordinates (Angstroms)
 Number     Number       Type             X           Y           Z
 ---------------------------------------------------------------------
      1          8           0        1.295988    0.221706    0.007040
      2          1           0        1.619208    1.134787    0.148894
      3          8           0        2.911034   -0.158048   -0.120704
      4          1           0        3.148448   -0.425284    0.786947
      5         53           0       -0.724978   -0.022996   -0.000501
 ---------------------------------------------------------------------
 Rotational constants (GHZ):    141.7315736      2.1045288      2.0879472
 Standard basis: LANL2DZ (5D, 7F)
 There are    30 symmetry adapted basis functions of A   symmetry.
 Integral buffers will be    262144 words long.
 Raffenetti 2 integral format.
 Two-electron integral symmetry is turned on.
    30 basis functions,    70 primitive gaussians,    30 cartesian basis functions
    13 alpha electrons       13 beta electrons
       nuclear repulsion energy        58.5898716906 Hartrees.
 NAtoms=    5 NActive=    5 NUniq=    5 SFac= 7.50D-01 NAtFMM=   80 NAOKFM=F Big=F
 ------------------------------------------------------------------------------
 Polarizable Continuum Model (PCM)
 =================================
 Model                : PCM.
 Atomic radii         : SMD-Coulomb.
 Polarization charges : Total charges.
 Charge compensation  : None.
 Solution method      : Matrix inversion.
 Cavity type          : VdW (van der Waals Surface) (Alpha=1.000).
 Cavity algorithm     : GePol (No added spheres)
                        Default sphere list used, NSphG=    5.
                        Lebedev-Laikov grids with approx.  5.0 points / Ang**2.
                        Smoothing algorithm: Karplus/York (Gamma=1.0000).
                        Polarization charges: spherical gaussians, with
                                              point-specific exponents (IZeta= 3).
                        Self-potential: point-specific (ISelfS= 7).
                        Self-field    : sphere-specific E.n sum rule (ISelfD= 2).
 1st derivatives      : Analytical E(r).r(x)/FMM algorithm (CHGder, D1EAlg=3).
                        Cavity 1st derivative terms included.
 Solvent              : Water, Eps=  78.355300 Eps(inf)=   1.777849
 ------------------------------------------------------------------------------
 Spheres list:
 ISph  on   Nord    Re0     Alpha      Xe            Ye            Ze
    1   O      1    1.520   1.000      1.295988      0.221706      0.007040
    2   H      2    1.200   1.000      1.619208      1.134787      0.148894
    3   O      3    1.520   1.000      2.911034     -0.158048     -0.120704
    4   H      4    1.200   1.000      3.148448     -0.425284      0.786947
    5   I      5    1.980   1.000     -0.724978     -0.022996     -0.000501
 ------------------------------------------------------------------------------
 ------------------------------------------------------------------------------
 Atomic radii for non-electrostatic terms: SMD-CDS.
 ------------------------------------------------------------------------------
 Nuclear repulsion after PCM non-electrostatic terms =       58.5919057797 Hartrees.
 One-electron integrals computed using PRISM.
   1 Symmetry operations used in ECPInt.
 ECPInt:  NShTT=     171 NPrTT=    1054 LenC2=     172 LenP2D=     950.
 LDataN:  DoStor=T MaxTD1= 4 Len=   56
 NBasis=    30 RedAO= T  NBF=    30
 NBsUse=    30 1.00D-06 NBFU=    30
 Defaulting to unpruned grid for atomic number  53.
 Initial guess read from the read-write file.
 B after Tr=     0.000000    0.000000    0.000000
         Rot=    1.000000    0.000000    0.000000    0.000000 Ang=   0.00 deg.
 Initial guess orbital symmetries:
       Occupied  (A) (A) (A) (A) (A) (A) (A) (A) (A) (A) (A) (A)
                 (A)
       Virtual   (A) (A) (A) (A) (A) (A) (A) (A) (A) (A) (A) (A)
                 (A) (A) (A) (A) (A)
 Harris functional with IExCor= 1009 diagonalized for initial guess.
 ExpMin= 1.05D-01 ExpMax= 7.82D+03 ExpMxC= 2.73D+02 IAcc=1 IRadAn=         1 AccDes= 0.00D+00
 HarFok:  IExCor= 1009 AccDes= 0.00D+00 IRadAn=         1 IDoV= 1
 ScaDFX=  1.000000  1.000000  1.000000  1.000000
 Defaulting to unpruned grid for atomic number  53.
 Defaulting to unpruned grid for atomic number  53.
 Defaulting to unpruned grid for atomic number  53.
 Defaulting to unpruned grid for atomic number  53.
 FoFCou: FMM=F IPFlag=           0 FMFlag=      100000 FMFlg1=           0
         NFxFlg=           0 DoJE=T BraDBF=F KetDBF=T FulRan=T
         Omega=  0.000000  0.000000  1.000000  0.000000  0.000000 ICntrl=     500 IOpCl=  0
         NMat0=    1 NMatS0=    1 NMatT0=    0 NMatD0=    1 NMtDS0=    0 NMtDT0=    0
         I1Cent=           4 NGrid=           0.
 Petite list used in FoFCou.
 Requested convergence on RMS density matrix=1.00D-08 within 128 cycles.
 Requested convergence on MAX density matrix=1.00D-06.
 Requested convergence on             energy=1.00D-06.
 No special actions if energy rises.
 Keep R1 ints in memory in canonical form, NReq=3401460.
 Defaulting to unpruned grid for atomic number  53.
 Defaulting to unpruned grid for atomic number  53.
 Defaulting to unpruned grid for atomic number  53.
 Defaulting to unpruned grid for atomic number  53.
 Error on total polarization charges =  0.08884
 SCF Done:  E(RM062X) =  -162.920141279     A.U. after   11 cycles
             Convg  =    0.2453D-08             -V/T =  2.0543
 SMD-CDS (non-electrostatic) energy             (kcal/mol) =       1.28
 (included in total energy above)
   1 Symmetry operations used in ECPInt.
 ECPInt:  NShTT=     171 NPrTT=    1054 LenC2=     172 LenP2D=     950.
 LDataN:  DoStor=T MaxTD1= 5 Len=  102
 D1PCM: PCM CHGder 1st derivatives, ID1Alg=3 FixD1E=F DoIter=F DoCFld=F I1PDM=0.
 Calling FoFJK, ICntrl=      2127 FMM=F ISym2X=0 I1Cent= 0 IOpClX= 0 NMat=1 NMatS=1 NMatT=0.
 Defaulting to unpruned grid for atomic number  53.
 Defaulting to unpruned grid for atomic number  53.
 Defaulting to unpruned grid for atomic number  53.
 Defaulting to unpruned grid for atomic number  53.
 ***** Axes restored to original set *****
 -------------------------------------------------------------------
 Center     Atomic                   Forces (Hartrees/Bohr)
 Number     Number              X              Y              Z
 -------------------------------------------------------------------
      1        8           0.051616810    0.002812684   -0.017548101
      2        1          -0.017588867   -0.001603333   -0.012688299
      3        8           0.074533510   -0.005690843   -0.007083705
      4        1           0.001186736    0.005891169    0.001330752
      5       53          -0.109748188   -0.001409678    0.035989353
 -------------------------------------------------------------------
 Cartesian Forces:  Max     0.109748188 RMS     0.038704568

 GradGradGradGradGradGradGradGradGradGradGradGradGradGradGradGradGradGrad
 Berny optimization.
 Internal  Forces:  Max     0.115040798 RMS     0.040657145
 Search for a saddle point.
 Step number  21 out of a maximum of   21
 All quantities printed in internal units (Hartrees-Bohrs-Radians)
 Swaping is turned off.
 Update second derivatives using D2CorX and points   10   11   12   13   14
                                                     15   16   17   18   19
                                                     20   21
 The second derivative matrix:
                          R1        R2        R3        R4        R5
           R1           0.50516
           R2          -0.02377   0.07661
           R3          -0.04258   0.07841   0.28037
           R4           0.08480   0.05461  -0.05954   0.09169
           R5           0.00297  -0.00715  -0.00396  -0.00124   0.56494
           A1          -0.01507  -0.00446  -0.06946   0.01570   0.00195
           A2          -0.00570  -0.00048   0.07722  -0.05997  -0.00323
           A3           0.02060   0.00499  -0.00769   0.04434   0.00131
           A4           0.00029   0.00277   0.01585  -0.00481  -0.02646
           D1           0.00477   0.00021  -0.00446   0.00460   0.00491
           D2          -0.00354   0.00053   0.00463  -0.00567   0.00119
                          A1        A2        A3        A4        D1
           A1           0.01276
           A2          -0.03329   0.09120
           A3           0.02050  -0.05770   0.03703
           A4          -0.00556   0.01067  -0.00505   0.02185
           D1           0.00163  -0.00568   0.00320   0.00783   0.00739
           D2          -0.00087   0.00613  -0.00415   0.00656   0.00383
                          D2
           D2           0.00362
     Eigenvalues ---   -0.02668   0.00043   0.00297   0.02583   0.06198
     Eigenvalues ---    0.17748   0.34494   0.53605   0.567301000.00000
     Eigenvalues --- 1000.00000
 Eigenvectors required to have negative eigenvalues:
                          A1        R4        A3        R2        R3
   1                    0.51745   0.46258  -0.45999  -0.44697   0.31941
                          A2        R1        A4        D2        R5
   1                   -0.05816  -0.03580  -0.01125   0.00793  -0.00362
 RFO step:  Lambda0=7.426999481D-05 Lambda=-5.99495671D-02.
 Linear search not attempted -- option 19 set.
 Maximum step size (   0.030) exceeded in Quadratic search.
    -- Step size scaled by   0.063
 Iteration  1 RMS(Cart)=  0.01112393 RMS(Int)=  0.00005697
 Iteration  2 RMS(Cart)=  0.00004773 RMS(Int)=  0.00000090
 Iteration  3 RMS(Cart)=  0.00000000 RMS(Int)=  0.00000090
 Variable       Old X    -DE/DX   Delta X   Delta X   Delta X     New X
                                 (Linear)    (Quad)   (Total)
    R1        1.84992   0.00181   0.00000   0.00089   0.00089   1.85080
    R2        3.14451   0.05670   0.00000   0.01222   0.01222   3.15673
    R3        3.84699   0.11504   0.00000   0.02125   0.02125   3.86824
    R4        3.49110   0.02262   0.00000   0.00517   0.00516   3.49626
    R5        1.84344   0.00602   0.00000   0.00069   0.00069   1.84413
    A1        1.47417  -0.01589   0.00000  -0.00338  -0.00338   1.47079
    A2        2.02688  -0.01204   0.00000  -0.00931  -0.00931   2.01757
    A3        2.78137   0.02793   0.00000   0.01269   0.01269   2.79405
    A4        1.80011  -0.00046   0.00000  -0.00280  -0.00280   1.79730
    D1        1.63508   0.00220   0.00000   0.00197   0.00197   1.63704
    D2       -1.56908  -0.00014   0.00000   0.00054   0.00054  -1.56854
         Item               Value     Threshold  Converged?
 Maximum Force            0.115041     0.000450     NO 
 RMS     Force            0.040657     0.000300     NO 
 Maximum Displacement     0.025827     0.001800     NO 
 RMS     Displacement     0.011140     0.001200     NO 
 Predicted change in Energy=-3.693092D-03
 Optimization stopped.
    -- Number of steps exceeded,  NStep=  21
    -- Flag reset to prevent archiving.
                           ----------------------------
                           ! Non-Optimized Parameters !
                           ! (Angstroms and Degrees)  !
 --------------------------                            --------------------------
 ! Name  Definition              Value          Derivative Info.                !
 --------------------------------------------------------------------------------
 ! R1    R(1,2)                  0.9794         -DE/DX =    0.0018              !
 ! R2    R(1,3)                  1.6705         -DE/DX =    0.0567              !
 ! R3    R(1,5)                  2.047          -DE/DX =    0.115               !
 ! R4    R(2,3)                  1.8501         -DE/DX =    0.0226              !
 ! R5    R(3,4)                  0.9759         -DE/DX =    0.006               !
 ! A1    A(2,1,3)               84.2702         -DE/DX =   -0.0159              !
 ! A2    A(2,1,5)              115.5982         -DE/DX =   -0.012               !
 ! A3    A(3,1,5)              160.0875         -DE/DX =    0.0279              !
 ! A4    A(1,3,4)              102.9779         -DE/DX =   -0.0005              !
 ! D1    D(2,1,3,4)             93.7957         -DE/DX =    0.0022              !
 ! D2    D(5,1,3,4)            -89.8708         -DE/DX =   -0.0001              !
 --------------------------------------------------------------------------------
 GradGradGradGradGradGradGradGradGradGradGradGradGradGradGradGradGradGrad

                          Input orientation:                          
 ---------------------------------------------------------------------
 Center     Atomic      Atomic             Coordinates (Angstroms)
 Number     Number       Type             X           Y           Z
 ---------------------------------------------------------------------
      1          8           0       -1.451844    0.710340    0.233590
      2          1           0       -1.403231    0.692308   -0.743969
      3          8           0        0.210324    0.706096    0.155570
      4          1           0        0.436284    1.654492    0.188714
      5         53           0       -3.321294    0.683421    1.038990
 ---------------------------------------------------------------------
                    Distance matrix (angstroms):
                    1          2          3          4          5
     1  O    0.000000
     2  H    0.978933   0.000000
     3  O    1.664004   1.847409   0.000000
     4  H    2.111507   2.275853   0.975505   0.000000
     5  I    2.035740   2.618776   3.640505   3.973077   0.000000
 Stoichiometry    H2IO2(1-)
 Framework group  C1[X(H2IO2)]
 Deg. of freedom     9
 Full point group                 C1      NOp   1
 Largest Abelian subgroup         C1      NOp   1
 Largest concise Abelian subgroup C1      NOp   1
                         Standard orientation:                         
 ---------------------------------------------------------------------
 Center     Atomic      Atomic             Coordinates (Angstroms)
 Number     Number       Type             X           Y           Z
 ---------------------------------------------------------------------
      1          8           0        1.295988    0.221706    0.007040
      2          1           0        1.619208    1.134787    0.148894
      3          8           0        2.911034   -0.158048   -0.120704
      4          1           0        3.148448   -0.425284    0.786947
      5         53           0       -0.724978   -0.022996   -0.000501
 ---------------------------------------------------------------------
 Rotational constants (GHZ):    141.7315736      2.1045288      2.0879472

 **********************************************************************

            Population analysis using the SCF density.

 **********************************************************************

 Orbital symmetries:
       Occupied  (A) (A) (A) (A) (A) (A) (A) (A) (A) (A) (A) (A)
                 (A)
       Virtual   (A) (A) (A) (A) (A) (A) (A) (A) (A) (A) (A) (A)
                 (A) (A) (A) (A) (A)
 The electronic state is 1-A.
 Alpha  occ. eigenvalues --  -19.66612 -19.58837  -1.15764  -1.00576  -0.69787
 Alpha  occ. eigenvalues --   -0.54514  -0.51277  -0.45750  -0.39190  -0.33503
 Alpha  occ. eigenvalues --   -0.27417  -0.26120  -0.20570
 Alpha virt. eigenvalues --    0.03347   0.16709   0.21614   0.43504   0.44711
 Alpha virt. eigenvalues --    0.45111   0.68847   0.73168   0.74293   0.78898
 Alpha virt. eigenvalues --    0.84332   0.97037   1.06184   1.13641   1.47954
 Alpha virt. eigenvalues --    1.79928   9.35084
          Condensed to atoms (all electrons):
              1          2          3          4          5
     1  O    8.951001   0.253953  -0.188855  -0.011647  -0.402423
     2  H    0.253953   0.304284  -0.017172  -0.001082  -0.010077
     3  O   -0.188855  -0.017172   8.653887   0.261011   0.079415
     4  H   -0.011647  -0.001082   0.261011   0.377955  -0.004938
     5  I   -0.402423  -0.010077   0.079415  -0.004938   7.796503
 Mulliken atomic charges:
              1
     1  O   -0.602029
     2  H    0.470094
     3  O   -0.788285
     4  H    0.378701
     5  I   -0.458481
 Sum of Mulliken atomic charges =  -1.00000
 Mulliken charges with hydrogens summed into heavy atoms:
              1
     1  O   -0.131935
     3  O   -0.409584
     5  I   -0.458481
 Sum of Mulliken charges with hydrogens summed into heavy atoms =  -1.00000
 Electronic spatial extent (au):  <R**2>=            449.1059
 Charge=             -1.0000 electrons
 Dipole moment (field-independent basis, Debye):
    X=             -2.1277    Y=              2.0726    Z=              2.7128  Tot=              4.0227
 Quadrupole moment (field-independent basis, Debye-Ang):
   XX=            -52.9214   YY=            -33.6958   ZZ=            -35.8420
   XY=              3.1373   XZ=              8.1279   YZ=             -0.4784
 Traceless Quadrupole moment (field-independent basis, Debye-Ang):
   XX=            -12.1017   YY=              7.1240   ZZ=              4.9777
   XY=              3.1373   XZ=              8.1279   YZ=             -0.4784
 Octapole moment (field-independent basis, Debye-Ang**2):
  XXX=            -77.7619  YYY=              3.7624  ZZZ=              2.2201  XYY=             -6.0418
  XXY=              2.1966  XXZ=             24.8902  XZZ=             -7.0182  YZZ=             -0.3476
  YYZ=              1.3272  XYZ=             -2.2894
 Hexadecapole moment (field-independent basis, Debye-Ang**3):
 XXXX=           -676.2257 YYYY=            -57.3192 ZZZZ=            -57.2696 XXXY=              2.6283
 XXXZ=             80.1006 YYYX=              8.7681 YYYZ=              0.1311 ZZZX=              7.0694
 ZZZY=             -0.6709 XXYY=            -94.2353 XXZZ=            -90.4862 YYZZ=            -19.6625
 XXYZ=             -8.0546 YYXZ=              3.4326 ZZXY=             -0.3603
 N-N= 5.859190577967D+01 E-N=-5.041280053822D+02  KE= 1.545317584150D+02


 THE UNDERLYING PHYSICAL LAWS NECESSARY FOR THE 
 MATHEMATICAL THEORY OF A LARGE PART OF PHYSICS AND THE
 WHOLE OF CHEMISTRY ARE THUS COMPLETELY KNOWN, AND THE
 DIFFICULTY IS ONLY THAT THE EXACT APPLICATION OF THESE
 LAWS LEADS TO EQUATIONS MUCH TOO COMPLICATED 
 TO BE SOLUBLE.

                                        -- P. A. M. DIRAC, 1929
 Error termination request processed by link 9999.
 Error termination via Lnk1e in C:\G09W\l9999.exe at Tue Feb 02 02:49:06 2021.
 Job cpu time:  0 days  0 hours  1 minutes 45.0 seconds.
 File lengths (MBytes):  RWF=     17 Int=      0 D2E=      0 Chk=      2 Scr=      1
