 Entering Link 1 = C:\G09W\l1.exe PID=     11492.
  
 Copyright (c) 1988,1990,1992,1993,1995,1998,2003,2009, Gaussian, Inc.
                  All Rights Reserved.
  
 This is part of the Gaussian(R) 09 program.  It is based on
 the Gaussian(R) 03 system (copyright 2003, Gaussian, Inc.),
 the Gaussian(R) 98 system (copyright 1998, Gaussian, Inc.),
 the Gaussian(R) 94 system (copyright 1995, Gaussian, Inc.),
 the Gaussian 92(TM) system (copyright 1992, Gaussian, Inc.),
 the Gaussian 90(TM) system (copyright 1990, Gaussian, Inc.),
 the Gaussian 88(TM) system (copyright 1988, Gaussian, Inc.),
 the Gaussian 86(TM) system (copyright 1986, Carnegie Mellon
 University), and the Gaussian 82(TM) system (copyright 1983,
 Carnegie Mellon University). Gaussian is a federally registered
 trademark of Gaussian, Inc.
  
 This software contains proprietary and confidential information,
 including trade secrets, belonging to Gaussian, Inc.
  
 This software is provided under written license and may be
 used, copied, transmitted, or stored only in accord with that
 written license.
  
 The following legend is applicable only to US Government
 contracts under FAR:
  
                    RESTRICTED RIGHTS LEGEND
  
 Use, reproduction and disclosure by the US Government is
 subject to restrictions as set forth in subparagraphs (a)
 and (c) of the Commercial Computer Software - Restricted
 Rights clause in FAR 52.227-19.
  
 Gaussian, Inc.
 340 Quinnipiac St., Bldg. 40, Wallingford CT 06492
  
  
 ---------------------------------------------------------------
 Warning -- This program may not be used in any manner that
 competes with the business of Gaussian, Inc. or will provide
 assistance to any competitor of Gaussian, Inc.  The licensee
 of this program is prohibited from giving any competitor of
 Gaussian, Inc. access to this program.  By using this program,
 the user acknowledges that Gaussian, Inc. is engaged in the
 business of creating and licensing software in the field of
 computational chemistry and represents and warrants to the
 licensee that it is not a competitor of Gaussian, Inc. and that
 it will not use this program in any manner prohibited above.
 ---------------------------------------------------------------
  

 Cite this work as:
 Gaussian 09, Revision A.02,
 M. J. Frisch, G. W. Trucks, H. B. Schlegel, G. E. Scuseria, 
 M. A. Robb, J. R. Cheeseman, G. Scalmani, V. Barone, B. Mennucci, 
 G. A. Petersson, H. Nakatsuji, M. Caricato, X. Li, H. P. Hratchian, 
 A. F. Izmaylov, J. Bloino, G. Zheng, J. L. Sonnenberg, M. Hada, 
 M. Ehara, K. Toyota, R. Fukuda, J. Hasegawa, M. Ishida, T. Nakajima, 
 Y. Honda, O. Kitao, H. Nakai, T. Vreven, J. A. Montgomery, Jr., 
 J. E. Peralta, F. Ogliaro, M. Bearpark, J. J. Heyd, E. Brothers, 
 K. N. Kudin, V. N. Staroverov, R. Kobayashi, J. Normand, 
 K. Raghavachari, A. Rendell, J. C. Burant, S. S. Iyengar, J. Tomasi, 
 M. Cossi, N. Rega, J. M. Millam, M. Klene, J. E. Knox, J. B. Cross, 
 V. Bakken, C. Adamo, J. Jaramillo, R. Gomperts, R. E. Stratmann, 
 O. Yazyev, A. J. Austin, R. Cammi, C. Pomelli, J. W. Ochterski, 
 R. L. Martin, K. Morokuma, V. G. Zakrzewski, G. A. Voth, 
 P. Salvador, J. J. Dannenberg, S. Dapprich, A. D. Daniels, 
 O. Farkas, J. B. Foresman, J. V. Ortiz, J. Cioslowski, 
 and D. J. Fox, Gaussian, Inc., Wallingford CT, 2009.
 
 ******************************************
 Gaussian 09:  IA32W-G09RevA.02 11-Jun-2009
                02-Feb-2021 
 ******************************************
 %chk=D:\Documents\rayGit\FQ\quimicaComputacional\proyecto\decompositionHydrogenP
 eroxide\decompositionCatalyzedByIodine\step1\ts\ts.chk
 %mem=1500MB
 %nprocshared=4
 Will use up to    4 processors via shared memory.
 ----------------------------------------------------------------------
 # opt=(readfc,ts,noeigen) geom=check guess=check freq=noraman lanl2dz 
 scrf=smd iop(1/8=3) m062x
 ----------------------------------------------------------------------
 1/5=1,8=3,10=3,11=1,14=-1,18=20,26=3,29=2,38=1/1,3;
 2/9=110,12=2,40=1/2;
 3/5=6,6=3,11=2,14=-4,16=1,25=1,30=1,70=32201,71=1,72=1,74=-55,116=-2/1,2,3;
 4/5=1/1;
 5/5=2,38=6/2;
 6/7=2,8=2,9=2,10=2,28=1/1;
 7//1,2,3,16;
 1/5=1,8=3,11=1,14=-1,18=20/3(2);
 2/9=110/2;
 99//99;
 2/9=110/2;
 3/5=6,6=3,11=2,14=-2,16=1,25=1,30=1,70=32205,71=1,74=-55/1,2,3;
 4/5=5,16=3/1;
 5/5=2,38=5/2;
 7//1,2,3,16;
 1/5=1,8=3,11=1,14=-1,18=20/3(-5);
 2/9=110/2;
 6/7=2,8=2,9=2,10=2,19=2,28=1/1;
 99/9=1/99;
 -------------------------------
 Hydrogen peroxide with iodine 3
 -------------------------------
 Redundant internal coordinates taken from checkpoint file:
 D:\Documents\rayGit\FQ\quimicaComputacional\proyecto\decompositionHydrogenPeroxide\decompositionCatalyzedByIodine\step1\ts\ts.chk
 Charge = -1 Multiplicity = 1
 O,0,-1.4518435976,0.7103403544,0.2335902784
 H,0,-1.4032310861,0.6923079061,-0.7439690551
 O,0,0.2103244059,0.7060960636,0.1555699394
 H,0,0.4362835133,1.6544918035,0.1887137493
 I,0,-3.3212939055,0.6834206023,1.038990168
 Recover connectivity data from disk.

 GradGradGradGradGradGradGradGradGradGradGradGradGradGradGradGradGradGrad
 Berny optimization.
 Initialization pass.
 Force constant matrix read from checkpoint file:
 D:\Documents\rayGit\FQ\quimicaComputacional\proyecto\decompositionHydrogenPeroxi
 de\decompositionCatalyzedByIodine\step1\ts\ts.chk
                           ----------------------------
                           !    Initial Parameters    !
                           ! (Angstroms and Degrees)  !
 --------------------------                            --------------------------
 ! Name  Definition              Value          Derivative Info.                !
 --------------------------------------------------------------------------------
 ! R1    R(1,2)                  0.9789         D2E/DX2 =    0.5052             !
 ! R2    R(1,3)                  1.664          D2E/DX2 =    0.0766             !
 ! R3    R(1,5)                  2.0357         D2E/DX2 =    0.2804             !
 ! R4    R(2,3)                  1.8474         D2E/DX2 =    0.0917             !
 ! R5    R(3,4)                  0.9755         D2E/DX2 =    0.5649             !
 ! A1    A(2,1,3)               84.4639         D2E/DX2 =    0.0128             !
 ! A2    A(2,1,5)              116.1315         D2E/DX2 =    0.0912             !
 ! A3    A(3,1,5)              159.3607         D2E/DX2 =    0.037              !
 ! A4    A(1,3,4)              103.1384         D2E/DX2 =    0.0219             !
 ! D1    D(2,1,3,4)             93.683          D2E/DX2 =    0.0074             !
 ! D2    D(5,1,3,4)            -89.9016         D2E/DX2 =    0.0036             !
 --------------------------------------------------------------------------------
 Trust Radius=3.00D-02 FncErr=1.00D-07 GrdErr=1.00D-06
 Number of steps in this run=  21 maximum allowed number of steps= 100.
 Search for a saddle point of order  1.
 GradGradGradGradGradGradGradGradGradGradGradGradGradGradGradGradGradGrad

                          Input orientation:                          
 ---------------------------------------------------------------------
 Center     Atomic      Atomic             Coordinates (Angstroms)
 Number     Number       Type             X           Y           Z
 ---------------------------------------------------------------------
      1          8           0       -1.451844    0.710340    0.233590
      2          1           0       -1.403231    0.692308   -0.743969
      3          8           0        0.210324    0.706096    0.155570
      4          1           0        0.436284    1.654492    0.188714
      5         53           0       -3.321294    0.683421    1.038990
 ---------------------------------------------------------------------
                    Distance matrix (angstroms):
                    1          2          3          4          5
     1  O    0.000000
     2  H    0.978933   0.000000
     3  O    1.664004   1.847409   0.000000
     4  H    2.111507   2.275853   0.975505   0.000000
     5  I    2.035740   2.618776   3.640505   3.973077   0.000000
 Stoichiometry    H2IO2(1-)
 Framework group  C1[X(H2IO2)]
 Deg. of freedom     9
 Full point group                 C1      NOp   1
 Largest Abelian subgroup         C1      NOp   1
 Largest concise Abelian subgroup C1      NOp   1
                         Standard orientation:                         
 ---------------------------------------------------------------------
 Center     Atomic      Atomic             Coordinates (Angstroms)
 Number     Number       Type             X           Y           Z
 ---------------------------------------------------------------------
      1          8           0        1.295988    0.221706    0.007040
      2          1           0        1.619208    1.134787    0.148894
      3          8           0        2.911034   -0.158048   -0.120704
      4          1           0        3.148448   -0.425284    0.786947
      5         53           0       -0.724978   -0.022996   -0.000501
 ---------------------------------------------------------------------
 Rotational constants (GHZ):    141.7315736      2.1045288      2.0879472
 Standard basis: LANL2DZ (5D, 7F)
 There are    30 symmetry adapted basis functions of A   symmetry.
 Integral buffers will be    262144 words long.
 Raffenetti 2 integral format.
 Two-electron integral symmetry is turned on.
    30 basis functions,    70 primitive gaussians,    30 cartesian basis functions
    13 alpha electrons       13 beta electrons
       nuclear repulsion energy        58.5898716906 Hartrees.
 NAtoms=    5 NActive=    5 NUniq=    5 SFac= 7.50D-01 NAtFMM=   80 NAOKFM=F Big=F
 ------------------------------------------------------------------------------
 Polarizable Continuum Model (PCM)
 =================================
 Model                : PCM.
 Atomic radii         : SMD-Coulomb.
 Polarization charges : Total charges.
 Charge compensation  : None.
 Solution method      : Matrix inversion.
 Cavity type          : VdW (van der Waals Surface) (Alpha=1.000).
 Cavity algorithm     : GePol (No added spheres)
                        Default sphere list used, NSphG=    5.
                        Lebedev-Laikov grids with approx.  5.0 points / Ang**2.
                        Smoothing algorithm: Karplus/York (Gamma=1.0000).
                        Polarization charges: spherical gaussians, with
                                              point-specific exponents (IZeta= 3).
                        Self-potential: point-specific (ISelfS= 7).
                        Self-field    : sphere-specific E.n sum rule (ISelfD= 2).
 1st derivatives      : Analytical E(r).r(x)/FMM algorithm (CHGder, D1EAlg=3).
                        Cavity 1st derivative terms included.
 Solvent              : Water, Eps=  78.355300 Eps(inf)=   1.777849
 ------------------------------------------------------------------------------
 Spheres list:
 ISph  on   Nord    Re0     Alpha      Xe            Ye            Ze
    1   O      1    1.520   1.000      1.295988      0.221706      0.007040
    2   H      2    1.200   1.000      1.619208      1.134787      0.148894
    3   O      3    1.520   1.000      2.911034     -0.158048     -0.120704
    4   H      4    1.200   1.000      3.148448     -0.425284      0.786947
    5   I      5    1.980   1.000     -0.724978     -0.022996     -0.000501
 ------------------------------------------------------------------------------
 ------------------------------------------------------------------------------
 Atomic radii for non-electrostatic terms: SMD-CDS.
 ------------------------------------------------------------------------------
 Nuclear repulsion after PCM non-electrostatic terms =       58.5919057797 Hartrees.
 One-electron integrals computed using PRISM.
   1 Symmetry operations used in ECPInt.
 ECPInt:  NShTT=     171 NPrTT=    1054 LenC2=     172 LenP2D=     950.
 LDataN:  DoStor=T MaxTD1= 4 Len=   56
 NBasis=    30 RedAO= T  NBF=    30
 NBsUse=    30 1.00D-06 NBFU=    30
 Defaulting to unpruned grid for atomic number  53.
 Initial guess read from the checkpoint file:  D:\Documents\rayGit\FQ\quimicaComp
 utacional\proyecto\decompositionHydrogenPeroxide\decompositionCatalyzedByIodine\
 step1\ts\ts.chk
 B after Tr=     0.000000    0.000000    0.000000
         Rot=    1.000000    0.000000    0.000000    0.000000 Ang=   0.00 deg.
 Initial guess orbital symmetries:
       Occupied  (A) (A) (A) (A) (A) (A) (A) (A) (A) (A) (A) (A)
                 (A)
       Virtual   (A) (A) (A) (A) (A) (A) (A) (A) (A) (A) (A) (A)
                 (A) (A) (A) (A) (A)
 Requested convergence on RMS density matrix=1.00D-08 within 128 cycles.
 Requested convergence on MAX density matrix=1.00D-06.
 Requested convergence on             energy=1.00D-06.
 No special actions if energy rises.
 Keep R1 ints in memory in canonical form, NReq=3401460.
 Defaulting to unpruned grid for atomic number  53.
 Defaulting to unpruned grid for atomic number  53.
 Defaulting to unpruned grid for atomic number  53.
 Defaulting to unpruned grid for atomic number  53.
 Error on total polarization charges =  0.08884
 SCF Done:  E(RM062X) =  -162.920141279     A.U. after    1 cycles
             Convg  =    0.2423D-09             -V/T =  2.0543
 SMD-CDS (non-electrostatic) energy             (kcal/mol) =       1.28
 (included in total energy above)

 **********************************************************************

            Population analysis using the SCF density.

 **********************************************************************

 Orbital symmetries:
       Occupied  (A) (A) (A) (A) (A) (A) (A) (A) (A) (A) (A) (A)
                 (A)
       Virtual   (A) (A) (A) (A) (A) (A) (A) (A) (A) (A) (A) (A)
                 (A) (A) (A) (A) (A)
 The electronic state is 1-A.
 Alpha  occ. eigenvalues --  -19.66612 -19.58837  -1.15764  -1.00576  -0.69787
 Alpha  occ. eigenvalues --   -0.54514  -0.51277  -0.45750  -0.39190  -0.33503
 Alpha  occ. eigenvalues --   -0.27417  -0.26120  -0.20570
 Alpha virt. eigenvalues --    0.03347   0.16709   0.21614   0.43504   0.44711
 Alpha virt. eigenvalues --    0.45111   0.68847   0.73168   0.74293   0.78898
 Alpha virt. eigenvalues --    0.84332   0.97037   1.06184   1.13641   1.47954
 Alpha virt. eigenvalues --    1.79928   9.35084
          Condensed to atoms (all electrons):
              1          2          3          4          5
     1  O    8.951001   0.253953  -0.188855  -0.011647  -0.402423
     2  H    0.253953   0.304284  -0.017172  -0.001082  -0.010077
     3  O   -0.188855  -0.017172   8.653887   0.261011   0.079415
     4  H   -0.011647  -0.001082   0.261011   0.377955  -0.004938
     5  I   -0.402423  -0.010077   0.079415  -0.004938   7.796503
 Mulliken atomic charges:
              1
     1  O   -0.602029
     2  H    0.470094
     3  O   -0.788285
     4  H    0.378701
     5  I   -0.458481
 Sum of Mulliken atomic charges =  -1.00000
 Mulliken charges with hydrogens summed into heavy atoms:
              1
     1  O   -0.131935
     3  O   -0.409584
     5  I   -0.458481
 Sum of Mulliken charges with hydrogens summed into heavy atoms =  -1.00000
 Electronic spatial extent (au):  <R**2>=            449.1059
 Charge=             -1.0000 electrons
 Dipole moment (field-independent basis, Debye):
    X=             -2.1277    Y=              2.0726    Z=              2.7128  Tot=              4.0227
 Quadrupole moment (field-independent basis, Debye-Ang):
   XX=            -52.9214   YY=            -33.6958   ZZ=            -35.8420
   XY=              3.1373   XZ=              8.1279   YZ=             -0.4784
 Traceless Quadrupole moment (field-independent basis, Debye-Ang):
   XX=            -12.1017   YY=              7.1240   ZZ=              4.9777
   XY=              3.1373   XZ=              8.1279   YZ=             -0.4784
 Octapole moment (field-independent basis, Debye-Ang**2):
  XXX=            -77.7619  YYY=              3.7624  ZZZ=              2.2201  XYY=             -6.0418
  XXY=              2.1966  XXZ=             24.8902  XZZ=             -7.0182  YZZ=             -0.3476
  YYZ=              1.3272  XYZ=             -2.2894
 Hexadecapole moment (field-independent basis, Debye-Ang**3):
 XXXX=           -676.2257 YYYY=            -57.3192 ZZZZ=            -57.2696 XXXY=              2.6283
 XXXZ=             80.1006 YYYX=              8.7681 YYYZ=              0.1311 ZZZX=              7.0694
 ZZZY=             -0.6709 XXYY=            -94.2353 XXZZ=            -90.4862 YYZZ=            -19.6625
 XXYZ=             -8.0546 YYXZ=              3.4326 ZZXY=             -0.3603
 N-N= 5.859190577967D+01 E-N=-5.041280054438D+02  KE= 1.545317584450D+02
   1 Symmetry operations used in ECPInt.
 ECPInt:  NShTT=     171 NPrTT=    1054 LenC2=     172 LenP2D=     950.
 LDataN:  DoStor=T MaxTD1= 5 Len=  102
 D1PCM: PCM CHGder 1st derivatives, ID1Alg=3 FixD1E=F DoIter=F DoCFld=F I1PDM=0.
 Calling FoFJK, ICntrl=      2127 FMM=F ISym2X=0 I1Cent= 0 IOpClX= 0 NMat=1 NMatS=1 NMatT=0.
 Defaulting to unpruned grid for atomic number  53.
 Defaulting to unpruned grid for atomic number  53.
 Defaulting to unpruned grid for atomic number  53.
 Defaulting to unpruned grid for atomic number  53.
 ***** Axes restored to original set *****
 -------------------------------------------------------------------
 Center     Atomic                   Forces (Hartrees/Bohr)
 Number     Number              X              Y              Z
 -------------------------------------------------------------------
      1        8           0.051616810    0.002812684   -0.017548101
      2        1          -0.017588867   -0.001603333   -0.012688299
      3        8           0.074533510   -0.005690843   -0.007083705
      4        1           0.001186736    0.005891169    0.001330752
      5       53          -0.109748188   -0.001409678    0.035989353
 -------------------------------------------------------------------
 Cartesian Forces:  Max     0.109748188 RMS     0.038704568

 GradGradGradGradGradGradGradGradGradGradGradGradGradGradGradGradGradGrad
 Berny optimization.
 Internal  Forces:  Max     0.115040798 RMS     0.040657145
 Search for a saddle point.
 Step number   1 out of a maximum of   21
 All quantities printed in internal units (Hartrees-Bohrs-Radians)
 Swaping is turned off.
 Second derivative matrix not updated -- first step.
 The second derivative matrix:
                          R1        R2        R3        R4        R5
           R1           0.50516
           R2          -0.02377   0.07661
           R3          -0.04258   0.07841   0.28037
           R4           0.08480   0.05461  -0.05954   0.09169
           R5           0.00297  -0.00715  -0.00396  -0.00124   0.56494
           A1          -0.01507  -0.00446  -0.06946   0.01570   0.00195
           A2          -0.00570  -0.00048   0.07722  -0.05997  -0.00323
           A3           0.02060   0.00499  -0.00769   0.04434   0.00131
           A4           0.00029   0.00277   0.01585  -0.00481  -0.02646
           D1           0.00477   0.00021  -0.00446   0.00460   0.00491
           D2          -0.00354   0.00053   0.00463  -0.00567   0.00119
                          A1        A2        A3        A4        D1
           A1           0.01276
           A2          -0.03329   0.09120
           A3           0.02050  -0.05770   0.03703
           A4          -0.00556   0.01067  -0.00505   0.02185
           D1           0.00163  -0.00568   0.00320   0.00783   0.00739
           D2          -0.00087   0.00613  -0.00415   0.00656   0.00383
                          D2
           D2           0.00362
     Eigenvalues ---   -0.02668   0.00043   0.00297   0.02583   0.06198
     Eigenvalues ---    0.17748   0.34494   0.53605   0.567301000.00000
     Eigenvalues --- 1000.00000
 Eigenvectors required to have negative eigenvalues:
                          A1        R4        A3        R2        R3
   1                    0.51745   0.46258  -0.45999  -0.44697   0.31941
                          A2        R1        A4        D2        R5
   1                   -0.05816  -0.03580  -0.01125   0.00793  -0.00362
 RFO step:  Lambda0=7.426999660D-05 Lambda=-5.99495672D-02.
 Linear search not attempted -- option 19 set.
 Maximum step size (   0.030) exceeded in Quadratic search.
    -- Step size scaled by   0.063
 Iteration  1 RMS(Cart)=  0.01112393 RMS(Int)=  0.00005697
 Iteration  2 RMS(Cart)=  0.00004773 RMS(Int)=  0.00000090
 Iteration  3 RMS(Cart)=  0.00000000 RMS(Int)=  0.00000090
 Variable       Old X    -DE/DX   Delta X   Delta X   Delta X     New X
                                 (Linear)    (Quad)   (Total)
    R1        1.84992   0.00181   0.00000   0.00089   0.00089   1.85080
    R2        3.14451   0.05670   0.00000   0.01222   0.01222   3.15673
    R3        3.84699   0.11504   0.00000   0.02125   0.02125   3.86824
    R4        3.49110   0.02262   0.00000   0.00517   0.00516   3.49626
    R5        1.84344   0.00602   0.00000   0.00069   0.00069   1.84413
    A1        1.47417  -0.01589   0.00000  -0.00338  -0.00338   1.47079
    A2        2.02688  -0.01204   0.00000  -0.00931  -0.00931   2.01757
    A3        2.78137   0.02793   0.00000   0.01269   0.01269   2.79405
    A4        1.80011  -0.00046   0.00000  -0.00280  -0.00280   1.79730
    D1        1.63508   0.00220   0.00000   0.00197   0.00197   1.63704
    D2       -1.56908  -0.00014   0.00000   0.00054   0.00054  -1.56854
         Item               Value     Threshold  Converged?
 Maximum Force            0.115041     0.000450     NO 
 RMS     Force            0.040657     0.000300     NO 
 Maximum Displacement     0.025827     0.001800     NO 
 RMS     Displacement     0.011140     0.001200     NO 
 Predicted change in Energy=-3.693092D-03
 GradGradGradGradGradGradGradGradGradGradGradGradGradGradGradGradGradGrad

                          Input orientation:                          
 ---------------------------------------------------------------------
 Center     Atomic      Atomic             Coordinates (Angstroms)
 Number     Number       Type             X           Y           Z
 ---------------------------------------------------------------------
      1          8           0       -1.450080    0.710029    0.239138
      2          1           0       -1.404341    0.693673   -0.739060
      3          8           0        0.218019    0.706112    0.150221
      4          1           0        0.441602    1.655366    0.185612
      5         53           0       -3.334961    0.681477    1.036985
 ---------------------------------------------------------------------
                    Distance matrix (angstroms):
                    1          2          3          4          5
     1  O    0.000000
     2  H    0.979403   0.000000
     3  O    1.670472   1.850143   0.000000
     4  H    2.115417   2.277581   0.975871   0.000000
     5  I    2.046986   2.623314   3.662052   3.991957   0.000000
 Stoichiometry    H2IO2(1-)
 Framework group  C1[X(H2IO2)]
 Deg. of freedom     9
 Full point group                 C1      NOp   1
 Largest Abelian subgroup         C1      NOp   1
 Largest concise Abelian subgroup C1      NOp   1
                         Standard orientation:                         
 ---------------------------------------------------------------------
 Center     Atomic      Atomic             Coordinates (Angstroms)
 Number     Number       Type             X           Y           Z
 ---------------------------------------------------------------------
      1          8           0        1.304033    0.214337    0.006811
      2          1           0        1.623040    1.128541    0.154106
      3          8           0        2.928544   -0.153299   -0.120801
      4          1           0        3.163643   -0.425176    0.786467
      5         53           0       -0.729194   -0.022484   -0.000541
 ---------------------------------------------------------------------
 Rotational constants (GHZ):    145.4458885      2.0799990      2.0645884
 Standard basis: LANL2DZ (5D, 7F)
 There are    30 symmetry adapted basis functions of A   symmetry.
 Integral buffers will be    262144 words long.
 Raffenetti 2 integral format.
 Two-electron integral symmetry is turned on.
    30 basis functions,    70 primitive gaussians,    30 cartesian basis functions
    13 alpha electrons       13 beta electrons
       nuclear repulsion energy        58.3653695271 Hartrees.
 NAtoms=    5 NActive=    5 NUniq=    5 SFac= 7.50D-01 NAtFMM=   80 NAOKFM=F Big=F
 ------------------------------------------------------------------------------
 Polarizable Continuum Model (PCM)
 =================================
 Model                : PCM.
 Atomic radii         : SMD-Coulomb.
 Polarization charges : Total charges.
 Charge compensation  : None.
 Solution method      : Matrix inversion.
 Cavity type          : VdW (van der Waals Surface) (Alpha=1.000).
 Cavity algorithm     : GePol (No added spheres)
                        Default sphere list used, NSphG=    5.
                        Lebedev-Laikov grids with approx.  5.0 points / Ang**2.
                        Smoothing algorithm: Karplus/York (Gamma=1.0000).
                        Polarization charges: spherical gaussians, with
                                              point-specific exponents (IZeta= 3).
                        Self-potential: point-specific (ISelfS= 7).
                        Self-field    : sphere-specific E.n sum rule (ISelfD= 2).
 1st derivatives      : Analytical E(r).r(x)/FMM algorithm (CHGder, D1EAlg=3).
                        Cavity 1st derivative terms included.
 Solvent              : Water, Eps=  78.355300 Eps(inf)=   1.777849
 ------------------------------------------------------------------------------
 Spheres list:
 ISph  on   Nord    Re0     Alpha      Xe            Ye            Ze
    1   O      1    1.520   1.000      1.304033      0.214337      0.006811
    2   H      2    1.200   1.000      1.623040      1.128541      0.154106
    3   O      3    1.520   1.000      2.928544     -0.153299     -0.120801
    4   H      4    1.200   1.000      3.163643     -0.425176      0.786467
    5   I      5    1.980   1.000     -0.729194     -0.022484     -0.000541
 ------------------------------------------------------------------------------
 ------------------------------------------------------------------------------
 Atomic radii for non-electrostatic terms: SMD-CDS.
 ------------------------------------------------------------------------------
 Nuclear repulsion after PCM non-electrostatic terms =       58.3674021969 Hartrees.
 One-electron integrals computed using PRISM.
   1 Symmetry operations used in ECPInt.
 ECPInt:  NShTT=     171 NPrTT=    1054 LenC2=     172 LenP2D=     950.
 LDataN:  DoStor=T MaxTD1= 4 Len=   56
 NBasis=    30 RedAO= T  NBF=    30
 NBsUse=    30 1.00D-06 NBFU=    30
 Defaulting to unpruned grid for atomic number  53.
 Initial guess read from the read-write file.
 B after Tr=     0.000000    0.000000    0.000000
         Rot=    1.000000    0.000000    0.000000    0.000000 Ang=   0.00 deg.
 Initial guess orbital symmetries:
       Occupied  (A) (A) (A) (A) (A) (A) (A) (A) (A) (A) (A) (A)
                 (A)
       Virtual   (A) (A) (A) (A) (A) (A) (A) (A) (A) (A) (A) (A)
                 (A) (A) (A) (A) (A)
 Harris functional with IExCor= 1009 diagonalized for initial guess.
 ExpMin= 1.05D-01 ExpMax= 7.82D+03 ExpMxC= 2.73D+02 IAcc=1 IRadAn=         1 AccDes= 0.00D+00
 HarFok:  IExCor= 1009 AccDes= 0.00D+00 IRadAn=         1 IDoV= 1
 ScaDFX=  1.000000  1.000000  1.000000  1.000000
 Defaulting to unpruned grid for atomic number  53.
 Defaulting to unpruned grid for atomic number  53.
 Defaulting to unpruned grid for atomic number  53.
 Defaulting to unpruned grid for atomic number  53.
 FoFCou: FMM=F IPFlag=           0 FMFlag=      100000 FMFlg1=           0
         NFxFlg=           0 DoJE=T BraDBF=F KetDBF=T FulRan=T
         Omega=  0.000000  0.000000  1.000000  0.000000  0.000000 ICntrl=     500 IOpCl=  0
         NMat0=    1 NMatS0=    1 NMatT0=    0 NMatD0=    1 NMtDS0=    0 NMtDT0=    0
         I1Cent=           4 NGrid=           0.
 Petite list used in FoFCou.
 Requested convergence on RMS density matrix=1.00D-08 within 128 cycles.
 Requested convergence on MAX density matrix=1.00D-06.
 Requested convergence on             energy=1.00D-06.
 No special actions if energy rises.
 Keep R1 ints in memory in canonical form, NReq=3400179.
 Defaulting to unpruned grid for atomic number  53.
 Defaulting to unpruned grid for atomic number  53.
 Defaulting to unpruned grid for atomic number  53.
 Defaulting to unpruned grid for atomic number  53.
 Error on total polarization charges =  0.08866
 SCF Done:  E(RM062X) =  -162.923836559     A.U. after   10 cycles
             Convg  =    0.9541D-08             -V/T =  2.0545
 SMD-CDS (non-electrostatic) energy             (kcal/mol) =       1.28
 (included in total energy above)
   1 Symmetry operations used in ECPInt.
 ECPInt:  NShTT=     171 NPrTT=    1054 LenC2=     172 LenP2D=     950.
 LDataN:  DoStor=T MaxTD1= 5 Len=  102
 D1PCM: PCM CHGder 1st derivatives, ID1Alg=3 FixD1E=F DoIter=F DoCFld=F I1PDM=0.
 Calling FoFJK, ICntrl=      2127 FMM=F ISym2X=0 I1Cent= 0 IOpClX= 0 NMat=1 NMatS=1 NMatT=0.
 Defaulting to unpruned grid for atomic number  53.
 Defaulting to unpruned grid for atomic number  53.
 Defaulting to unpruned grid for atomic number  53.
 Defaulting to unpruned grid for atomic number  53.
 ***** Axes restored to original set *****
 -------------------------------------------------------------------
 Center     Atomic                   Forces (Hartrees/Bohr)
 Number     Number              X              Y              Z
 -------------------------------------------------------------------
      1        8           0.049637191    0.002722383   -0.015608348
      2        1          -0.017258377   -0.001556556   -0.011958518
      3        8           0.071095847   -0.005372615   -0.007208742
      4        1           0.001042732    0.005563510    0.001324711
      5       53          -0.104517392   -0.001356723    0.033450897
 -------------------------------------------------------------------
 Cartesian Forces:  Max     0.104517392 RMS     0.036852948

 GradGradGradGradGradGradGradGradGradGradGradGradGradGradGradGradGradGrad
 Berny optimization.
 Internal  Forces:  Max     0.109295642 RMS     0.038665925
 Search for a saddle point.
 Step number   2 out of a maximum of   21
 All quantities printed in internal units (Hartrees-Bohrs-Radians)
 Swaping is turned off.
 Update second derivatives using D2CorX and points    1    2
 The second derivative matrix:
                          R1        R2        R3        R4        R5
           R1           0.50456
           R2          -0.02192   0.07285
           R3          -0.03994   0.07356   0.27432
           R4           0.08580   0.05240  -0.06247   0.09041
           R5           0.00302  -0.00721  -0.00401  -0.00128   0.56494
           A1          -0.01521  -0.00449  -0.06963   0.01573   0.00194
           A2          -0.00614  -0.00041   0.07697  -0.05981  -0.00326
           A3           0.02118   0.00497  -0.00726   0.04416   0.00135
           A4           0.00025   0.00253   0.01541  -0.00490  -0.02648
           D1           0.00490   0.00009  -0.00455   0.00451   0.00491
           D2          -0.00354   0.00061   0.00476  -0.00563   0.00119
                          A1        A2        A3        A4        D1
           A1           0.01284
           A2          -0.03308   0.09174
           A3           0.02022  -0.05845   0.03807
           A4          -0.00548   0.01089  -0.00534   0.02192
           D1           0.00159  -0.00577   0.00333   0.00779   0.00741
           D2          -0.00088   0.00608  -0.00408   0.00655   0.00384
                          D2
           D2           0.00362
     Eigenvalues ---   -0.02667   0.00044   0.00302   0.02584   0.06276
     Eigenvalues ---    0.17167   0.34166   0.53460   0.567251000.00000
     Eigenvalues --- 1000.00000
 Eigenvectors required to have negative eigenvalues:
                          A1        R4        A3        R2        R3
   1                    0.51667   0.46587  -0.45608  -0.44378   0.32507
                          A2        R1        A4        D2        R5
   1                   -0.06137  -0.03639  -0.01436   0.00938  -0.00366
 RFO step:  Lambda0=2.144783910D-04 Lambda=-5.65475591D-02.
 Linear search not attempted -- option 19 set.
 Maximum step size (   0.030) exceeded in Quadratic search.
    -- Step size scaled by   0.063
 Iteration  1 RMS(Cart)=  0.01154305 RMS(Int)=  0.00006629
 Iteration  2 RMS(Cart)=  0.00005248 RMS(Int)=  0.00000160
 Iteration  3 RMS(Cart)=  0.00000001 RMS(Int)=  0.00000160
 Variable       Old X    -DE/DX   Delta X   Delta X   Delta X     New X
                                 (Linear)    (Quad)   (Total)
    R1        1.85080   0.00165   0.00000   0.00074   0.00075   1.85155
    R2        3.15673   0.05392   0.00000   0.01376   0.01376   3.17050
    R3        3.86824   0.10930   0.00000   0.01993   0.01993   3.88817
    R4        3.49626   0.02168   0.00000   0.00428   0.00427   3.50054
    R5        1.84413   0.00568   0.00000   0.00068   0.00068   1.84481
    A1        1.47079  -0.01496   0.00000  -0.00466  -0.00466   1.46614
    A2        2.01757  -0.01183   0.00000  -0.00885  -0.00885   2.00872
    A3        2.79405   0.02680   0.00000   0.01350   0.01350   2.80756
    A4        1.79730  -0.00059   0.00000  -0.00270  -0.00270   1.79460
    D1        1.63704   0.00218   0.00000   0.00206   0.00206   1.63910
    D2       -1.56854  -0.00010   0.00000   0.00046   0.00046  -1.56808
         Item               Value     Threshold  Converged?
 Maximum Force            0.109296     0.000450     NO 
 RMS     Force            0.038666     0.000300     NO 
 Maximum Displacement     0.026033     0.001800     NO 
 RMS     Displacement     0.011560     0.001200     NO 
 Predicted change in Energy=-3.472624D-03
 GradGradGradGradGradGradGradGradGradGradGradGradGradGradGradGradGradGrad

                          Input orientation:                          
 ---------------------------------------------------------------------
 Center     Atomic      Atomic             Coordinates (Angstroms)
 Number     Number       Type             X           Y           Z
 ---------------------------------------------------------------------
      1          8           0       -1.448851    0.709679    0.245223
      2          1           0       -1.405244    0.695187   -0.733496
      3          8           0        0.225870    0.706162    0.144425
      4          1           0        0.447201    1.656220    0.182242
      5         53           0       -3.348737    0.679408    1.034501
 ---------------------------------------------------------------------
                    Distance matrix (angstroms):
                    1          2          3          4          5
     1  O    0.000000
     2  H    0.979798   0.000000
     3  O    1.677756   1.852404   0.000000
     4  H    2.120122   2.278971   0.976231   0.000000
     5  I    2.057533   2.627400   3.683853   4.011191   0.000000
 Stoichiometry    H2IO2(1-)
 Framework group  C1[X(H2IO2)]
 Deg. of freedom     9
 Full point group                 C1      NOp   1
 Largest Abelian subgroup         C1      NOp   1
 Largest concise Abelian subgroup C1      NOp   1
                         Standard orientation:                         
 ---------------------------------------------------------------------
 Center     Atomic      Atomic             Coordinates (Angstroms)
 Number     Number       Type             X           Y           Z
 ---------------------------------------------------------------------
      1          8           0        1.311442    0.206418    0.006574
      2          1           0        1.626814    1.121291    0.160040
      3          8           0        2.946359   -0.148067   -0.120909
      4          1           0        3.179265   -0.425383    0.785666
      5         53           0       -0.733368   -0.021938   -0.000585
 ---------------------------------------------------------------------
 Rotational constants (GHZ):    149.6108949      2.0559237      2.0416812
 Standard basis: LANL2DZ (5D, 7F)
 There are    30 symmetry adapted basis functions of A   symmetry.
 Integral buffers will be    262144 words long.
 Raffenetti 2 integral format.
 Two-electron integral symmetry is turned on.
    30 basis functions,    70 primitive gaussians,    30 cartesian basis functions
    13 alpha electrons       13 beta electrons
       nuclear repulsion energy        58.1378882751 Hartrees.
 NAtoms=    5 NActive=    5 NUniq=    5 SFac= 7.50D-01 NAtFMM=   80 NAOKFM=F Big=F
 ------------------------------------------------------------------------------
 Polarizable Continuum Model (PCM)
 =================================
 Model                : PCM.
 Atomic radii         : SMD-Coulomb.
 Polarization charges : Total charges.
 Charge compensation  : None.
 Solution method      : Matrix inversion.
 Cavity type          : VdW (van der Waals Surface) (Alpha=1.000).
 Cavity algorithm     : GePol (No added spheres)
                        Default sphere list used, NSphG=    5.
                        Lebedev-Laikov grids with approx.  5.0 points / Ang**2.
                        Smoothing algorithm: Karplus/York (Gamma=1.0000).
                        Polarization charges: spherical gaussians, with
                                              point-specific exponents (IZeta= 3).
                        Self-potential: point-specific (ISelfS= 7).
                        Self-field    : sphere-specific E.n sum rule (ISelfD= 2).
 1st derivatives      : Analytical E(r).r(x)/FMM algorithm (CHGder, D1EAlg=3).
                        Cavity 1st derivative terms included.
 Solvent              : Water, Eps=  78.355300 Eps(inf)=   1.777849
 ------------------------------------------------------------------------------
 Spheres list:
 ISph  on   Nord    Re0     Alpha      Xe            Ye            Ze
    1   O      1    1.520   1.000      1.311442      0.206418      0.006574
    2   H      2    1.200   1.000      1.626814      1.121291      0.160040
    3   O      3    1.520   1.000      2.946359     -0.148067     -0.120909
    4   H      4    1.200   1.000      3.179265     -0.425383      0.785666
    5   I      5    1.980   1.000     -0.733368     -0.021938     -0.000585
 ------------------------------------------------------------------------------
 ------------------------------------------------------------------------------
 Atomic radii for non-electrostatic terms: SMD-CDS.
 ------------------------------------------------------------------------------
 Nuclear repulsion after PCM non-electrostatic terms =       58.1399190149 Hartrees.
 One-electron integrals computed using PRISM.
   1 Symmetry operations used in ECPInt.
 ECPInt:  NShTT=     171 NPrTT=    1054 LenC2=     172 LenP2D=     949.
 LDataN:  DoStor=T MaxTD1= 4 Len=   56
 NBasis=    30 RedAO= T  NBF=    30
 NBsUse=    30 1.00D-06 NBFU=    30
 Defaulting to unpruned grid for atomic number  53.
 Initial guess read from the read-write file.
 B after Tr=     0.000000    0.000000    0.000000
         Rot=    1.000000    0.000000    0.000000    0.000000 Ang=   0.00 deg.
 Initial guess orbital symmetries:
       Occupied  (A) (A) (A) (A) (A) (A) (A) (A) (A) (A) (A) (A)
                 (A)
       Virtual   (A) (A) (A) (A) (A) (A) (A) (A) (A) (A) (A) (A)
                 (A) (A) (A) (A) (A)
 Harris functional with IExCor= 1009 diagonalized for initial guess.
 ExpMin= 1.05D-01 ExpMax= 7.82D+03 ExpMxC= 2.73D+02 IAcc=1 IRadAn=         1 AccDes= 0.00D+00
 HarFok:  IExCor= 1009 AccDes= 0.00D+00 IRadAn=         1 IDoV= 1
 ScaDFX=  1.000000  1.000000  1.000000  1.000000
 Defaulting to unpruned grid for atomic number  53.
 Defaulting to unpruned grid for atomic number  53.
 Defaulting to unpruned grid for atomic number  53.
 Defaulting to unpruned grid for atomic number  53.
 FoFCou: FMM=F IPFlag=           0 FMFlag=      100000 FMFlg1=           0
         NFxFlg=           0 DoJE=T BraDBF=F KetDBF=T FulRan=T
         Omega=  0.000000  0.000000  1.000000  0.000000  0.000000 ICntrl=     500 IOpCl=  0
         NMat0=    1 NMatS0=    1 NMatT0=    0 NMatD0=    1 NMtDS0=    0 NMtDT0=    0
         I1Cent=           4 NGrid=           0.
 Petite list used in FoFCou.
 Requested convergence on RMS density matrix=1.00D-08 within 128 cycles.
 Requested convergence on MAX density matrix=1.00D-06.
 Requested convergence on             energy=1.00D-06.
 No special actions if energy rises.
 Keep R1 ints in memory in canonical form, NReq=3402632.
 Defaulting to unpruned grid for atomic number  53.
 Defaulting to unpruned grid for atomic number  53.
 Defaulting to unpruned grid for atomic number  53.
 Defaulting to unpruned grid for atomic number  53.
 Error on total polarization charges =  0.08845
 SCF Done:  E(RM062X) =  -162.927311482     A.U. after   11 cycles
             Convg  =    0.2765D-08             -V/T =  2.0547
 SMD-CDS (non-electrostatic) energy             (kcal/mol) =       1.27
 (included in total energy above)
   1 Symmetry operations used in ECPInt.
 ECPInt:  NShTT=     171 NPrTT=    1054 LenC2=     172 LenP2D=     949.
 LDataN:  DoStor=T MaxTD1= 5 Len=  102
 D1PCM: PCM CHGder 1st derivatives, ID1Alg=3 FixD1E=F DoIter=F DoCFld=F I1PDM=0.
 Calling FoFJK, ICntrl=      2127 FMM=F ISym2X=0 I1Cent= 0 IOpClX= 0 NMat=1 NMatS=1 NMatT=0.
 Defaulting to unpruned grid for atomic number  53.
 Defaulting to unpruned grid for atomic number  53.
 Defaulting to unpruned grid for atomic number  53.
 Defaulting to unpruned grid for atomic number  53.
 ***** Axes restored to original set *****
 -------------------------------------------------------------------
 Center     Atomic                   Forces (Hartrees/Bohr)
 Number     Number              X              Y              Z
 -------------------------------------------------------------------
      1        8           0.047599945    0.002637841   -0.013696459
      2        1          -0.016908277   -0.001510301   -0.011291458
      3        8           0.067871281   -0.005065463   -0.007339729
      4        1           0.000897197    0.005243275    0.001315599
      5       53          -0.099460146   -0.001305352    0.031012048
 -------------------------------------------------------------------
 Cartesian Forces:  Max     0.099460146 RMS     0.035069279

 GradGradGradGradGradGradGradGradGradGradGradGradGradGradGradGradGradGrad
 Berny optimization.
 Internal  Forces:  Max     0.103751587 RMS     0.036756737
 Search for a saddle point.
 Step number   3 out of a maximum of   21
 All quantities printed in internal units (Hartrees-Bohrs-Radians)
 Swaping is turned off.
 Update second derivatives using D2CorX and points    1    2    3
 The second derivative matrix:
                          R1        R2        R3        R4        R5
           R1           0.50435
           R2          -0.02080   0.06862
           R3          -0.03874   0.06962   0.27093
           R4           0.08642   0.04979  -0.06504   0.08887
           R5           0.00299  -0.00699  -0.00377  -0.00117   0.56494
           A1          -0.01539  -0.00403  -0.06929   0.01606   0.00190
           A2          -0.00634  -0.00034   0.07673  -0.05961  -0.00332
           A3           0.02156   0.00442  -0.00735   0.04362   0.00145
           A4           0.00011   0.00292   0.01573  -0.00463  -0.02651
           D1           0.00494   0.00007  -0.00450   0.00446   0.00493
           D2          -0.00355   0.00071   0.00489  -0.00558   0.00119
                          A1        A2        A3        A4        D1
           A1           0.01283
           A2          -0.03297   0.09209
           A3           0.02012  -0.05891   0.03862
           A4          -0.00550   0.01094  -0.00537   0.02189
           D1           0.00157  -0.00585   0.00343   0.00778   0.00742
           D2          -0.00091   0.00604  -0.00403   0.00653   0.00385
                          D2
           D2           0.00362
     Eigenvalues ---   -0.02654   0.00044   0.00302   0.02577   0.06292
     Eigenvalues ---    0.16556   0.33966   0.53430   0.567191000.00000
     Eigenvalues --- 1000.00000
 Eigenvectors required to have negative eigenvalues:
                          A1        R4        A3        R2        R3
   1                    0.51592   0.46646  -0.45356  -0.44467   0.32724
                          A2        R1        A4        D2        R5
   1                   -0.06320  -0.03642  -0.01594   0.01058  -0.00371
 RFO step:  Lambda0=2.446419220D-04 Lambda=-5.32168413D-02.
 Linear search not attempted -- option 19 set.
 Maximum step size (   0.030) exceeded in Quadratic search.
    -- Step size scaled by   0.064
 Iteration  1 RMS(Cart)=  0.01151749 RMS(Int)=  0.00006953
 Iteration  2 RMS(Cart)=  0.00005312 RMS(Int)=  0.00000159
 Iteration  3 RMS(Cart)=  0.00000001 RMS(Int)=  0.00000159
 Variable       Old X    -DE/DX   Delta X   Delta X   Delta X     New X
                                 (Linear)    (Quad)   (Total)
    R1        1.85155   0.00154   0.00000   0.00061   0.00061   1.85216
    R2        3.17050   0.05132   0.00000   0.01454   0.01454   3.18504
    R3        3.88817   0.10375   0.00000   0.01937   0.01937   3.90755
    R4        3.50054   0.02079   0.00000   0.00447   0.00447   3.50500
    R5        1.84481   0.00535   0.00000   0.00063   0.00063   1.84544
    A1        1.46614  -0.01411   0.00000  -0.00489  -0.00489   1.46125
    A2        2.00872  -0.01160   0.00000  -0.00857  -0.00857   2.00015
    A3        2.80756   0.02571   0.00000   0.01345   0.01345   2.82101
    A4        1.79460  -0.00072   0.00000  -0.00308  -0.00308   1.79152
    D1        1.63910   0.00216   0.00000   0.00215   0.00215   1.64125
    D2       -1.56808  -0.00007   0.00000   0.00047   0.00047  -1.56761
         Item               Value     Threshold  Converged?
 Maximum Force            0.103752     0.000450     NO 
 RMS     Force            0.036757     0.000300     NO 
 Maximum Displacement     0.025692     0.001800     NO 
 RMS     Displacement     0.011535     0.001200     NO 
 Predicted change in Energy=-3.290008D-03
 GradGradGradGradGradGradGradGradGradGradGradGradGradGradGradGradGradGrad

                          Input orientation:                          
 ---------------------------------------------------------------------
 Center     Atomic      Atomic             Coordinates (Angstroms)
 Number     Number       Type             X           Y           Z
 ---------------------------------------------------------------------
      1          8           0       -1.447799    0.709299    0.251347
      2          1           0       -1.406124    0.696698   -0.727805
      3          8           0        0.233867    0.706186    0.138510
      4          1           0        0.452628    1.657073    0.178930
      5         53           0       -3.362333    0.677401    1.031912
 ---------------------------------------------------------------------
                    Distance matrix (angstroms):
                    1          2          3          4          5
     1  O    0.000000
     2  H    0.980120   0.000000
     3  O    1.685450   1.854767   0.000000
     4  H    2.124887   2.280230   0.976564   0.000000
     5  I    2.067786   2.631298   3.705623   4.030045   0.000000
 Stoichiometry    H2IO2(1-)
 Framework group  C1[X(H2IO2)]
 Deg. of freedom     9
 Full point group                 C1      NOp   1
 Largest Abelian subgroup         C1      NOp   1
 Largest concise Abelian subgroup C1      NOp   1
                         Standard orientation:                         
 ---------------------------------------------------------------------
 Center     Atomic      Atomic             Coordinates (Angstroms)
 Number     Number       Type             X           Y           Z
 ---------------------------------------------------------------------
      1          8           0        1.318561    0.198483    0.006333
      2          1           0        1.630479    1.113751    0.166414
      3          8           0        2.964188   -0.142737   -0.121019
      4          1           0        3.194525   -0.426022    0.784725
      5         53           0       -0.737490   -0.021391   -0.000635
 ---------------------------------------------------------------------
 Rotational constants (GHZ):    153.9166053      2.0324465      2.0193056
 Standard basis: LANL2DZ (5D, 7F)
 There are    30 symmetry adapted basis functions of A   symmetry.
 Integral buffers will be    262144 words long.
 Raffenetti 2 integral format.
 Two-electron integral symmetry is turned on.
    30 basis functions,    70 primitive gaussians,    30 cartesian basis functions
    13 alpha electrons       13 beta electrons
       nuclear repulsion energy        57.9102433234 Hartrees.
 NAtoms=    5 NActive=    5 NUniq=    5 SFac= 7.50D-01 NAtFMM=   80 NAOKFM=F Big=F
 ------------------------------------------------------------------------------
 Polarizable Continuum Model (PCM)
 =================================
 Model                : PCM.
 Atomic radii         : SMD-Coulomb.
 Polarization charges : Total charges.
 Charge compensation  : None.
 Solution method      : Matrix inversion.
 Cavity type          : VdW (van der Waals Surface) (Alpha=1.000).
 Cavity algorithm     : GePol (No added spheres)
                        Default sphere list used, NSphG=    5.
                        Lebedev-Laikov grids with approx.  5.0 points / Ang**2.
                        Smoothing algorithm: Karplus/York (Gamma=1.0000).
                        Polarization charges: spherical gaussians, with
                                              point-specific exponents (IZeta= 3).
                        Self-potential: point-specific (ISelfS= 7).
                        Self-field    : sphere-specific E.n sum rule (ISelfD= 2).
 1st derivatives      : Analytical E(r).r(x)/FMM algorithm (CHGder, D1EAlg=3).
                        Cavity 1st derivative terms included.
 Solvent              : Water, Eps=  78.355300 Eps(inf)=   1.777849
 ------------------------------------------------------------------------------
 Spheres list:
 ISph  on   Nord    Re0     Alpha      Xe            Ye            Ze
    1   O      1    1.520   1.000      1.318561      0.198483      0.006333
    2   H      2    1.200   1.000      1.630479      1.113751      0.166414
    3   O      3    1.520   1.000      2.964188     -0.142737     -0.121019
    4   H      4    1.200   1.000      3.194525     -0.426022      0.784725
    5   I      5    1.980   1.000     -0.737490     -0.021391     -0.000635
 ------------------------------------------------------------------------------
 ------------------------------------------------------------------------------
 Atomic radii for non-electrostatic terms: SMD-CDS.
 ------------------------------------------------------------------------------
 Nuclear repulsion after PCM non-electrostatic terms =       57.9122718845 Hartrees.
 One-electron integrals computed using PRISM.
   1 Symmetry operations used in ECPInt.
 ECPInt:  NShTT=     171 NPrTT=    1054 LenC2=     172 LenP2D=     949.
 LDataN:  DoStor=T MaxTD1= 4 Len=   56
 NBasis=    30 RedAO= T  NBF=    30
 NBsUse=    30 1.00D-06 NBFU=    30
 Defaulting to unpruned grid for atomic number  53.
 Initial guess read from the read-write file.
 B after Tr=     0.000000    0.000000    0.000000
         Rot=    1.000000    0.000000    0.000000    0.000000 Ang=   0.00 deg.
 Initial guess orbital symmetries:
       Occupied  (A) (A) (A) (A) (A) (A) (A) (A) (A) (A) (A) (A)
                 (A)
       Virtual   (A) (A) (A) (A) (A) (A) (A) (A) (A) (A) (A) (A)
                 (A) (A) (A) (A) (A)
 Harris functional with IExCor= 1009 diagonalized for initial guess.
 ExpMin= 1.05D-01 ExpMax= 7.82D+03 ExpMxC= 2.73D+02 IAcc=1 IRadAn=         1 AccDes= 0.00D+00
 HarFok:  IExCor= 1009 AccDes= 0.00D+00 IRadAn=         1 IDoV= 1
 ScaDFX=  1.000000  1.000000  1.000000  1.000000
 Defaulting to unpruned grid for atomic number  53.
 Defaulting to unpruned grid for atomic number  53.
 Defaulting to unpruned grid for atomic number  53.
 Defaulting to unpruned grid for atomic number  53.
 FoFCou: FMM=F IPFlag=           0 FMFlag=      100000 FMFlg1=           0
         NFxFlg=           0 DoJE=T BraDBF=F KetDBF=T FulRan=T
         Omega=  0.000000  0.000000  1.000000  0.000000  0.000000 ICntrl=     500 IOpCl=  0
         NMat0=    1 NMatS0=    1 NMatT0=    0 NMatD0=    1 NMtDS0=    0 NMtDT0=    0
         I1Cent=           4 NGrid=           0.
 Petite list used in FoFCou.
 Requested convergence on RMS density matrix=1.00D-08 within 128 cycles.
 Requested convergence on MAX density matrix=1.00D-06.
 Requested convergence on             energy=1.00D-06.
 No special actions if energy rises.
 Keep R1 ints in memory in canonical form, NReq=3408890.
 Defaulting to unpruned grid for atomic number  53.
 Defaulting to unpruned grid for atomic number  53.
 Defaulting to unpruned grid for atomic number  53.
 Defaulting to unpruned grid for atomic number  53.
 Error on total polarization charges =  0.08823
 SCF Done:  E(RM062X) =  -162.930604079     A.U. after   10 cycles
             Convg  =    0.9039D-08             -V/T =  2.0549
 SMD-CDS (non-electrostatic) energy             (kcal/mol) =       1.27
 (included in total energy above)
   1 Symmetry operations used in ECPInt.
 ECPInt:  NShTT=     171 NPrTT=    1054 LenC2=     172 LenP2D=     949.
 LDataN:  DoStor=T MaxTD1= 5 Len=  102
 D1PCM: PCM CHGder 1st derivatives, ID1Alg=3 FixD1E=F DoIter=F DoCFld=F I1PDM=0.
 Calling FoFJK, ICntrl=      2127 FMM=F ISym2X=0 I1Cent= 0 IOpClX= 0 NMat=1 NMatS=1 NMatT=0.
 Defaulting to unpruned grid for atomic number  53.
 Defaulting to unpruned grid for atomic number  53.
 Defaulting to unpruned grid for atomic number  53.
 Defaulting to unpruned grid for atomic number  53.
 ***** Axes restored to original set *****
 -------------------------------------------------------------------
 Center     Atomic                   Forces (Hartrees/Bohr)
 Number     Number              X              Y              Z
 -------------------------------------------------------------------
      1        8           0.045599061    0.002538729   -0.011835334
      2        1          -0.016541625   -0.001466040   -0.010708827
      3        8           0.064721669   -0.004770565   -0.007458579
      4        1           0.000772957    0.004944363    0.001303070
      5       53          -0.094552063   -0.001246487    0.028699669
 -------------------------------------------------------------------
 Cartesian Forces:  Max     0.094552063 RMS     0.033342256

 GradGradGradGradGradGradGradGradGradGradGradGradGradGradGradGradGradGrad
 Berny optimization.
 Internal  Forces:  Max     0.098392439 RMS     0.034913292
 Search for a saddle point.
 Step number   4 out of a maximum of   21
 All quantities printed in internal units (Hartrees-Bohrs-Radians)
 Swaping is turned off.
 Update second derivatives using D2CorX and points    1    2    3    4
 The second derivative matrix:
                          R1        R2        R3        R4        R5
           R1           0.50425
           R2          -0.02110   0.06623
           R3          -0.03923   0.06722   0.26844
           R4           0.08630   0.04804  -0.06682   0.08768
           R5           0.00296  -0.00700  -0.00380  -0.00117   0.56493
           A1          -0.01528  -0.00358  -0.06880   0.01640   0.00191
           A2          -0.00607   0.00016   0.07736  -0.05924  -0.00328
           A3           0.02117   0.00348  -0.00847   0.04292   0.00141
           A4           0.00014   0.00252   0.01523  -0.00480  -0.02651
           D1           0.00490   0.00015  -0.00442   0.00448   0.00492
           D2          -0.00356   0.00084   0.00502  -0.00551   0.00119
                          A1        A2        A3        A4        D1
           A1           0.01273
           A2          -0.03312   0.09181
           A3           0.02037  -0.05848   0.03795
           A4          -0.00540   0.01111  -0.00563   0.02196
           D1           0.00156  -0.00586   0.00345   0.00774   0.00744
           D2          -0.00093   0.00602  -0.00398   0.00653   0.00385
                          D2
           D2           0.00362
     Eigenvalues ---   -0.02657   0.00044   0.00309   0.02578   0.06250
     Eigenvalues ---    0.16034   0.33814   0.53454   0.567181000.00000
     Eigenvalues --- 1000.00000
 Eigenvectors required to have negative eigenvalues:
                          A1        R4        A3        R2        R3
   1                    0.51503   0.46671  -0.45415  -0.44554   0.32636
                          A2        R1        A4        D2        R5
   1                   -0.06179  -0.03684  -0.01828   0.01108  -0.00386
 RFO step:  Lambda0=1.891321001D-04 Lambda=-4.99764478D-02.
 Linear search not attempted -- option 19 set.
 Maximum step size (   0.030) exceeded in Quadratic search.
    -- Step size scaled by   0.065
 Iteration  1 RMS(Cart)=  0.01144063 RMS(Int)=  0.00006876
 Iteration  2 RMS(Cart)=  0.00005269 RMS(Int)=  0.00000123
 Iteration  3 RMS(Cart)=  0.00000001 RMS(Int)=  0.00000123
 Variable       Old X    -DE/DX   Delta X   Delta X   Delta X     New X
                                 (Linear)    (Quad)   (Total)
    R1        1.85216   0.00149   0.00000   0.00058   0.00058   1.85274
    R2        3.18504   0.04880   0.00000   0.01442   0.01442   3.19946
    R3        3.90755   0.09839   0.00000   0.01948   0.01948   3.92703
    R4        3.50500   0.01992   0.00000   0.00506   0.00505   3.51005
    R5        1.84544   0.00504   0.00000   0.00061   0.00061   1.84605
    A1        1.46125  -0.01330   0.00000  -0.00446  -0.00446   1.45679
    A2        2.00015  -0.01137   0.00000  -0.00880  -0.00880   1.99136
    A3        2.82101   0.02469   0.00000   0.01325   0.01325   2.83426
    A4        1.79152  -0.00082   0.00000  -0.00295  -0.00295   1.78858
    D1        1.64125   0.00213   0.00000   0.00214   0.00214   1.64339
    D2       -1.56761  -0.00004   0.00000   0.00048   0.00048  -1.56713
         Item               Value     Threshold  Converged?
 Maximum Force            0.098392     0.000450     NO 
 RMS     Force            0.034913     0.000300     NO 
 Maximum Displacement     0.025450     0.001800     NO 
 RMS     Displacement     0.011458     0.001200     NO 
 Predicted change in Energy=-3.136297D-03
 GradGradGradGradGradGradGradGradGradGradGradGradGradGradGradGradGradGrad

                          Input orientation:                          
 ---------------------------------------------------------------------
 Center     Atomic      Atomic             Coordinates (Angstroms)
 Number     Number       Type             X           Y           Z
 ---------------------------------------------------------------------
      1          8           0       -1.446660    0.708876    0.257417
      2          1           0       -1.407224    0.698148   -0.722157
      3          8           0        0.241814    0.706267    0.132651
      4          1           0        0.458110    1.657937    0.175699
      5         53           0       -3.375800    0.675429    1.029285
 ---------------------------------------------------------------------
                    Distance matrix (angstroms):
                    1          2          3          4          5
     1  O    0.000000
     2  H    0.980426   0.000000
     3  O    1.693079   1.857441   0.000000
     4  H    2.129682   2.281844   0.976889   0.000000
     5  I    2.078095   2.635026   3.727202   4.048803   0.000000
 Stoichiometry    H2IO2(1-)
 Framework group  C1[X(H2IO2)]
 Deg. of freedom     9
 Full point group                 C1      NOp   1
 Largest Abelian subgroup         C1      NOp   1
 Largest concise Abelian subgroup C1      NOp   1
                         Standard orientation:                         
 ---------------------------------------------------------------------
 Center     Atomic      Atomic             Coordinates (Angstroms)
 Number     Number       Type             X           Y           Z
 ---------------------------------------------------------------------
      1          8           0        1.325713    0.190599    0.006047
      2          1           0        1.633892    1.106196    0.173211
      3          8           0        2.981847   -0.137380   -0.121110
      4          1           0        3.209703   -0.427134    0.783564
      5         53           0       -0.741586   -0.020845   -0.000684
 ---------------------------------------------------------------------
 Rotational constants (GHZ):    158.3036938      2.0095385      1.9974235
 Standard basis: LANL2DZ (5D, 7F)
 There are    30 symmetry adapted basis functions of A   symmetry.
 Integral buffers will be    262144 words long.
 Raffenetti 2 integral format.
 Two-electron integral symmetry is turned on.
    30 basis functions,    70 primitive gaussians,    30 cartesian basis functions
    13 alpha electrons       13 beta electrons
       nuclear repulsion energy        57.6853164685 Hartrees.
 NAtoms=    5 NActive=    5 NUniq=    5 SFac= 7.50D-01 NAtFMM=   80 NAOKFM=F Big=F
 ------------------------------------------------------------------------------
 Polarizable Continuum Model (PCM)
 =================================
 Model                : PCM.
 Atomic radii         : SMD-Coulomb.
 Polarization charges : Total charges.
 Charge compensation  : None.
 Solution method      : Matrix inversion.
 Cavity type          : VdW (van der Waals Surface) (Alpha=1.000).
 Cavity algorithm     : GePol (No added spheres)
                        Default sphere list used, NSphG=    5.
                        Lebedev-Laikov grids with approx.  5.0 points / Ang**2.
                        Smoothing algorithm: Karplus/York (Gamma=1.0000).
                        Polarization charges: spherical gaussians, with
                                              point-specific exponents (IZeta= 3).
                        Self-potential: point-specific (ISelfS= 7).
                        Self-field    : sphere-specific E.n sum rule (ISelfD= 2).
 1st derivatives      : Analytical E(r).r(x)/FMM algorithm (CHGder, D1EAlg=3).
                        Cavity 1st derivative terms included.
 Solvent              : Water, Eps=  78.355300 Eps(inf)=   1.777849
 ------------------------------------------------------------------------------
 Spheres list:
 ISph  on   Nord    Re0     Alpha      Xe            Ye            Ze
    1   O      1    1.520   1.000      1.325713      0.190599      0.006047
    2   H      2    1.200   1.000      1.633892      1.106196      0.173211
    3   O      3    1.520   1.000      2.981847     -0.137380     -0.121110
    4   H      4    1.200   1.000      3.209703     -0.427134      0.783564
    5   I      5    1.980   1.000     -0.741586     -0.020845     -0.000684
 ------------------------------------------------------------------------------
 ------------------------------------------------------------------------------
 Atomic radii for non-electrostatic terms: SMD-CDS.
 ------------------------------------------------------------------------------
 Nuclear repulsion after PCM non-electrostatic terms =       57.6873429759 Hartrees.
 One-electron integrals computed using PRISM.
   1 Symmetry operations used in ECPInt.
 ECPInt:  NShTT=     171 NPrTT=    1054 LenC2=     172 LenP2D=     948.
 LDataN:  DoStor=T MaxTD1= 4 Len=   56
 NBasis=    30 RedAO= T  NBF=    30
 NBsUse=    30 1.00D-06 NBFU=    30
 Defaulting to unpruned grid for atomic number  53.
 Initial guess read from the read-write file.
 B after Tr=     0.000000    0.000000    0.000000
         Rot=    1.000000    0.000000    0.000000    0.000000 Ang=   0.00 deg.
 Initial guess orbital symmetries:
       Occupied  (A) (A) (A) (A) (A) (A) (A) (A) (A) (A) (A) (A)
                 (A)
       Virtual   (A) (A) (A) (A) (A) (A) (A) (A) (A) (A) (A) (A)
                 (A) (A) (A) (A) (A)
 Harris functional with IExCor= 1009 diagonalized for initial guess.
 ExpMin= 1.05D-01 ExpMax= 7.82D+03 ExpMxC= 2.73D+02 IAcc=1 IRadAn=         1 AccDes= 0.00D+00
 HarFok:  IExCor= 1009 AccDes= 0.00D+00 IRadAn=         1 IDoV= 1
 ScaDFX=  1.000000  1.000000  1.000000  1.000000
 Defaulting to unpruned grid for atomic number  53.
 Defaulting to unpruned grid for atomic number  53.
 Defaulting to unpruned grid for atomic number  53.
 Defaulting to unpruned grid for atomic number  53.
 FoFCou: FMM=F IPFlag=           0 FMFlag=      100000 FMFlg1=           0
         NFxFlg=           0 DoJE=T BraDBF=F KetDBF=T FulRan=T
         Omega=  0.000000  0.000000  1.000000  0.000000  0.000000 ICntrl=     500 IOpCl=  0
         NMat0=    1 NMatS0=    1 NMatT0=    0 NMatD0=    1 NMtDS0=    0 NMtDT0=    0
         I1Cent=           4 NGrid=           0.
 Petite list used in FoFCou.
 Requested convergence on RMS density matrix=1.00D-08 within 128 cycles.
 Requested convergence on MAX density matrix=1.00D-06.
 Requested convergence on             energy=1.00D-06.
 No special actions if energy rises.
 Keep R1 ints in memory in canonical form, NReq=3410117.
 Defaulting to unpruned grid for atomic number  53.
 Defaulting to unpruned grid for atomic number  53.
 Defaulting to unpruned grid for atomic number  53.
 Defaulting to unpruned grid for atomic number  53.
 Error on total polarization charges =  0.08803
 SCF Done:  E(RM062X) =  -162.933743295     A.U. after   10 cycles
             Convg  =    0.7912D-08             -V/T =  2.0551
 SMD-CDS (non-electrostatic) energy             (kcal/mol) =       1.27
 (included in total energy above)
   1 Symmetry operations used in ECPInt.
 ECPInt:  NShTT=     171 NPrTT=    1054 LenC2=     172 LenP2D=     948.
 LDataN:  DoStor=T MaxTD1= 5 Len=  102
 D1PCM: PCM CHGder 1st derivatives, ID1Alg=3 FixD1E=F DoIter=F DoCFld=F I1PDM=0.
 Calling FoFJK, ICntrl=      2127 FMM=F ISym2X=0 I1Cent= 0 IOpClX= 0 NMat=1 NMatS=1 NMatT=0.
 Defaulting to unpruned grid for atomic number  53.
 Defaulting to unpruned grid for atomic number  53.
 Defaulting to unpruned grid for atomic number  53.
 Defaulting to unpruned grid for atomic number  53.
 ***** Axes restored to original set *****
 -------------------------------------------------------------------
 Center     Atomic                   Forces (Hartrees/Bohr)
 Number     Number              X              Y              Z
 -------------------------------------------------------------------
      1        8           0.043722626    0.002439443   -0.010109929
      2        1          -0.016163897   -0.001423581   -0.010158081
      3        8           0.061600535   -0.004486593   -0.007545220
      4        1           0.000647419    0.004656560    0.001287189
      5       53          -0.089806682   -0.001185828    0.026526041
 -------------------------------------------------------------------
 Cartesian Forces:  Max     0.089806682 RMS     0.031677581

 GradGradGradGradGradGradGradGradGradGradGradGradGradGradGradGradGradGrad
 Berny optimization.
 Internal  Forces:  Max     0.093235055 RMS     0.033128427
 Search for a saddle point.
 Step number   5 out of a maximum of   21
 All quantities printed in internal units (Hartrees-Bohrs-Radians)
 Swaping is turned off.
 Update second derivatives using D2CorX and points    1    2    3    4    5
 The second derivative matrix:
                          R1        R2        R3        R4        R5
           R1           0.50402
           R2          -0.02176   0.06611
           R3          -0.04031   0.06574   0.26467
           R4           0.08581   0.04759  -0.06828   0.08715
           R5           0.00296  -0.00697  -0.00376  -0.00115   0.56493
           A1          -0.01513  -0.00356  -0.06850   0.01648   0.00191
           A2          -0.00570   0.00082   0.07881  -0.05866  -0.00329
           A3           0.02065   0.00281  -0.01022   0.04225   0.00142
           A4           0.00015   0.00269   0.01547  -0.00469  -0.02652
           D1           0.00487   0.00012  -0.00449   0.00446   0.00492
           D2          -0.00353   0.00092   0.00517  -0.00544   0.00119
                          A1        A2        A3        A4        D1
           A1           0.01272
           A2          -0.03326   0.09126
           A3           0.02052  -0.05779   0.03711
           A4          -0.00543   0.01104  -0.00553   0.02194
           D1           0.00156  -0.00583   0.00342   0.00775   0.00743
           D2          -0.00095   0.00596  -0.00391   0.00652   0.00386
                          D2
           D2           0.00361
     Eigenvalues ---   -0.02654   0.00043   0.00308   0.02577   0.06224
     Eigenvalues ---    0.15636   0.33637   0.53472   0.567181000.00000
     Eigenvalues --- 1000.00000
 Eigenvectors required to have negative eigenvalues:
                          A1        R4        A3        R2        R3
   1                    0.51423   0.46879  -0.45314  -0.44424   0.32770
                          A2        R1        A4        D2        R5
   1                   -0.06205  -0.03712  -0.01853   0.01112  -0.00385
 RFO step:  Lambda0=2.123440109D-04 Lambda=-4.69489229D-02.
 Linear search not attempted -- option 19 set.
 Maximum step size (   0.030) exceeded in Quadratic search.
    -- Step size scaled by   0.065
 Iteration  1 RMS(Cart)=  0.01146412 RMS(Int)=  0.00007568
 Iteration  2 RMS(Cart)=  0.00005547 RMS(Int)=  0.00000137
 Iteration  3 RMS(Cart)=  0.00000001 RMS(Int)=  0.00000137
 Variable       Old X    -DE/DX   Delta X   Delta X   Delta X     New X
                                 (Linear)    (Quad)   (Total)
    R1        1.85274   0.00146   0.00000   0.00066   0.00066   1.85340
    R2        3.19946   0.04631   0.00000   0.01424   0.01424   3.21370
    R3        3.92703   0.09324   0.00000   0.01916   0.01916   3.94620
    R4        3.51005   0.01905   0.00000   0.00472   0.00472   3.51477
    R5        1.84605   0.00474   0.00000   0.00056   0.00056   1.84662
    A1        1.45679  -0.01252   0.00000  -0.00458  -0.00458   1.45221
    A2        1.99136  -0.01116   0.00000  -0.00910  -0.00910   1.98225
    A3        2.83426   0.02369   0.00000   0.01368   0.01368   2.84794
    A4        1.78858  -0.00093   0.00000  -0.00323  -0.00323   1.78534
    D1        1.64339   0.00210   0.00000   0.00226   0.00226   1.64566
    D2       -1.56713  -0.00002   0.00000   0.00053   0.00053  -1.56660
         Item               Value     Threshold  Converged?
 Maximum Force            0.093235     0.000450     NO 
 RMS     Force            0.033128     0.000300     NO 
 Maximum Displacement     0.025088     0.001800     NO 
 RMS     Displacement     0.011482     0.001200     NO 
 Predicted change in Energy=-2.952714D-03
 GradGradGradGradGradGradGradGradGradGradGradGradGradGradGradGradGradGrad

                          Input orientation:                          
 ---------------------------------------------------------------------
 Center     Atomic      Atomic             Coordinates (Angstroms)
 Number     Number       Type             X           Y           Z
 ---------------------------------------------------------------------
      1          8           0       -1.445380    0.708407    0.263769
      2          1           0       -1.408309    0.699655   -0.716268
      3          8           0        0.249691    0.706312    0.126559
      4          1           0        0.463314    1.658758    0.172464
      5         53           0       -3.389076    0.673524    1.026371
 ---------------------------------------------------------------------
                    Distance matrix (angstroms):
                    1          2          3          4          5
     1  O    0.000000
     2  H    0.980776   0.000000
     3  O    1.700617   1.859937   0.000000
     4  H    2.134154   2.283132   0.977188   0.000000
     5  I    2.088237   2.638354   3.748515   4.067032   0.000000
 Stoichiometry    H2IO2(1-)
 Framework group  C1[X(H2IO2)]
 Deg. of freedom     9
 Full point group                 C1      NOp   1
 Largest Abelian subgroup         C1      NOp   1
 Largest concise Abelian subgroup C1      NOp   1
                         Standard orientation:                         
 ---------------------------------------------------------------------
 Center     Atomic      Atomic             Coordinates (Angstroms)
 Number     Number       Type             X           Y           Z
 ---------------------------------------------------------------------
      1          8           0        1.332754    0.182335    0.005705
      2          1           0        1.637058    1.098110    0.180857
      3          8           0        2.999301   -0.131699   -0.121189
      4          1           0        3.224389   -0.428840    0.782104
      5         53           0       -0.745621   -0.020271   -0.000738
 ---------------------------------------------------------------------
 Rotational constants (GHZ):    163.0228824      1.9873230      1.9762000
 Standard basis: LANL2DZ (5D, 7F)
 There are    30 symmetry adapted basis functions of A   symmetry.
 Integral buffers will be    262144 words long.
 Raffenetti 2 integral format.
 Two-electron integral symmetry is turned on.
    30 basis functions,    70 primitive gaussians,    30 cartesian basis functions
    13 alpha electrons       13 beta electrons
       nuclear repulsion energy        57.4661033293 Hartrees.
 NAtoms=    5 NActive=    5 NUniq=    5 SFac= 7.50D-01 NAtFMM=   80 NAOKFM=F Big=F
 ------------------------------------------------------------------------------
 Polarizable Continuum Model (PCM)
 =================================
 Model                : PCM.
 Atomic radii         : SMD-Coulomb.
 Polarization charges : Total charges.
 Charge compensation  : None.
 Solution method      : Matrix inversion.
 Cavity type          : VdW (van der Waals Surface) (Alpha=1.000).
 Cavity algorithm     : GePol (No added spheres)
                        Default sphere list used, NSphG=    5.
                        Lebedev-Laikov grids with approx.  5.0 points / Ang**2.
                        Smoothing algorithm: Karplus/York (Gamma=1.0000).
                        Polarization charges: spherical gaussians, with
                                              point-specific exponents (IZeta= 3).
                        Self-potential: point-specific (ISelfS= 7).
                        Self-field    : sphere-specific E.n sum rule (ISelfD= 2).
 1st derivatives      : Analytical E(r).r(x)/FMM algorithm (CHGder, D1EAlg=3).
                        Cavity 1st derivative terms included.
 Solvent              : Water, Eps=  78.355300 Eps(inf)=   1.777849
 ------------------------------------------------------------------------------
 Spheres list:
 ISph  on   Nord    Re0     Alpha      Xe            Ye            Ze
    1   O      1    1.520   1.000      1.332754      0.182335      0.005705
    2   H      2    1.200   1.000      1.637058      1.098110      0.180857
    3   O      3    1.520   1.000      2.999301     -0.131699     -0.121189
    4   H      4    1.200   1.000      3.224389     -0.428840      0.782104
    5   I      5    1.980   1.000     -0.745621     -0.020271     -0.000738
 ------------------------------------------------------------------------------
 ------------------------------------------------------------------------------
 Atomic radii for non-electrostatic terms: SMD-CDS.
 ------------------------------------------------------------------------------
 Nuclear repulsion after PCM non-electrostatic terms =       57.4681274880 Hartrees.
 One-electron integrals computed using PRISM.
   1 Symmetry operations used in ECPInt.
 ECPInt:  NShTT=     171 NPrTT=    1054 LenC2=     172 LenP2D=     948.
 LDataN:  DoStor=T MaxTD1= 4 Len=   56
 NBasis=    30 RedAO= T  NBF=    30
 NBsUse=    30 1.00D-06 NBFU=    30
 Defaulting to unpruned grid for atomic number  53.
 Initial guess read from the read-write file.
 B after Tr=     0.000000    0.000000    0.000000
         Rot=    1.000000    0.000000    0.000000    0.000000 Ang=   0.00 deg.
 Initial guess orbital symmetries:
       Occupied  (A) (A) (A) (A) (A) (A) (A) (A) (A) (A) (A) (A)
                 (A)
       Virtual   (A) (A) (A) (A) (A) (A) (A) (A) (A) (A) (A) (A)
                 (A) (A) (A) (A) (A)
 Harris functional with IExCor= 1009 diagonalized for initial guess.
 ExpMin= 1.05D-01 ExpMax= 7.82D+03 ExpMxC= 2.73D+02 IAcc=1 IRadAn=         1 AccDes= 0.00D+00
 HarFok:  IExCor= 1009 AccDes= 0.00D+00 IRadAn=         1 IDoV= 1
 ScaDFX=  1.000000  1.000000  1.000000  1.000000
 Defaulting to unpruned grid for atomic number  53.
 Defaulting to unpruned grid for atomic number  53.
 Defaulting to unpruned grid for atomic number  53.
 Defaulting to unpruned grid for atomic number  53.
 FoFCou: FMM=F IPFlag=           0 FMFlag=      100000 FMFlg1=           0
         NFxFlg=           0 DoJE=T BraDBF=F KetDBF=T FulRan=T
         Omega=  0.000000  0.000000  1.000000  0.000000  0.000000 ICntrl=     500 IOpCl=  0
         NMat0=    1 NMatS0=    1 NMatT0=    0 NMatD0=    1 NMtDS0=    0 NMtDT0=    0
         I1Cent=           4 NGrid=           0.
 Petite list used in FoFCou.
 Requested convergence on RMS density matrix=1.00D-08 within 128 cycles.
 Requested convergence on MAX density matrix=1.00D-06.
 Requested convergence on             energy=1.00D-06.
 No special actions if energy rises.
 Keep R1 ints in memory in canonical form, NReq=3412638.
 Defaulting to unpruned grid for atomic number  53.
 Defaulting to unpruned grid for atomic number  53.
 Defaulting to unpruned grid for atomic number  53.
 Defaulting to unpruned grid for atomic number  53.
 Error on total polarization charges =  0.08783
 SCF Done:  E(RM062X) =  -162.936699292     A.U. after   11 cycles
             Convg  =    0.3026D-08             -V/T =  2.0553
 SMD-CDS (non-electrostatic) energy             (kcal/mol) =       1.27
 (included in total energy above)
   1 Symmetry operations used in ECPInt.
 ECPInt:  NShTT=     171 NPrTT=    1054 LenC2=     172 LenP2D=     948.
 LDataN:  DoStor=T MaxTD1= 5 Len=  102
 D1PCM: PCM CHGder 1st derivatives, ID1Alg=3 FixD1E=F DoIter=F DoCFld=F I1PDM=0.
 Calling FoFJK, ICntrl=      2127 FMM=F ISym2X=0 I1Cent= 0 IOpClX= 0 NMat=1 NMatS=1 NMatT=0.
 Defaulting to unpruned grid for atomic number  53.
 Defaulting to unpruned grid for atomic number  53.
 Defaulting to unpruned grid for atomic number  53.
 Defaulting to unpruned grid for atomic number  53.
 ***** Axes restored to original set *****
 -------------------------------------------------------------------
 Center     Atomic                   Forces (Hartrees/Bohr)
 Number     Number              X              Y              Z
 -------------------------------------------------------------------
      1        8           0.041938671    0.002320658   -0.008571183
      2        1          -0.015787749   -0.001382410   -0.009569094
      3        8           0.058591707   -0.004203073   -0.007619990
      4        1           0.000548796    0.004387763    0.001271120
      5       53          -0.085291424   -0.001122938    0.024489147
 -------------------------------------------------------------------
 Cartesian Forces:  Max     0.085291424 RMS     0.030095325

 GradGradGradGradGradGradGradGradGradGradGradGradGradGradGradGradGradGrad
 Berny optimization.
 Internal  Forces:  Max     0.088343275 RMS     0.031431354
 Search for a saddle point.
 Step number   6 out of a maximum of   21
 All quantities printed in internal units (Hartrees-Bohrs-Radians)
 Swaping is turned off.
[...]

                          Input orientation:                          
 ---------------------------------------------------------------------
 Center     Atomic      Atomic             Coordinates (Angstroms)
 Number     Number       Type             X           Y           Z
 ---------------------------------------------------------------------
      1          8           0       -1.434988    0.715524    0.350866
      2          1           0       -1.422532    0.701195   -0.632268
      3          8           0        0.334288    0.712762    0.026598
      4          1           0        0.527566    1.665310    0.150079
      5         53           0       -3.534095    0.651866    0.977619
 ---------------------------------------------------------------------
                    Distance matrix (angstroms):
                    1          2          3          4          5
     1  O    0.000000
     2  H    0.983317   0.000000
     3  O    1.798748   1.876340   0.000000
     4  H    2.189527   2.311810   0.979772   0.000000
     5  I    2.191602   2.655723   3.984035   4.267198   0.000000
 Stoichiometry    H2IO2(1-)
 Framework group  C1[X(H2IO2)]
 Deg. of freedom     9
 Full point group                 C1      NOp   1
 Largest Abelian subgroup         C1      NOp   1
 Largest concise Abelian subgroup C1      NOp   1
                         Standard orientation:                         
 ---------------------------------------------------------------------
 Center     Atomic      Atomic             Coordinates (Angstroms)
 Number     Number       Type             X           Y           Z
 ---------------------------------------------------------------------
      1          8           0        1.401467    0.063004    0.005345
      2          1           0        1.663303    0.934296    0.378446
      3          8           0        3.193411   -0.030701   -0.119755
      4          1           0        3.386833   -0.578812    0.668988
      5         53           0       -0.788852   -0.011583   -0.002494
 ---------------------------------------------------------------------
 Rotational constants (GHZ):    240.9642531      1.7683846      1.7651289
 Standard basis: LANL2DZ (5D, 7F)
 There are    30 symmetry adapted basis functions of A   symmetry.
 Integral buffers will be    262144 words long.
 Raffenetti 2 integral format.
 Two-electron integral symmetry is turned on.
    30 basis functions,    70 primitive gaussians,    30 cartesian basis functions
    13 alpha electrons       13 beta electrons
       nuclear repulsion energy        55.0955782904 Hartrees.
 NAtoms=    5 NActive=    5 NUniq=    5 SFac= 7.50D-01 NAtFMM=   80 NAOKFM=F Big=F
 ------------------------------------------------------------------------------
 Polarizable Continuum Model (PCM)
 =================================
 Model                : PCM.
 Atomic radii         : SMD-Coulomb.
 Polarization charges : Total charges.
 Charge compensation  : None.
 Solution method      : Matrix inversion.
 Cavity type          : VdW (van der Waals Surface) (Alpha=1.000).
 Cavity algorithm     : GePol (No added spheres)
                        Default sphere list used, NSphG=    5.
                        Lebedev-Laikov grids with approx.  5.0 points / Ang**2.
                        Smoothing algorithm: Karplus/York (Gamma=1.0000).
                        Polarization charges: spherical gaussians, with
                                              point-specific exponents (IZeta= 3).
                        Self-potential: point-specific (ISelfS= 7).
                        Self-field    : sphere-specific E.n sum rule (ISelfD= 2).
 1st derivatives      : Analytical E(r).r(x)/FMM algorithm (CHGder, D1EAlg=3).
                        Cavity 1st derivative terms included.
 Solvent              : Water, Eps=  78.355300 Eps(inf)=   1.777849
 ------------------------------------------------------------------------------
 Spheres list:
 ISph  on   Nord    Re0     Alpha      Xe            Ye            Ze
    1   O      1    1.520   1.000      1.401467      0.063004      0.005345
    2   H      2    1.200   1.000      1.663303      0.934296      0.378446
    3   O      3    1.520   1.000      3.193411     -0.030701     -0.119755
    4   H      4    1.200   1.000      3.386833     -0.578812      0.668988
    5   I      5    1.980   1.000     -0.788852     -0.011583     -0.002494
 ------------------------------------------------------------------------------
 ------------------------------------------------------------------------------
 Atomic radii for non-electrostatic terms: SMD-CDS.
 ------------------------------------------------------------------------------
 Nuclear repulsion after PCM non-electrostatic terms =       55.0975627278 Hartrees.
 One-electron integrals computed using PRISM.
   1 Symmetry operations used in ECPInt.
 ECPInt:  NShTT=     171 NPrTT=    1054 LenC2=     172 LenP2D=     943.
 LDataN:  DoStor=T MaxTD1= 4 Len=   56
 NBasis=    30 RedAO= T  NBF=    30
 NBsUse=    30 1.00D-06 NBFU=    30
 Defaulting to unpruned grid for atomic number  53.
 Initial guess read from the read-write file.
 B after Tr=     0.000000    0.000000    0.000000
         Rot=    1.000000    0.000000    0.000000    0.000000 Ang=   0.00 deg.
 Initial guess orbital symmetries:
       Occupied  (A) (A) (A) (A) (A) (A) (A) (A) (A) (A) (A) (A)
                 (A)
       Virtual   (A) (A) (A) (A) (A) (A) (A) (A) (A) (A) (A) (A)
                 (A) (A) (A) (A) (A)
 Harris functional with IExCor= 1009 diagonalized for initial guess.
 ExpMin= 1.05D-01 ExpMax= 7.82D+03 ExpMxC= 2.73D+02 IAcc=1 IRadAn=         1 AccDes= 0.00D+00
 HarFok:  IExCor= 1009 AccDes= 0.00D+00 IRadAn=         1 IDoV= 1
 ScaDFX=  1.000000  1.000000  1.000000  1.000000
 Defaulting to unpruned grid for atomic number  53.
 Defaulting to unpruned grid for atomic number  53.
 Defaulting to unpruned grid for atomic number  53.
 Defaulting to unpruned grid for atomic number  53.
 FoFCou: FMM=F IPFlag=           0 FMFlag=      100000 FMFlg1=           0
         NFxFlg=           0 DoJE=T BraDBF=F KetDBF=T FulRan=T
         Omega=  0.000000  0.000000  1.000000  0.000000  0.000000 ICntrl=     500 IOpCl=  0
         NMat0=    1 NMatS0=    1 NMatT0=    0 NMatD0=    1 NMtDS0=    0 NMtDT0=    0
         I1Cent=           4 NGrid=           0.
 Petite list used in FoFCou.
 Requested convergence on RMS density matrix=1.00D-08 within 128 cycles.
 Requested convergence on MAX density matrix=1.00D-06.
 Requested convergence on             energy=1.00D-06.
 No special actions if energy rises.
 Keep R1 ints in memory in canonical form, NReq=3420137.
 Defaulting to unpruned grid for atomic number  53.
 Defaulting to unpruned grid for atomic number  53.
 Defaulting to unpruned grid for atomic number  53.
 Defaulting to unpruned grid for atomic number  53.
 Error on total polarization charges =  0.08517
 SCF Done:  E(RM062X) =  -162.961025990     A.U. after   11 cycles
             Convg  =    0.7623D-08             -V/T =  2.0570
 SMD-CDS (non-electrostatic) energy             (kcal/mol) =       1.25
 (included in total energy above)
   1 Symmetry operations used in ECPInt.
 ECPInt:  NShTT=     171 NPrTT=    1054 LenC2=     172 LenP2D=     943.
 LDataN:  DoStor=T MaxTD1= 5 Len=  102
 D1PCM: PCM CHGder 1st derivatives, ID1Alg=3 FixD1E=F DoIter=F DoCFld=F I1PDM=0.
 Calling FoFJK, ICntrl=      2127 FMM=F ISym2X=0 I1Cent= 0 IOpClX= 0 NMat=1 NMatS=1 NMatT=0.
 Defaulting to unpruned grid for atomic number  53.
 Defaulting to unpruned grid for atomic number  53.
 Defaulting to unpruned grid for atomic number  53.
 Defaulting to unpruned grid for atomic number  53.
 ***** Axes restored to original set *****
 -------------------------------------------------------------------
 Center     Atomic                   Forces (Hartrees/Bohr)
 Number     Number              X              Y              Z
 -------------------------------------------------------------------
      1        8           0.023416551    0.001739034    0.002034492
      2        1          -0.010215988   -0.001143363   -0.004271661
      3        8           0.030416451   -0.001775570   -0.006676966
      4        1          -0.000106312    0.002065013    0.001335461
      5       53          -0.043510701   -0.000885114    0.007578674
 -------------------------------------------------------------------
 Cartesian Forces:  Max     0.043510701 RMS     0.015512949

 GradGradGradGradGradGradGradGradGradGradGradGradGradGradGradGradGradGrad
 Berny optimization.
 Internal  Forces:  Max     0.043853579 RMS     0.015856781
 Search for a saddle point.
 Step number  21 out of a maximum of   21
 All quantities printed in internal units (Hartrees-Bohrs-Radians)
 Swaping is turned off.
 Update second derivatives using D2CorX and points   10   11   12   13   14
                                                     15   16   17   18   19
                                                     20   21
 The second derivative matrix:
                          R1        R2        R3        R4        R5
           R1           0.50435
           R2          -0.02360   0.05141
           R3          -0.03807   0.04671   0.23112
           R4           0.08545   0.04056  -0.07965   0.08670
           R5           0.00228  -0.00614  -0.00566  -0.00143   0.56777
           A1          -0.01503   0.00068  -0.06566   0.01965   0.00180
           A2          -0.00737   0.00221   0.09103  -0.05039  -0.00371
           A3           0.02234  -0.00235  -0.02481   0.03141   0.00199
           A4          -0.00312   0.00812   0.01556  -0.00082  -0.01510
           D1           0.00222  -0.00071  -0.00656   0.00095   0.00270
           D2           0.00010   0.00331   0.00684   0.00157   0.00109
                          A1        A2        A3        A4        D1
           A1           0.01226
           A2          -0.02941   0.09363
           A3           0.01707  -0.06413   0.04736
           A4          -0.00428   0.01080  -0.00648   0.06325
           D1           0.00147  -0.00606   0.00192   0.00492   0.01415
           D2          -0.00075   0.00694  -0.00295   0.00401  -0.00212
                          D2
           D2           0.00289
     Eigenvalues ---   -0.02178   0.00182   0.01359   0.05766   0.07565
     Eigenvalues ---    0.11652   0.32680   0.53690   0.569081000.00000
     Eigenvalues --- 1000.00000
 Eigenvectors required to have negative eigenvalues:
                          R2        A1        R4        R3        A3
   1                    0.50648  -0.50368  -0.43297  -0.38327   0.35040
                          A2        D2        R1        D1        A4
   1                    0.17035   0.04290   0.03849  -0.01741  -0.00198
 RFO step:  Lambda0=7.123908692D-04 Lambda=-1.74392408D-02.
 Linear search not attempted -- option 19 set.
 Maximum step size (   0.030) exceeded in Quadratic search.
    -- Step size scaled by   0.075
 Iteration  1 RMS(Cart)=  0.01138280 RMS(Int)=  0.00048043
 Iteration  2 RMS(Cart)=  0.00013583 RMS(Int)=  0.00000522
 Iteration  3 RMS(Cart)=  0.00000025 RMS(Int)=  0.00000522
 Variable       Old X    -DE/DX   Delta X   Delta X   Delta X     New X
                                 (Linear)    (Quad)   (Total)
    R1        1.85820   0.00070   0.00000   0.00059   0.00059   1.85879
    R2        3.39914   0.02220   0.00000   0.01891   0.01892   3.41806
    R3        4.14153   0.04385   0.00000   0.01169   0.01169   4.15321
    R4        3.54577   0.01008   0.00000   0.00110   0.00110   3.54687
    R5        1.85150   0.00210   0.00000   0.00040   0.00040   1.85190
    A1        1.37686  -0.00526   0.00000  -0.00876  -0.00875   1.36811
    A2        1.87301  -0.00700   0.00000  -0.00638  -0.00638   1.86663
    A3        3.02850   0.01276   0.00000   0.01560   0.01560   3.04411
    A4        1.74145  -0.00124   0.00000  -0.00376  -0.00376   1.73768
    D1        1.74794   0.00157   0.00000   0.00501   0.00501   1.75295
    D2       -1.68255  -0.00021   0.00000  -0.00198  -0.00198  -1.68452
         Item               Value     Threshold  Converged?
 Maximum Force            0.043854     0.000450     NO 
 RMS     Force            0.015857     0.000300     NO 
 Maximum Displacement     0.019756     0.001800     NO 
 RMS     Displacement     0.011470     0.001200     NO 
 Predicted change in Energy=-1.207169D-03
 Optimization stopped.
    -- Number of steps exceeded,  NStep=  21
    -- Flag reset to prevent archiving.
                           ----------------------------
                           ! Non-Optimized Parameters !
                           ! (Angstroms and Degrees)  !
 --------------------------                            --------------------------
 ! Name  Definition              Value          Derivative Info.                !
 --------------------------------------------------------------------------------
 ! R1    R(1,2)                  0.9836         -DE/DX =    0.0007              !
 ! R2    R(1,3)                  1.8088         -DE/DX =    0.0222              !
 ! R3    R(1,5)                  2.1978         -DE/DX =    0.0439              !
 ! R4    R(2,3)                  1.8769         -DE/DX =    0.0101              !
 ! R5    R(3,4)                  0.98           -DE/DX =    0.0021              !
 ! A1    A(2,1,3)               78.3869         -DE/DX =   -0.0053              !
 ! A2    A(2,1,5)              106.9503         -DE/DX =   -0.007               !
 ! A3    A(3,1,5)              174.4145         -DE/DX =    0.0128              !
 ! A4    A(1,3,4)               99.5619         -DE/DX =   -0.0012              !
 ! D1    D(2,1,3,4)            100.4365         -DE/DX =    0.0016              !
 ! D2    D(5,1,3,4)            -96.516          -DE/DX =   -0.0002              !
 --------------------------------------------------------------------------------
 GradGradGradGradGradGradGradGradGradGradGradGradGradGradGradGradGradGrad

                          Input orientation:                          
 ---------------------------------------------------------------------
 Center     Atomic      Atomic             Coordinates (Angstroms)
 Number     Number       Type             X           Y           Z
 ---------------------------------------------------------------------
      1          8           0       -1.434988    0.715524    0.350866
      2          1           0       -1.422532    0.701195   -0.632268
      3          8           0        0.334288    0.712762    0.026598
      4          1           0        0.527566    1.665310    0.150079
      5         53           0       -3.534095    0.651866    0.977619
 ---------------------------------------------------------------------
                    Distance matrix (angstroms):
                    1          2          3          4          5
     1  O    0.000000
     2  H    0.983317   0.000000
     3  O    1.798748   1.876340   0.000000
     4  H    2.189527   2.311810   0.979772   0.000000
     5  I    2.191602   2.655723   3.984035   4.267198   0.000000
 Stoichiometry    H2IO2(1-)
 Framework group  C1[X(H2IO2)]
 Deg. of freedom     9
 Full point group                 C1      NOp   1
 Largest Abelian subgroup         C1      NOp   1
 Largest concise Abelian subgroup C1      NOp   1
                         Standard orientation:                         
 ---------------------------------------------------------------------
 Center     Atomic      Atomic             Coordinates (Angstroms)
 Number     Number       Type             X           Y           Z
 ---------------------------------------------------------------------
      1          8           0        1.401467    0.063004    0.005345
      2          1           0        1.663303    0.934296    0.378446
      3          8           0        3.193411   -0.030701   -0.119755
      4          1           0        3.386833   -0.578812    0.668988
      5         53           0       -0.788852   -0.011583   -0.002494
 ---------------------------------------------------------------------
 Rotational constants (GHZ):    240.9642531      1.7683846      1.7651289

 **********************************************************************

            Population analysis using the SCF density.

 **********************************************************************

 Orbital symmetries:
       Occupied  (A) (A) (A) (A) (A) (A) (A) (A) (A) (A) (A) (A)
                 (A)
       Virtual   (A) (A) (A) (A) (A) (A) (A) (A) (A) (A) (A) (A)
                 (A) (A) (A) (A) (A)
 The electronic state is 1-A.
 Alpha  occ. eigenvalues --  -19.67469 -19.58554  -1.12746  -1.00224  -0.68950
 Alpha  occ. eigenvalues --   -0.53310  -0.48615  -0.44007  -0.39194  -0.33063
 Alpha  occ. eigenvalues --   -0.27905  -0.27148  -0.23729
 Alpha virt. eigenvalues --   -0.00475   0.16597   0.21780   0.42758   0.44556
 Alpha virt. eigenvalues --    0.44984   0.68388   0.71912   0.76589   0.78328
 Alpha virt. eigenvalues --    0.84862   0.97703   1.03096   1.11376   1.43333
 Alpha virt. eigenvalues --    1.77206   9.40971
          Condensed to atoms (all electrons):
              1          2          3          4          5
     1  O    8.591730   0.253600  -0.084866  -0.009066  -0.139830
     2  H    0.253600   0.305745  -0.008039  -0.001684  -0.013836
     3  O   -0.084866  -0.008039   8.637515   0.262951   0.038748
     4  H   -0.009066  -0.001684   0.262951   0.372276  -0.001760
     5  I   -0.139830  -0.013836   0.038748  -0.001760   7.500297
 Mulliken atomic charges:
              1
     1  O   -0.611568
     2  H    0.464214
     3  O   -0.846311
     4  H    0.377283
     5  I   -0.383619
 Sum of Mulliken atomic charges =  -1.00000
 Mulliken charges with hydrogens summed into heavy atoms:
              1
     1  O   -0.147353
     3  O   -0.469028
     5  I   -0.383619
 Sum of Mulliken charges with hydrogens summed into heavy atoms =  -1.00000
 Electronic spatial extent (au):  <R**2>=            515.8907
 Charge=             -1.0000 electrons
 Dipole moment (field-independent basis, Debye):
    X=             -4.5081    Y=              0.9802    Z=              3.0214  Tot=              5.5148
 Quadrupole moment (field-independent basis, Debye-Ang):
   XX=            -58.2929   YY=            -33.8924   ZZ=            -35.6813
   XY=             -0.3647   XZ=              8.7352   YZ=             -0.0375
 Traceless Quadrupole moment (field-independent basis, Debye-Ang):
   XX=            -15.6707   YY=              8.7298   ZZ=              6.9409
   XY=             -0.3647   XZ=              8.7352   YZ=             -0.0375
 Octapole moment (field-independent basis, Debye-Ang**2):
  XXX=           -110.2138  YYY=              1.5244  ZZZ=              2.1138  XYY=             -7.5853
  XXY=             -8.4396  XXZ=             27.0512  XZZ=             -9.9135  YZZ=             -0.0962
  YYZ=              1.7045  XYZ=             -1.9454
 Hexadecapole moment (field-independent basis, Debye-Ang**3):
 XXXX=           -855.8730 YYYY=            -55.1602 ZZZZ=            -56.2997 XXXY=            -37.1909
 XXXZ=             90.9598 YYYX=              2.3881 YYYZ=              0.4671 ZZZX=              6.8677
 ZZZY=             -0.3025 XXYY=           -106.3192 XXZZ=           -108.5772 YYZZ=            -18.3859
 XXYZ=             -9.1701 YYXZ=              4.4082 ZZXY=             -0.7001
 N-N= 5.509756272782D+01 E-N=-4.970548995539D+02  KE= 1.541688680443D+02


 TO SEE A WORLD IN A GRAIN OF SAND
 AND A HEAVEN IN A WILD FLOWER
 HOLD INFINITY IN THE PALM OF YOUR HAND
 AND ETERNITY IN AN HOUR

                       -- WILLIAM BLAKE
 Error termination request processed by link 9999.
 Error termination via Lnk1e in C:\G09W\l9999.exe at Tue Feb 02 02:53:25 2021.
 Job cpu time:  0 days  0 hours  1 minutes 50.0 seconds.
 File lengths (MBytes):  RWF=     17 Int=      0 D2E=      0 Chk=      2 Scr=      1
