 Entering Link 1 = C:\G09W\l1.exe PID=      3172.
  
 Copyright (c) 1988,1990,1992,1993,1995,1998,2003,2009, Gaussian, Inc.
                  All Rights Reserved.
  
 This is part of the Gaussian(R) 09 program.  It is based on
 the Gaussian(R) 03 system (copyright 2003, Gaussian, Inc.),
 the Gaussian(R) 98 system (copyright 1998, Gaussian, Inc.),
 the Gaussian(R) 94 system (copyright 1995, Gaussian, Inc.),
 the Gaussian 92(TM) system (copyright 1992, Gaussian, Inc.),
 the Gaussian 90(TM) system (copyright 1990, Gaussian, Inc.),
 the Gaussian 88(TM) system (copyright 1988, Gaussian, Inc.),
 the Gaussian 86(TM) system (copyright 1986, Carnegie Mellon
 University), and the Gaussian 82(TM) system (copyright 1983,
 Carnegie Mellon University). Gaussian is a federally registered
 trademark of Gaussian, Inc.
  
 This software contains proprietary and confidential information,
 including trade secrets, belonging to Gaussian, Inc.
  
 This software is provided under written license and may be
 used, copied, transmitted, or stored only in accord with that
 written license.
  
 The following legend is applicable only to US Government
 contracts under FAR:
  
                    RESTRICTED RIGHTS LEGEND
  
 Use, reproduction and disclosure by the US Government is
 subject to restrictions as set forth in subparagraphs (a)
 and (c) of the Commercial Computer Software - Restricted
 Rights clause in FAR 52.227-19.
  
 Gaussian, Inc.
 340 Quinnipiac St., Bldg. 40, Wallingford CT 06492
  
  
 ---------------------------------------------------------------
 Warning -- This program may not be used in any manner that
 competes with the business of Gaussian, Inc. or will provide
 assistance to any competitor of Gaussian, Inc.  The licensee
 of this program is prohibited from giving any competitor of
 Gaussian, Inc. access to this program.  By using this program,
 the user acknowledges that Gaussian, Inc. is engaged in the
 business of creating and licensing software in the field of
 computational chemistry and represents and warrants to the
 licensee that it is not a competitor of Gaussian, Inc. and that
 it will not use this program in any manner prohibited above.
 ---------------------------------------------------------------
  

 Cite this work as:
 Gaussian 09, Revision A.02,
 M. J. Frisch, G. W. Trucks, H. B. Schlegel, G. E. Scuseria, 
 M. A. Robb, J. R. Cheeseman, G. Scalmani, V. Barone, B. Mennucci, 
 G. A. Petersson, H. Nakatsuji, M. Caricato, X. Li, H. P. Hratchian, 
 A. F. Izmaylov, J. Bloino, G. Zheng, J. L. Sonnenberg, M. Hada, 
 M. Ehara, K. Toyota, R. Fukuda, J. Hasegawa, M. Ishida, T. Nakajima, 
 Y. Honda, O. Kitao, H. Nakai, T. Vreven, J. A. Montgomery, Jr., 
 J. E. Peralta, F. Ogliaro, M. Bearpark, J. J. Heyd, E. Brothers, 
 K. N. Kudin, V. N. Staroverov, R. Kobayashi, J. Normand, 
 K. Raghavachari, A. Rendell, J. C. Burant, S. S. Iyengar, J. Tomasi, 
 M. Cossi, N. Rega, J. M. Millam, M. Klene, J. E. Knox, J. B. Cross, 
 V. Bakken, C. Adamo, J. Jaramillo, R. Gomperts, R. E. Stratmann, 
 O. Yazyev, A. J. Austin, R. Cammi, C. Pomelli, J. W. Ochterski, 
 R. L. Martin, K. Morokuma, V. G. Zakrzewski, G. A. Voth, 
 P. Salvador, J. J. Dannenberg, S. Dapprich, A. D. Daniels, 
 O. Farkas, J. B. Foresman, J. V. Ortiz, J. Cioslowski, 
 and D. J. Fox, Gaussian, Inc., Wallingford CT, 2009.
 
 ******************************************
 Gaussian 09:  IA32W-G09RevA.02 11-Jun-2009
                02-Feb-2021 
 ******************************************
 %chk=D:\Documents\rayGit\FQ\quimicaComputacional\proyecto\decompositionHydrogenP
 eroxide\decompositionCatalyzedByIodine\step1\ts\ts.chk
 %mem=1500MB
 %nprocshared=4
 Will use up to    4 processors via shared memory.
 ----------------------------------------------------------------------
 # opt=(readfc,ts,noeigen) geom=check guess=check freq=noraman lanl2dz 
 scrf=smd iop(1/8=3) m062x
 ----------------------------------------------------------------------
 1/5=1,8=3,10=3,11=1,14=-1,18=20,26=3,29=2,38=1/1,3;
 2/9=110,12=2,40=1/2;
 3/5=6,6=3,11=2,14=-4,16=1,25=1,30=1,70=32201,71=1,72=1,74=-55,116=-2/1,2,3;
 4/5=1/1;
 5/5=2,38=6/2;
 6/7=2,8=2,9=2,10=2,28=1/1;
 7//1,2,3,16;
 1/5=1,8=3,11=1,14=-1,18=20/3(2);
 2/9=110/2;
 99//99;
 2/9=110/2;
 3/5=6,6=3,11=2,14=-2,16=1,25=1,30=1,70=32205,71=1,74=-55/1,2,3;
 4/5=5,16=3/1;
 5/5=2,38=5/2;
 7//1,2,3,16;
 1/5=1,8=3,11=1,14=-1,18=20/3(-5);
 2/9=110/2;
 6/7=2,8=2,9=2,10=2,19=2,28=1/1;
 99/9=1/99;
 -------------------------------
 Hydrogen peroxide with iodine 4
 -------------------------------
 Redundant internal coordinates taken from checkpoint file:
 D:\Documents\rayGit\FQ\quimicaComputacional\proyecto\decompositionHydrogenPeroxide\decompositionCatalyzedByIodine\step1\ts\ts.chk
 Charge = -1 Multiplicity = 1
 O,0,-1.4349881345,0.7155239757,0.3508662754
 H,0,-1.4225317212,0.7011948132,-0.6322677209
 O,0,0.3342879285,0.712761875,0.026598382
 H,0,0.5275659714,1.6653103445,0.1500792422
 I,0,-3.5340947141,0.6518657216,0.9776189014
 Recover connectivity data from disk.

 GradGradGradGradGradGradGradGradGradGradGradGradGradGradGradGradGradGrad
 Berny optimization.
 Initialization pass.
 Force constant matrix read from checkpoint file:
 D:\Documents\rayGit\FQ\quimicaComputacional\proyecto\decompositionHydrogenPeroxi
 de\decompositionCatalyzedByIodine\step1\ts\ts.chk
                           ----------------------------
                           !    Initial Parameters    !
                           ! (Angstroms and Degrees)  !
 --------------------------                            --------------------------
 ! Name  Definition              Value          Derivative Info.                !
 --------------------------------------------------------------------------------
 ! R1    R(1,2)                  0.9833         D2E/DX2 =    0.5044             !
 ! R2    R(1,3)                  1.7987         D2E/DX2 =    0.0514             !
 ! R3    R(1,5)                  2.1916         D2E/DX2 =    0.2311             !
 ! R4    R(2,3)                  1.8763         D2E/DX2 =    0.0867             !
 ! R5    R(3,4)                  0.9798         D2E/DX2 =    0.5678             !
 ! A1    A(2,1,3)               78.8883         D2E/DX2 =    0.0123             !
 ! A2    A(2,1,5)              107.3157         D2E/DX2 =    0.0936             !
 ! A3    A(3,1,5)              173.5205         D2E/DX2 =    0.0474             !
 ! A4    A(1,3,4)               99.7775         D2E/DX2 =    0.0632             !
 ! D1    D(2,1,3,4)            100.1496         D2E/DX2 =    0.0142             !
 ! D2    D(5,1,3,4)            -96.4028         D2E/DX2 =    0.0029             !
 --------------------------------------------------------------------------------
 Trust Radius=3.00D-02 FncErr=1.00D-07 GrdErr=1.00D-06
 Number of steps in this run=  21 maximum allowed number of steps= 100.
 Search for a saddle point of order  1.
 GradGradGradGradGradGradGradGradGradGradGradGradGradGradGradGradGradGrad

                          Input orientation:                          
 ---------------------------------------------------------------------
 Center     Atomic      Atomic             Coordinates (Angstroms)
 Number     Number       Type             X           Y           Z
 ---------------------------------------------------------------------
      1          8           0       -1.434988    0.715524    0.350866
      2          1           0       -1.422532    0.701195   -0.632268
      3          8           0        0.334288    0.712762    0.026598
      4          1           0        0.527566    1.665310    0.150079
      5         53           0       -3.534095    0.651866    0.977619
 ---------------------------------------------------------------------
                    Distance matrix (angstroms):
                    1          2          3          4          5
     1  O    0.000000
     2  H    0.983317   0.000000
     3  O    1.798748   1.876340   0.000000
     4  H    2.189527   2.311810   0.979772   0.000000
     5  I    2.191602   2.655723   3.984035   4.267198   0.000000
 Stoichiometry    H2IO2(1-)
 Framework group  C1[X(H2IO2)]
 Deg. of freedom     9
 Full point group                 C1      NOp   1
 Largest Abelian subgroup         C1      NOp   1
 Largest concise Abelian subgroup C1      NOp   1
                         Standard orientation:                         
 ---------------------------------------------------------------------
 Center     Atomic      Atomic             Coordinates (Angstroms)
 Number     Number       Type             X           Y           Z
 ---------------------------------------------------------------------
      1          8           0        1.401467    0.063004    0.005345
      2          1           0        1.663303    0.934296    0.378446
      3          8           0        3.193411   -0.030701   -0.119755
      4          1           0        3.386833   -0.578812    0.668988
      5         53           0       -0.788852   -0.011583   -0.002494
 ---------------------------------------------------------------------
 Rotational constants (GHZ):    240.9642531      1.7683846      1.7651289
 Standard basis: LANL2DZ (5D, 7F)
 There are    30 symmetry adapted basis functions of A   symmetry.
 Integral buffers will be    262144 words long.
 Raffenetti 2 integral format.
 Two-electron integral symmetry is turned on.
    30 basis functions,    70 primitive gaussians,    30 cartesian basis functions
    13 alpha electrons       13 beta electrons
       nuclear repulsion energy        55.0955782904 Hartrees.
 NAtoms=    5 NActive=    5 NUniq=    5 SFac= 7.50D-01 NAtFMM=   80 NAOKFM=F Big=F
 ------------------------------------------------------------------------------
 Polarizable Continuum Model (PCM)
 =================================
 Model                : PCM.
 Atomic radii         : SMD-Coulomb.
 Polarization charges : Total charges.
 Charge compensation  : None.
 Solution method      : Matrix inversion.
 Cavity type          : VdW (van der Waals Surface) (Alpha=1.000).
 Cavity algorithm     : GePol (No added spheres)
                        Default sphere list used, NSphG=    5.
                        Lebedev-Laikov grids with approx.  5.0 points / Ang**2.
                        Smoothing algorithm: Karplus/York (Gamma=1.0000).
                        Polarization charges: spherical gaussians, with
                                              point-specific exponents (IZeta= 3).
                        Self-potential: point-specific (ISelfS= 7).
                        Self-field    : sphere-specific E.n sum rule (ISelfD= 2).
 1st derivatives      : Analytical E(r).r(x)/FMM algorithm (CHGder, D1EAlg=3).
                        Cavity 1st derivative terms included.
 Solvent              : Water, Eps=  78.355300 Eps(inf)=   1.777849
 ------------------------------------------------------------------------------
 Spheres list:
 ISph  on   Nord    Re0     Alpha      Xe            Ye            Ze
    1   O      1    1.520   1.000      1.401467      0.063004      0.005345
    2   H      2    1.200   1.000      1.663303      0.934296      0.378446
    3   O      3    1.520   1.000      3.193411     -0.030701     -0.119755
    4   H      4    1.200   1.000      3.386833     -0.578812      0.668988
    5   I      5    1.980   1.000     -0.788852     -0.011583     -0.002494
 ------------------------------------------------------------------------------
 ------------------------------------------------------------------------------
 Atomic radii for non-electrostatic terms: SMD-CDS.
 ------------------------------------------------------------------------------
 Nuclear repulsion after PCM non-electrostatic terms =       55.0975627278 Hartrees.
 One-electron integrals computed using PRISM.
   1 Symmetry operations used in ECPInt.
 ECPInt:  NShTT=     171 NPrTT=    1054 LenC2=     172 LenP2D=     943.
 LDataN:  DoStor=T MaxTD1= 4 Len=   56
 NBasis=    30 RedAO= T  NBF=    30
 NBsUse=    30 1.00D-06 NBFU=    30
 Defaulting to unpruned grid for atomic number  53.
 Initial guess read from the checkpoint file:  D:\Documents\rayGit\FQ\quimicaComp
 utacional\proyecto\decompositionHydrogenPeroxide\decompositionCatalyzedByIodine\
 step1\ts\ts.chk
 B after Tr=     0.000000    0.000000    0.000000
         Rot=    1.000000    0.000000    0.000000    0.000000 Ang=   0.00 deg.
 Initial guess orbital symmetries:
       Occupied  (A) (A) (A) (A) (A) (A) (A) (A) (A) (A) (A) (A)
                 (A)
       Virtual   (A) (A) (A) (A) (A) (A) (A) (A) (A) (A) (A) (A)
                 (A) (A) (A) (A) (A)
 Requested convergence on RMS density matrix=1.00D-08 within 128 cycles.
 Requested convergence on MAX density matrix=1.00D-06.
 Requested convergence on             energy=1.00D-06.
 No special actions if energy rises.
 Keep R1 ints in memory in canonical form, NReq=3420137.
 Defaulting to unpruned grid for atomic number  53.
 Defaulting to unpruned grid for atomic number  53.
 Defaulting to unpruned grid for atomic number  53.
 Defaulting to unpruned grid for atomic number  53.
 Error on total polarization charges =  0.08517
 SCF Done:  E(RM062X) =  -162.961025990     A.U. after    1 cycles
             Convg  =    0.6667D-09             -V/T =  2.0570
 SMD-CDS (non-electrostatic) energy             (kcal/mol) =       1.25
 (included in total energy above)

 **********************************************************************

            Population analysis using the SCF density.

 **********************************************************************

 Orbital symmetries:
       Occupied  (A) (A) (A) (A) (A) (A) (A) (A) (A) (A) (A) (A)
                 (A)
       Virtual   (A) (A) (A) (A) (A) (A) (A) (A) (A) (A) (A) (A)
                 (A) (A) (A) (A) (A)
 The electronic state is 1-A.
 Alpha  occ. eigenvalues --  -19.67469 -19.58554  -1.12746  -1.00224  -0.68950
 Alpha  occ. eigenvalues --   -0.53310  -0.48615  -0.44007  -0.39194  -0.33063
 Alpha  occ. eigenvalues --   -0.27905  -0.27148  -0.23729
 Alpha virt. eigenvalues --   -0.00475   0.16597   0.21780   0.42758   0.44556
 Alpha virt. eigenvalues --    0.44984   0.68388   0.71912   0.76589   0.78328
 Alpha virt. eigenvalues --    0.84862   0.97703   1.03096   1.11376   1.43333
 Alpha virt. eigenvalues --    1.77206   9.40971
          Condensed to atoms (all electrons):
              1          2          3          4          5
     1  O    8.591730   0.253600  -0.084866  -0.009066  -0.139830
     2  H    0.253600   0.305745  -0.008039  -0.001684  -0.013836
     3  O   -0.084866  -0.008039   8.637515   0.262951   0.038748
     4  H   -0.009066  -0.001684   0.262951   0.372276  -0.001760
     5  I   -0.139830  -0.013836   0.038748  -0.001760   7.500297
 Mulliken atomic charges:
              1
     1  O   -0.611568
     2  H    0.464214
     3  O   -0.846311
     4  H    0.377283
     5  I   -0.383619
 Sum of Mulliken atomic charges =  -1.00000
 Mulliken charges with hydrogens summed into heavy atoms:
              1
     1  O   -0.147353
     3  O   -0.469028
     5  I   -0.383619
 Sum of Mulliken charges with hydrogens summed into heavy atoms =  -1.00000
 Electronic spatial extent (au):  <R**2>=            515.8907
 Charge=             -1.0000 electrons
 Dipole moment (field-independent basis, Debye):
    X=             -4.5081    Y=              0.9802    Z=              3.0214  Tot=              5.5148
 Quadrupole moment (field-independent basis, Debye-Ang):
   XX=            -58.2929   YY=            -33.8924   ZZ=            -35.6813
   XY=             -0.3647   XZ=              8.7352   YZ=             -0.0375
 Traceless Quadrupole moment (field-independent basis, Debye-Ang):
   XX=            -15.6707   YY=              8.7298   ZZ=              6.9409
   XY=             -0.3647   XZ=              8.7352   YZ=             -0.0375
 Octapole moment (field-independent basis, Debye-Ang**2):
  XXX=           -110.2138  YYY=              1.5244  ZZZ=              2.1138  XYY=             -7.5853
  XXY=             -8.4396  XXZ=             27.0512  XZZ=             -9.9135  YZZ=             -0.0962
  YYZ=              1.7045  XYZ=             -1.9454
 Hexadecapole moment (field-independent basis, Debye-Ang**3):
 XXXX=           -855.8730 YYYY=            -55.1602 ZZZZ=            -56.2997 XXXY=            -37.1909
 XXXZ=             90.9598 YYYX=              2.3881 YYYZ=              0.4671 ZZZX=              6.8677
 ZZZY=             -0.3025 XXYY=           -106.3192 XXZZ=           -108.5772 YYZZ=            -18.3859
 XXYZ=             -9.1701 YYXZ=              4.4082 ZZXY=             -0.7001
 N-N= 5.509756272782D+01 E-N=-4.970548997106D+02  KE= 1.541688681224D+02
   1 Symmetry operations used in ECPInt.
 ECPInt:  NShTT=     171 NPrTT=    1054 LenC2=     172 LenP2D=     943.
 LDataN:  DoStor=T MaxTD1= 5 Len=  102
 D1PCM: PCM CHGder 1st derivatives, ID1Alg=3 FixD1E=F DoIter=F DoCFld=F I1PDM=0.
 Calling FoFJK, ICntrl=      2127 FMM=F ISym2X=0 I1Cent= 0 IOpClX= 0 NMat=1 NMatS=1 NMatT=0.
 Defaulting to unpruned grid for atomic number  53.
 Defaulting to unpruned grid for atomic number  53.
 Defaulting to unpruned grid for atomic number  53.
 Defaulting to unpruned grid for atomic number  53.
 ***** Axes restored to original set *****
 -------------------------------------------------------------------
 Center     Atomic                   Forces (Hartrees/Bohr)
 Number     Number              X              Y              Z
 -------------------------------------------------------------------
      1        8           0.023416552    0.001739035    0.002034493
      2        1          -0.010215989   -0.001143364   -0.004271662
      3        8           0.030416451   -0.001775570   -0.006676966
      4        1          -0.000106312    0.002065013    0.001335461
      5       53          -0.043510701   -0.000885114    0.007578674
 -------------------------------------------------------------------
 Cartesian Forces:  Max     0.043510701 RMS     0.015512949

 GradGradGradGradGradGradGradGradGradGradGradGradGradGradGradGradGradGrad
 Berny optimization.
 Internal  Forces:  Max     0.043853579 RMS     0.015856781
 Search for a saddle point.
 Step number   1 out of a maximum of   21
 All quantities printed in internal units (Hartrees-Bohrs-Radians)
 Swaping is turned off.
 Second derivative matrix not updated -- first step.
 The second derivative matrix:
                          R1        R2        R3        R4        R5
           R1           0.50435
           R2          -0.02360   0.05141
           R3          -0.03807   0.04671   0.23112
           R4           0.08545   0.04056  -0.07965   0.08670
           R5           0.00228  -0.00614  -0.00566  -0.00143   0.56777
           A1          -0.01503   0.00068  -0.06566   0.01965   0.00180
           A2          -0.00737   0.00221   0.09103  -0.05039  -0.00371
           A3           0.02234  -0.00235  -0.02481   0.03141   0.00199
           A4          -0.00312   0.00812   0.01556  -0.00082  -0.01510
           D1           0.00222  -0.00071  -0.00656   0.00095   0.00270
           D2           0.00010   0.00331   0.00684   0.00157   0.00109
                          A1        A2        A3        A4        D1
           A1           0.01226
           A2          -0.02941   0.09363
           A3           0.01707  -0.06413   0.04736
           A4          -0.00428   0.01080  -0.00648   0.06325
           D1           0.00147  -0.00606   0.00192   0.00492   0.01415
           D2          -0.00075   0.00694  -0.00295   0.00401  -0.00212
                          D2
           D2           0.00289
     Eigenvalues ---   -0.02178   0.00182   0.01359   0.05766   0.07565
     Eigenvalues ---    0.11652   0.32680   0.53690   0.569081000.00000
     Eigenvalues --- 1000.00000
 Eigenvectors required to have negative eigenvalues:
                          R2        A1        R4        R3        A3
   1                    0.50648  -0.50368  -0.43297  -0.38327   0.35040
                          A2        D2        R1        D1        A4
   1                    0.17035   0.04290   0.03849  -0.01741  -0.00198
 RFO step:  Lambda0=7.123908675D-04 Lambda=-1.74392410D-02.
 Linear search not attempted -- option 19 set.
 Maximum step size (   0.030) exceeded in Quadratic search.
    -- Step size scaled by   0.075
 Iteration  1 RMS(Cart)=  0.01138280 RMS(Int)=  0.00048043
 Iteration  2 RMS(Cart)=  0.00013583 RMS(Int)=  0.00000522
 Iteration  3 RMS(Cart)=  0.00000025 RMS(Int)=  0.00000522
 Variable       Old X    -DE/DX   Delta X   Delta X   Delta X     New X
                                 (Linear)    (Quad)   (Total)
    R1        1.85820   0.00070   0.00000   0.00059   0.00059   1.85879
    R2        3.39914   0.02220   0.00000   0.01891   0.01892   3.41806
    R3        4.14153   0.04385   0.00000   0.01169   0.01169   4.15321
    R4        3.54577   0.01008   0.00000   0.00110   0.00110   3.54687
    R5        1.85150   0.00210   0.00000   0.00040   0.00040   1.85190
    A1        1.37686  -0.00526   0.00000  -0.00876  -0.00875   1.36811
    A2        1.87301  -0.00700   0.00000  -0.00638  -0.00638   1.86663
    A3        3.02850   0.01276   0.00000   0.01560   0.01560   3.04411
    A4        1.74145  -0.00124   0.00000  -0.00376  -0.00376   1.73768
    D1        1.74794   0.00157   0.00000   0.00501   0.00501   1.75295
    D2       -1.68255  -0.00021   0.00000  -0.00198  -0.00198  -1.68452
         Item               Value     Threshold  Converged?
 Maximum Force            0.043854     0.000450     NO 
 RMS     Force            0.015857     0.000300     NO 
 Maximum Displacement     0.019756     0.001800     NO 
 RMS     Displacement     0.011470     0.001200     NO 
 Predicted change in Energy=-1.207169D-03
 GradGradGradGradGradGradGradGradGradGradGradGradGradGradGradGradGradGrad

                          Input orientation:                          
 ---------------------------------------------------------------------
 Center     Atomic      Atomic             Coordinates (Angstroms)
 Number     Number       Type             X           Y           Z
 ---------------------------------------------------------------------
      1          8           0       -1.435217    0.712875    0.358769
      2          1           0       -1.422477    0.702017   -0.624719
      3          8           0        0.341076    0.713862    0.017606
      4          1           0        0.531407    1.666261    0.148277
      5         53           0       -3.544549    0.651641    0.972962
 ---------------------------------------------------------------------
                    Distance matrix (angstroms):
                    1          2          3          4          5
     1  O    0.000000
     2  H    0.983630   0.000000
     3  O    1.808759   1.876923   0.000000
     4  H    2.195646   2.311916   0.979982   0.000000
     5  I    2.197786   2.656748   4.001831   4.280534   0.000000
 Stoichiometry    H2IO2(1-)
 Framework group  C1[X(H2IO2)]
 Deg. of freedom     9
 Full point group                 C1      NOp   1
 Largest Abelian subgroup         C1      NOp   1
 Largest concise Abelian subgroup C1      NOp   1
                         Standard orientation:                         
 ---------------------------------------------------------------------
 Center     Atomic      Atomic             Coordinates (Angstroms)
 Number     Number       Type             X           Y           Z
 ---------------------------------------------------------------------
      1          8           0        1.404946    0.054335    0.000525
      2          1           0        1.665838    0.912306    0.404690
      3          8           0        3.208315   -0.021396   -0.116662
      4          1           0        3.397224   -0.599747    0.651575
      5         53           0       -0.791871   -0.010869   -0.002399
 ---------------------------------------------------------------------
 Rotational constants (GHZ):    247.6394431      1.7540601      1.7510389
 Standard basis: LANL2DZ (5D, 7F)
 There are    30 symmetry adapted basis functions of A   symmetry.
 Integral buffers will be    262144 words long.
 Raffenetti 2 integral format.
 Two-electron integral symmetry is turned on.
    30 basis functions,    70 primitive gaussians,    30 cartesian basis functions
    13 alpha electrons       13 beta electrons
       nuclear repulsion energy        54.9086092259 Hartrees.
 NAtoms=    5 NActive=    5 NUniq=    5 SFac= 7.50D-01 NAtFMM=   80 NAOKFM=F Big=F
 ------------------------------------------------------------------------------
 Polarizable Continuum Model (PCM)
 =================================
 Model                : PCM.
 Atomic radii         : SMD-Coulomb.
 Polarization charges : Total charges.
 Charge compensation  : None.
 Solution method      : Matrix inversion.
 Cavity type          : VdW (van der Waals Surface) (Alpha=1.000).
 Cavity algorithm     : GePol (No added spheres)
                        Default sphere list used, NSphG=    5.
                        Lebedev-Laikov grids with approx.  5.0 points / Ang**2.
                        Smoothing algorithm: Karplus/York (Gamma=1.0000).
                        Polarization charges: spherical gaussians, with
                                              point-specific exponents (IZeta= 3).
                        Self-potential: point-specific (ISelfS= 7).
                        Self-field    : sphere-specific E.n sum rule (ISelfD= 2).
 1st derivatives      : Analytical E(r).r(x)/FMM algorithm (CHGder, D1EAlg=3).
                        Cavity 1st derivative terms included.
 Solvent              : Water, Eps=  78.355300 Eps(inf)=   1.777849
 ------------------------------------------------------------------------------
 Spheres list:
 ISph  on   Nord    Re0     Alpha      Xe            Ye            Ze
    1   O      1    1.520   1.000      1.404946      0.054335      0.000525
    2   H      2    1.200   1.000      1.665838      0.912306      0.404690
    3   O      3    1.520   1.000      3.208315     -0.021396     -0.116662
    4   H      4    1.200   1.000      3.397224     -0.599747      0.651575
    5   I      5    1.980   1.000     -0.791871     -0.010869     -0.002399
 ------------------------------------------------------------------------------
 ------------------------------------------------------------------------------
 Atomic radii for non-electrostatic terms: SMD-CDS.
 ------------------------------------------------------------------------------
 Nuclear repulsion after PCM non-electrostatic terms =       54.9105933764 Hartrees.
 One-electron integrals computed using PRISM.
   1 Symmetry operations used in ECPInt.
 ECPInt:  NShTT=     171 NPrTT=    1054 LenC2=     172 LenP2D=     943.
 LDataN:  DoStor=T MaxTD1= 4 Len=   56
 NBasis=    30 RedAO= T  NBF=    30
 NBsUse=    30 1.00D-06 NBFU=    30
 Defaulting to unpruned grid for atomic number  53.
 Initial guess read from the read-write file.
 B after Tr=     0.000000    0.000000    0.000000
         Rot=    1.000000    0.000000    0.000000    0.000000 Ang=   0.00 deg.
 Initial guess orbital symmetries:
       Occupied  (A) (A) (A) (A) (A) (A) (A) (A) (A) (A) (A) (A)
                 (A)
       Virtual   (A) (A) (A) (A) (A) (A) (A) (A) (A) (A) (A) (A)
                 (A) (A) (A) (A) (A)
 Requested convergence on RMS density matrix=1.00D-08 within 128 cycles.
 Requested convergence on MAX density matrix=1.00D-06.
 Requested convergence on             energy=1.00D-06.
 No special actions if energy rises.
 Keep R1 ints in memory in canonical form, NReq=3416293.
 Defaulting to unpruned grid for atomic number  53.
 Defaulting to unpruned grid for atomic number  53.
 Defaulting to unpruned grid for atomic number  53.
 Defaulting to unpruned grid for atomic number  53.
 Error on total polarization charges =  0.08496
 SCF Done:  E(RM062X) =  -162.962230193     A.U. after   11 cycles
             Convg  =    0.9522D-08             -V/T =  2.0571
 SMD-CDS (non-electrostatic) energy             (kcal/mol) =       1.25
 (included in total energy above)
   1 Symmetry operations used in ECPInt.
 ECPInt:  NShTT=     171 NPrTT=    1054 LenC2=     172 LenP2D=     943.
 LDataN:  DoStor=T MaxTD1= 5 Len=  102
 D1PCM: PCM CHGder 1st derivatives, ID1Alg=3 FixD1E=F DoIter=F DoCFld=F I1PDM=0.
 Calling FoFJK, ICntrl=      2127 FMM=F ISym2X=0 I1Cent= 0 IOpClX= 0 NMat=1 NMatS=1 NMatT=0.
 Defaulting to unpruned grid for atomic number  53.
 Defaulting to unpruned grid for atomic number  53.
 Defaulting to unpruned grid for atomic number  53.
 Defaulting to unpruned grid for atomic number  53.
 ***** Axes restored to original set *****
 -------------------------------------------------------------------
 Center     Atomic                   Forces (Hartrees/Bohr)
 Number     Number              X              Y              Z
 -------------------------------------------------------------------
      1        8           0.021543537    0.001748617    0.002307675
      2        1          -0.009694963   -0.001103546   -0.003824664
      3        8           0.028861225   -0.001637766   -0.006463149
      4        1          -0.000137346    0.001826966    0.001274024
      5       53          -0.040572453   -0.000834271    0.006706114
 -------------------------------------------------------------------
 Cartesian Forces:  Max     0.040572453 RMS     0.014506417

 GradGradGradGradGradGradGradGradGradGradGradGradGradGradGradGradGradGrad
 Berny optimization.
 Internal  Forces:  Max     0.040818713 RMS     0.014818849
 Search for a saddle point.
 Step number   2 out of a maximum of   21
 All quantities printed in internal units (Hartrees-Bohrs-Radians)
 Swaping is turned off.
 Update second derivatives using D2CorX and points    1    2
 The second derivative matrix:
                          R1        R2        R3        R4        R5
           R1           0.50425
           R2          -0.02034   0.03979
           R3          -0.03638   0.04522   0.23293
           R4           0.08581   0.03694  -0.08115   0.08611
           R5           0.00222  -0.00419  -0.00464  -0.00123   0.56774
           A1          -0.01639   0.00347  -0.06621   0.02099   0.00098
           A2          -0.00817   0.00075   0.08895  -0.04987  -0.00420
           A3           0.02457  -0.00370  -0.02208   0.02950   0.00334
           A4          -0.00368   0.00878   0.01507  -0.00031  -0.01543
           D1           0.00292  -0.00097  -0.00560   0.00036   0.00313
           D2          -0.00018   0.00338   0.00645   0.00180   0.00092
                          A1        A2        A3        A4        D1
           A1           0.01201
           A2          -0.02820   0.09523
           A3           0.01607  -0.06704   0.05140
           A4          -0.00418   0.01143  -0.00725   0.06338
           D1           0.00108  -0.00703   0.00332   0.00464   0.01464
           D2          -0.00059   0.00733  -0.00353   0.00412  -0.00232
                          D2
           D2           0.00298
     Eigenvalues ---   -0.02462   0.00176   0.01381   0.05654   0.07937
     Eigenvalues ---    0.11215   0.32724   0.53673   0.568961000.00000
     Eigenvalues --- 1000.00000
 Eigenvectors required to have negative eigenvalues:
                          R2        A1        R4        R3        A3
   1                    0.54794  -0.50015  -0.39704  -0.38121   0.33214
                          A2        R1        D2        D1        A4
   1                    0.18435   0.03120   0.03078  -0.01769  -0.01037
 RFO step:  Lambda0=2.792510092D-04 Lambda=-1.56754416D-02.
 Linear search not attempted -- option 19 set.
 Maximum step size (   0.030) exceeded in Quadratic search.
    -- Step size scaled by   0.083
 Iteration  1 RMS(Cart)=  0.01052913 RMS(Int)=  0.00045190
 Iteration  2 RMS(Cart)=  0.00013584 RMS(Int)=  0.00000526
 Iteration  3 RMS(Cart)=  0.00000028 RMS(Int)=  0.00000525
 Variable       Old X    -DE/DX   Delta X   Delta X   Delta X     New X
                                 (Linear)    (Quad)   (Total)
    R1        1.85879   0.00051   0.00000  -0.00012  -0.00012   1.85867
    R2        3.41806   0.02103   0.00000   0.01942   0.01942   3.43748
    R3        4.15321   0.04082   0.00000   0.01402   0.01402   4.16724
    R4        3.54687   0.00959   0.00000   0.00609   0.00610   3.55297
    R5        1.85190   0.00187   0.00000   0.00028   0.00028   1.85218
    A1        1.36811  -0.00492   0.00000  -0.00600  -0.00600   1.36211
    A2        1.86663  -0.00649   0.00000  -0.00624  -0.00623   1.86040
    A3        3.04411   0.01190   0.00000   0.01257   0.01258   3.05669
    A4        1.73768  -0.00120   0.00000  -0.00440  -0.00440   1.73329
    D1        1.75295   0.00151   0.00000   0.00494   0.00494   1.75789
    D2       -1.68452  -0.00022   0.00000  -0.00347  -0.00347  -1.68800
         Item               Value     Threshold  Converged?
 Maximum Force            0.040819     0.000450     NO 
 RMS     Force            0.014819     0.000300     NO 
 Maximum Displacement     0.020150     0.001800     NO 
 RMS     Displacement     0.010634     0.001200     NO 
 Predicted change in Energy=-1.226556D-03
 GradGradGradGradGradGradGradGradGradGradGradGradGradGradGradGradGradGrad

                          Input orientation:                          
 ---------------------------------------------------------------------
 Center     Atomic      Atomic             Coordinates (Angstroms)
 Number     Number       Type             X           Y           Z
 ---------------------------------------------------------------------
      1          8           0       -1.435325    0.710767    0.365003
      2          1           0       -1.423364    0.702320   -0.618453
      3          8           0        0.348681    0.714944    0.009765
      4          1           0        0.535458    1.667275    0.147025
      5         53           0       -3.555212    0.651350    0.969555
 ---------------------------------------------------------------------
                    Distance matrix (angstroms):
                    1          2          3          4          5
     1  O    0.000000
     2  H    0.983566   0.000000
     3  O    1.819035   1.880149   0.000000
     4  H    2.201455   2.313888   0.980133   0.000000
     5  I    2.205206   2.658786   4.020649   4.294443   0.000000
 Stoichiometry    H2IO2(1-)
 Framework group  C1[X(H2IO2)]
 Deg. of freedom     9
 Full point group                 C1      NOp   1
 Largest Abelian subgroup         C1      NOp   1
 Largest concise Abelian subgroup C1      NOp   1
                         Standard orientation:                         
 ---------------------------------------------------------------------
 Center     Atomic      Atomic             Coordinates (Angstroms)
 Number     Number       Type             X           Y           Z
 ---------------------------------------------------------------------
      1          8           0        1.409305    0.047642   -0.003716
      2          1           0        1.668313    0.893889    0.425448
      3          8           0        3.223963   -0.013944   -0.113768
      4          1           0        3.407939   -0.617144    0.636540
      5         53           0       -0.795139   -0.010308   -0.002304
 ---------------------------------------------------------------------
 Rotational constants (GHZ):    252.7477706      1.7388958      1.7360333
 Standard basis: LANL2DZ (5D, 7F)
 There are    30 symmetry adapted basis functions of A   symmetry.
 Integral buffers will be    262144 words long.
 Raffenetti 2 integral format.
 Two-electron integral symmetry is turned on.
    30 basis functions,    70 primitive gaussians,    30 cartesian basis functions
    13 alpha electrons       13 beta electrons
       nuclear repulsion energy        54.7093967262 Hartrees.
 NAtoms=    5 NActive=    5 NUniq=    5 SFac= 7.50D-01 NAtFMM=   80 NAOKFM=F Big=F
 ------------------------------------------------------------------------------
 Polarizable Continuum Model (PCM)
 =================================
 Model                : PCM.
 Atomic radii         : SMD-Coulomb.
 Polarization charges : Total charges.
 Charge compensation  : None.
 Solution method      : Matrix inversion.
 Cavity type          : VdW (van der Waals Surface) (Alpha=1.000).
 Cavity algorithm     : GePol (No added spheres)
                        Default sphere list used, NSphG=    5.
                        Lebedev-Laikov grids with approx.  5.0 points / Ang**2.
                        Smoothing algorithm: Karplus/York (Gamma=1.0000).
                        Polarization charges: spherical gaussians, with
                                              point-specific exponents (IZeta= 3).
                        Self-potential: point-specific (ISelfS= 7).
                        Self-field    : sphere-specific E.n sum rule (ISelfD= 2).
 1st derivatives      : Analytical E(r).r(x)/FMM algorithm (CHGder, D1EAlg=3).
                        Cavity 1st derivative terms included.
 Solvent              : Water, Eps=  78.355300 Eps(inf)=   1.777849
 ------------------------------------------------------------------------------
 Spheres list:
 ISph  on   Nord    Re0     Alpha      Xe            Ye            Ze
    1   O      1    1.520   1.000      1.409305      0.047642     -0.003716
    2   H      2    1.200   1.000      1.668313      0.893889      0.425448
    3   O      3    1.520   1.000      3.223963     -0.013944     -0.113768
    4   H      4    1.200   1.000      3.407939     -0.617144      0.636540
    5   I      5    1.980   1.000     -0.795139     -0.010308     -0.002304
 ------------------------------------------------------------------------------
 ------------------------------------------------------------------------------
 Atomic radii for non-electrostatic terms: SMD-CDS.
 ------------------------------------------------------------------------------
 Nuclear repulsion after PCM non-electrostatic terms =       54.7113791412 Hartrees.
 One-electron integrals computed using PRISM.
   1 Symmetry operations used in ECPInt.
 ECPInt:  NShTT=     171 NPrTT=    1054 LenC2=     172 LenP2D=     941.
 LDataN:  DoStor=T MaxTD1= 4 Len=   56
 NBasis=    30 RedAO= T  NBF=    30
 NBsUse=    30 1.00D-06 NBFU=    30
 Defaulting to unpruned grid for atomic number  53.
 Initial guess read from the read-write file.
 B after Tr=     0.000000    0.000000    0.000000
         Rot=    1.000000    0.000000    0.000000    0.000000 Ang=   0.00 deg.
 Initial guess orbital symmetries:
       Occupied  (A) (A) (A) (A) (A) (A) (A) (A) (A) (A) (A) (A)
                 (A)
       Virtual   (A) (A) (A) (A) (A) (A) (A) (A) (A) (A) (A) (A)
                 (A) (A) (A) (A) (A)
 Harris functional with IExCor= 1009 diagonalized for initial guess.
 ExpMin= 1.05D-01 ExpMax= 7.82D+03 ExpMxC= 2.73D+02 IAcc=1 IRadAn=         1 AccDes= 0.00D+00
 HarFok:  IExCor= 1009 AccDes= 0.00D+00 IRadAn=         1 IDoV= 1
 ScaDFX=  1.000000  1.000000  1.000000  1.000000
 Defaulting to unpruned grid for atomic number  53.
 Defaulting to unpruned grid for atomic number  53.
 Defaulting to unpruned grid for atomic number  53.
 Defaulting to unpruned grid for atomic number  53.
 FoFCou: FMM=F IPFlag=           0 FMFlag=      100000 FMFlg1=           0
         NFxFlg=           0 DoJE=T BraDBF=F KetDBF=T FulRan=T
         Omega=  0.000000  0.000000  1.000000  0.000000  0.000000 ICntrl=     500 IOpCl=  0
         NMat0=    1 NMatS0=    1 NMatT0=    0 NMatD0=    1 NMtDS0=    0 NMtDT0=    0
         I1Cent=           4 NGrid=           0.
 Petite list used in FoFCou.
 Requested convergence on RMS density matrix=1.00D-08 within 128 cycles.
 Requested convergence on MAX density matrix=1.00D-06.
 Requested convergence on             energy=1.00D-06.
 No special actions if energy rises.
 Keep R1 ints in memory in canonical form, NReq=3413735.
 Defaulting to unpruned grid for atomic number  53.
 Defaulting to unpruned grid for atomic number  53.
 Defaulting to unpruned grid for atomic number  53.
 Defaulting to unpruned grid for atomic number  53.
 Error on total polarization charges =  0.08478
 SCF Done:  E(RM062X) =  -162.963453555     A.U. after   11 cycles
             Convg  =    0.8867D-08             -V/T =  2.0573
 SMD-CDS (non-electrostatic) energy             (kcal/mol) =       1.24
 (included in total energy above)
   1 Symmetry operations used in ECPInt.
 ECPInt:  NShTT=     171 NPrTT=    1054 LenC2=     172 LenP2D=     941.
 LDataN:  DoStor=T MaxTD1= 5 Len=  102
 D1PCM: PCM CHGder 1st derivatives, ID1Alg=3 FixD1E=F DoIter=F DoCFld=F I1PDM=0.
 Calling FoFJK, ICntrl=      2127 FMM=F ISym2X=0 I1Cent= 0 IOpClX= 0 NMat=1 NMatS=1 NMatT=0.
 Defaulting to unpruned grid for atomic number  53.
 Defaulting to unpruned grid for atomic number  53.
 Defaulting to unpruned grid for atomic number  53.
 Defaulting to unpruned grid for atomic number  53.
 ***** Axes restored to original set *****
 -------------------------------------------------------------------
 Center     Atomic                   Forces (Hartrees/Bohr)
 Number     Number              X              Y              Z
 -------------------------------------------------------------------
      1        8           0.019890467    0.001692836    0.002896334
      2        1          -0.009203552   -0.001009457   -0.003794376
      3        8           0.026980700   -0.001571396   -0.006158617
      4        1          -0.000169820    0.001667538    0.001197221
      5       53          -0.037497795   -0.000779521    0.005859438
 -------------------------------------------------------------------
 Cartesian Forces:  Max     0.037497795 RMS     0.013467568

 GradGradGradGradGradGradGradGradGradGradGradGradGradGradGradGradGradGrad
 Berny optimization.
 Internal  Forces:  Max     0.037653653 RMS     0.013721881
 Search for a saddle point.
 Step number   3 out of a maximum of   21
 All quantities printed in internal units (Hartrees-Bohrs-Radians)
 Swaping is turned off.
 Update second derivatives using D2CorX and points    1    2    3
 The second derivative matrix:
                          R1        R2        R3        R4        R5
           R1           0.50323
           R2          -0.02626   0.03869
           R3          -0.04016   0.04642   0.23504
           R4           0.08397   0.03461  -0.08216   0.08489
           R5           0.00215  -0.00406  -0.00452  -0.00122   0.56775
           A1          -0.01428   0.00418  -0.06642   0.02190   0.00094
           A2          -0.00615   0.00168   0.08892  -0.04894  -0.00424
           A3           0.02031  -0.00547  -0.02190   0.02757   0.00342
           A4          -0.00235   0.00918   0.01490   0.00025  -0.01546
           D1           0.00179   0.00105  -0.00382   0.00047   0.00319
           D2           0.00058   0.00245   0.00555   0.00183   0.00089
                          A1        A2        A3        A4        D1
           A1           0.01165
           A2          -0.02863   0.09474
           A3           0.01692  -0.06605   0.04945
           A4          -0.00439   0.01118  -0.00674   0.06326
           D1           0.00044  -0.00758   0.00453   0.00423   0.01560
           D2          -0.00031   0.00756  -0.00404   0.00430  -0.00285
                          D2
           D2           0.00327
     Eigenvalues ---   -0.02561   0.00189   0.01504   0.05615   0.07947
     Eigenvalues ---    0.10947   0.32739   0.53641   0.568951000.00000
     Eigenvalues --- 1000.00000
 Eigenvectors required to have negative eigenvalues:
                          R2        A1        R4        R3        A3
   1                    0.55451  -0.49857  -0.38896  -0.37590   0.33854
                          A2        D2        D1        R1        A4
   1                    0.17824   0.04236  -0.04076   0.03645  -0.01367
 RFO step:  Lambda0=1.398362064D-04 Lambda=-1.38328521D-02.
 Linear search not attempted -- option 19 set.
 Maximum step size (   0.030) exceeded in Quadratic search.
    -- Step size scaled by   0.090
 Iteration  1 RMS(Cart)=  0.01050018 RMS(Int)=  0.00036635
 Iteration  2 RMS(Cart)=  0.00009330 RMS(Int)=  0.00000239
 Iteration  3 RMS(Cart)=  0.00000016 RMS(Int)=  0.00000238
 Variable       Old X    -DE/DX   Delta X   Delta X   Delta X     New X
                                 (Linear)    (Quad)   (Total)
    R1        1.85867   0.00073   0.00000   0.00027   0.00027   1.85894
    R2        3.43748   0.01956   0.00000   0.01857   0.01857   3.45604
    R3        4.16724   0.03765   0.00000   0.01538   0.01538   4.18261
    R4        3.55297   0.00905   0.00000   0.00785   0.00786   3.56082
    R5        1.85218   0.00171   0.00000   0.00028   0.00028   1.85246
    A1        1.36211  -0.00455   0.00000  -0.00465  -0.00465   1.35746
    A2        1.86040  -0.00611   0.00000  -0.00725  -0.00725   1.85316
    A3        3.05669   0.01114   0.00000   0.01240   0.01240   3.06910
    A4        1.73329  -0.00118   0.00000  -0.00467  -0.00467   1.72862
    D1        1.75789   0.00137   0.00000   0.00196   0.00196   1.75985
    D2       -1.68800  -0.00022   0.00000  -0.00185  -0.00185  -1.68984
         Item               Value     Threshold  Converged?
 Maximum Force            0.037654     0.000450     NO 
 RMS     Force            0.013722     0.000300     NO 
 Maximum Displacement     0.020315     0.001800     NO 
 RMS     Displacement     0.010564     0.001200     NO 
 Predicted change in Energy=-1.177140D-03
 GradGradGradGradGradGradGradGradGradGradGradGradGradGradGradGradGradGrad

                          Input orientation:                          
 ---------------------------------------------------------------------
 Center     Atomic      Atomic             Coordinates (Angstroms)
 Number     Number       Type             X           Y           Z
 ---------------------------------------------------------------------
      1          8           0       -1.434800    0.708104    0.371296
      2          1           0       -1.424550    0.703321   -0.612348
      3          8           0        0.356512    0.715790    0.002690
      4          1           0        0.539040    1.668331    0.145160
      5         53           0       -3.565962    0.651111    0.966097
 ---------------------------------------------------------------------
                    Distance matrix (angstroms):
                    1          2          3          4          5
     1  O    0.000000
     2  H    0.983708   0.000000
     3  O    1.828860   1.884306   0.000000
     4  H    2.206630   2.315329   0.980280   0.000000
     5  I    2.213343   2.660800   4.039572   4.308098   0.000000
 Stoichiometry    H2IO2(1-)
 Framework group  C1[X(H2IO2)]
 Deg. of freedom     9
 Full point group                 C1      NOp   1
 Largest Abelian subgroup         C1      NOp   1
 Largest concise Abelian subgroup C1      NOp   1
                         Standard orientation:                         
 ---------------------------------------------------------------------
 Center     Atomic      Atomic             Coordinates (Angstroms)
 Number     Number       Type             X           Y           Z
 ---------------------------------------------------------------------
      1          8           0        1.414254    0.041435   -0.008739
      2          1           0        1.670445    0.876129    0.444399
      3          8           0        3.239628   -0.007205   -0.110573
      4          1           0        3.418307   -0.631722    0.623593
      5         53           0       -0.798487   -0.009778   -0.002141
 ---------------------------------------------------------------------
 Rotational constants (GHZ):    257.3913324      1.7236734      1.7209580
 Standard basis: LANL2DZ (5D, 7F)
 There are    30 symmetry adapted basis functions of A   symmetry.
 Integral buffers will be    262144 words long.
 Raffenetti 2 integral format.
 Two-electron integral symmetry is turned on.
    30 basis functions,    70 primitive gaussians,    30 cartesian basis functions
    13 alpha electrons       13 beta electrons
       nuclear repulsion energy        54.5107713050 Hartrees.
 NAtoms=    5 NActive=    5 NUniq=    5 SFac= 7.50D-01 NAtFMM=   80 NAOKFM=F Big=F
 ------------------------------------------------------------------------------
 Polarizable Continuum Model (PCM)
 =================================
 Model                : PCM.
 Atomic radii         : SMD-Coulomb.
 Polarization charges : Total charges.
 Charge compensation  : None.
 Solution method      : Matrix inversion.
 Cavity type          : VdW (van der Waals Surface) (Alpha=1.000).
 Cavity algorithm     : GePol (No added spheres)
                        Default sphere list used, NSphG=    5.
                        Lebedev-Laikov grids with approx.  5.0 points / Ang**2.
                        Smoothing algorithm: Karplus/York (Gamma=1.0000).
                        Polarization charges: spherical gaussians, with
                                              point-specific exponents (IZeta= 3).
                        Self-potential: point-specific (ISelfS= 7).
                        Self-field    : sphere-specific E.n sum rule (ISelfD= 2).
 1st derivatives      : Analytical E(r).r(x)/FMM algorithm (CHGder, D1EAlg=3).
                        Cavity 1st derivative terms included.
 Solvent              : Water, Eps=  78.355300 Eps(inf)=   1.777849
 ------------------------------------------------------------------------------
 Spheres list:
 ISph  on   Nord    Re0     Alpha      Xe            Ye            Ze
    1   O      1    1.520   1.000      1.414254      0.041435     -0.008739
    2   H      2    1.200   1.000      1.670445      0.876129      0.444399
    3   O      3    1.520   1.000      3.239628     -0.007205     -0.110573
    4   H      4    1.200   1.000      3.418307     -0.631722      0.623593
    5   I      5    1.980   1.000     -0.798487     -0.009778     -0.002141
 ------------------------------------------------------------------------------
 ------------------------------------------------------------------------------
 Atomic radii for non-electrostatic terms: SMD-CDS.
 ------------------------------------------------------------------------------
 Nuclear repulsion after PCM non-electrostatic terms =       54.5127491856 Hartrees.
 One-electron integrals computed using PRISM.
   1 Symmetry operations used in ECPInt.
 ECPInt:  NShTT=     171 NPrTT=    1054 LenC2=     172 LenP2D=     940.
 LDataN:  DoStor=T MaxTD1= 4 Len=   56
 NBasis=    30 RedAO= T  NBF=    30
 NBsUse=    30 1.00D-06 NBFU=    30
 Defaulting to unpruned grid for atomic number  53.
 Initial guess read from the read-write file.
 B after Tr=     0.000000    0.000000    0.000000
         Rot=    1.000000    0.000000    0.000000    0.000000 Ang=   0.00 deg.
 Initial guess orbital symmetries:
       Occupied  (A) (A) (A) (A) (A) (A) (A) (A) (A) (A) (A) (A)
                 (A)
       Virtual   (A) (A) (A) (A) (A) (A) (A) (A) (A) (A) (A) (A)
                 (A) (A) (A) (A) (A)
 Harris functional with IExCor= 1009 diagonalized for initial guess.
 ExpMin= 1.05D-01 ExpMax= 7.82D+03 ExpMxC= 2.73D+02 IAcc=1 IRadAn=         1 AccDes= 0.00D+00
 HarFok:  IExCor= 1009 AccDes= 0.00D+00 IRadAn=         1 IDoV= 1
 ScaDFX=  1.000000  1.000000  1.000000  1.000000
 Defaulting to unpruned grid for atomic number  53.
 Defaulting to unpruned grid for atomic number  53.
 Defaulting to unpruned grid for atomic number  53.
 Defaulting to unpruned grid for atomic number  53.
 FoFCou: FMM=F IPFlag=           0 FMFlag=      100000 FMFlg1=           0
         NFxFlg=           0 DoJE=T BraDBF=F KetDBF=T FulRan=T
         Omega=  0.000000  0.000000  1.000000  0.000000  0.000000 ICntrl=     500 IOpCl=  0
         NMat0=    1 NMatS0=    1 NMatT0=    0 NMatD0=    1 NMtDS0=    0 NMtDT0=    0
         I1Cent=           4 NGrid=           0.
 Petite list used in FoFCou.
 Requested convergence on RMS density matrix=1.00D-08 within 128 cycles.
 Requested convergence on MAX density matrix=1.00D-06.
 Requested convergence on             energy=1.00D-06.
 No special actions if energy rises.
 Keep R1 ints in memory in canonical form, NReq=3417465.
 Defaulting to unpruned grid for atomic number  53.
 Defaulting to unpruned grid for atomic number  53.
 Defaulting to unpruned grid for atomic number  53.
 Defaulting to unpruned grid for atomic number  53.
 Error on total polarization charges =  0.08463
 SCF Done:  E(RM062X) =  -162.964627544     A.U. after   11 cycles
             Convg  =    0.8070D-08             -V/T =  2.0574
 SMD-CDS (non-electrostatic) energy             (kcal/mol) =       1.24
 (included in total energy above)
   1 Symmetry operations used in ECPInt.
 ECPInt:  NShTT=     171 NPrTT=    1054 LenC2=     172 LenP2D=     940.
 LDataN:  DoStor=T MaxTD1= 5 Len=  102
 D1PCM: PCM CHGder 1st derivatives, ID1Alg=3 FixD1E=F DoIter=F DoCFld=F I1PDM=0.
 Calling FoFJK, ICntrl=      2127 FMM=F ISym2X=0 I1Cent= 0 IOpClX= 0 NMat=1 NMatS=1 NMatT=0.
 Defaulting to unpruned grid for atomic number  53.
 Defaulting to unpruned grid for atomic number  53.
 Defaulting to unpruned grid for atomic number  53.
 Defaulting to unpruned grid for atomic number  53.
 ***** Axes restored to original set *****
 -------------------------------------------------------------------
 Center     Atomic                   Forces (Hartrees/Bohr)
 Number     Number              X              Y              Z
 -------------------------------------------------------------------
      1        8           0.018396066    0.001655593    0.003128820
      2        1          -0.008723045   -0.000944074   -0.003565823
      3        8           0.025018008   -0.001555076   -0.005811558
      4        1          -0.000199459    0.001563020    0.001147364
      5       53          -0.034491570   -0.000719463    0.005101197
 -------------------------------------------------------------------
 Cartesian Forces:  Max     0.034491570 RMS     0.012443859

 GradGradGradGradGradGradGradGradGradGradGradGradGradGradGradGradGradGrad
 Berny optimization.
 Internal  Forces:  Max     0.034577334 RMS     0.012628678
 Search for a saddle point.
 Step number   4 out of a maximum of   21
 All quantities printed in internal units (Hartrees-Bohrs-Radians)
 Swaping is turned off.
 Update second derivatives using D2CorX and points    1    2    3    4
 The second derivative matrix:
                          R1        R2        R3        R4        R5
           R1           0.50232
           R2          -0.02800   0.03916
           R3          -0.04163   0.04599   0.23404
           R4           0.08258   0.03294  -0.08379   0.08309
           R5           0.00193  -0.00497  -0.00531  -0.00174   0.56763
           A1          -0.01406   0.00317  -0.06699   0.02189   0.00111
           A2          -0.00522   0.00250   0.08992  -0.04773  -0.00379
           A3           0.01915  -0.00508  -0.02217   0.02643   0.00280
           A4          -0.00170   0.00992   0.01572   0.00113  -0.01515
           D1           0.00176   0.00111  -0.00393   0.00037   0.00305
           D2           0.00059   0.00184   0.00512   0.00165   0.00093
                          A1        A2        A3        A4        D1
           A1           0.01213
           A2          -0.02845   0.09395
           A3           0.01619  -0.06552   0.04978
           A4          -0.00432   0.01057  -0.00625   0.06280
           D1           0.00033  -0.00748   0.00458   0.00432   0.01550
           D2          -0.00010   0.00774  -0.00446   0.00441  -0.00291
                          D2
           D2           0.00336
     Eigenvalues ---   -0.02442   0.00195   0.01497   0.05527   0.07946
     Eigenvalues ---    0.10635   0.32740   0.53569   0.568801000.00000
     Eigenvalues --- 1000.00000
 Eigenvectors required to have negative eigenvalues:
                          R2        A1        R4        R3        A3
   1                    0.54556  -0.49721  -0.39577  -0.38470   0.33217
                          A2        D2        D1        R1        A4
   1                    0.18337   0.05472  -0.04544   0.03721  -0.01034
 RFO step:  Lambda0=2.408648804D-04 Lambda=-1.22457346D-02.
 Linear search not attempted -- option 19 set.
 Maximum step size (   0.030) exceeded in Quadratic search.
    -- Step size scaled by   0.091
 Iteration  1 RMS(Cart)=  0.01058037 RMS(Int)=  0.00035538
 Iteration  2 RMS(Cart)=  0.00007082 RMS(Int)=  0.00000107
 Iteration  3 RMS(Cart)=  0.00000011 RMS(Int)=  0.00000107
 Variable       Old X    -DE/DX   Delta X   Delta X   Delta X     New X
                                 (Linear)    (Quad)   (Total)
    R1        1.85894   0.00076   0.00000   0.00049   0.00049   1.85943
    R2        3.45604   0.01802   0.00000   0.01976   0.01976   3.47581
    R3        4.18261   0.03458   0.00000   0.01355   0.01355   4.19617
    R4        3.56082   0.00848   0.00000   0.00677   0.00677   3.56759
    R5        1.85246   0.00161   0.00000   0.00032   0.00032   1.85278
    A1        1.35746  -0.00411   0.00000  -0.00589  -0.00589   1.35157
    A2        1.85316  -0.00572   0.00000  -0.00651  -0.00651   1.84665
    A3        3.06910   0.01030   0.00000   0.01300   0.01300   3.08209
    A4        1.72862  -0.00118   0.00000  -0.00541  -0.00541   1.72321
    D1        1.75985   0.00128   0.00000   0.00202   0.00202   1.76187
    D2       -1.68984  -0.00020   0.00000   0.00053   0.00053  -1.68932
         Item               Value     Threshold  Converged?
 Maximum Force            0.034577     0.000450     NO 
 RMS     Force            0.012629     0.000300     NO 
 Maximum Displacement     0.019349     0.001800     NO 
 RMS     Displacement     0.010613     0.001200     NO 
 Predicted change in Energy=-1.043107D-03
 GradGradGradGradGradGradGradGradGradGradGradGradGradGradGradGradGradGrad

                          Input orientation:                          
 ---------------------------------------------------------------------
 Center     Atomic      Atomic             Coordinates (Angstroms)
 Number     Number       Type             X           Y           Z
 ---------------------------------------------------------------------
      1          8           0       -1.434645    0.705075    0.377958
      2          1           0       -1.425244    0.704375   -0.605966
      3          8           0        0.364353    0.716637   -0.004876
      4          1           0        0.541977    1.669388    0.143418
      5         53           0       -3.576201    0.651181    0.962360
 ---------------------------------------------------------------------
                    Distance matrix (angstroms):
                    1          2          3          4          5
     1  O    0.000000
     2  H    0.983969   0.000000
     3  O    1.839318   1.887887   0.000000
     4  H    2.211774   2.315769   0.980448   0.000000
     5  I    2.220516   2.662535   4.058054   4.320510   0.000000
 Stoichiometry    H2IO2(1-)
 Framework group  C1[X(H2IO2)]
 Deg. of freedom     9
 Full point group                 C1      NOp   1
 Largest Abelian subgroup         C1      NOp   1
 Largest concise Abelian subgroup C1      NOp   1
                         Standard orientation:                         
 ---------------------------------------------------------------------
 Center     Atomic      Atomic             Coordinates (Angstroms)
 Number     Number       Type             X           Y           Z
 ---------------------------------------------------------------------
      1          8           0        1.418381    0.035344   -0.014540
      2          1           0        1.672661    0.856793    0.463747
      3          8           0        3.255036   -0.000327   -0.106824
      4          1           0        3.427533   -0.647192    0.609477
      5         53           0       -0.801652   -0.009240   -0.001930
 ---------------------------------------------------------------------
 Rotational constants (GHZ):    261.9460103      1.7092733      1.7066813
 Standard basis: LANL2DZ (5D, 7F)
 There are    30 symmetry adapted basis functions of A   symmetry.
 Integral buffers will be    262144 words long.
 Raffenetti 2 integral format.
 Two-electron integral symmetry is turned on.
    30 basis functions,    70 primitive gaussians,    30 cartesian basis functions
    13 alpha electrons       13 beta electrons
       nuclear repulsion energy        54.3147940733 Hartrees.
 NAtoms=    5 NActive=    5 NUniq=    5 SFac= 7.50D-01 NAtFMM=   80 NAOKFM=F Big=F
 ------------------------------------------------------------------------------
 Polarizable Continuum Model (PCM)
 =================================
 Model                : PCM.
 Atomic radii         : SMD-Coulomb.
 Polarization charges : Total charges.
 Charge compensation  : None.
 Solution method      : Matrix inversion.
 Cavity type          : VdW (van der Waals Surface) (Alpha=1.000).
 Cavity algorithm     : GePol (No added spheres)
                        Default sphere list used, NSphG=    5.
                        Lebedev-Laikov grids with approx.  5.0 points / Ang**2.
                        Smoothing algorithm: Karplus/York (Gamma=1.0000).
                        Polarization charges: spherical gaussians, with
                                              point-specific exponents (IZeta= 3).
                        Self-potential: point-specific (ISelfS= 7).
                        Self-field    : sphere-specific E.n sum rule (ISelfD= 2).
 1st derivatives      : Analytical E(r).r(x)/FMM algorithm (CHGder, D1EAlg=3).
                        Cavity 1st derivative terms included.
 Solvent              : Water, Eps=  78.355300 Eps(inf)=   1.777849
 ------------------------------------------------------------------------------
 Spheres list:
 ISph  on   Nord    Re0     Alpha      Xe            Ye            Ze
    1   O      1    1.520   1.000      1.418381      0.035344     -0.014540
    2   H      2    1.200   1.000      1.672661      0.856793      0.463747
    3   O      3    1.520   1.000      3.255036     -0.000327     -0.106824
    4   H      4    1.200   1.000      3.427533     -0.647192      0.609477
    5   I      5    1.980   1.000     -0.801652     -0.009240     -0.001930
 ------------------------------------------------------------------------------
 ------------------------------------------------------------------------------
 Atomic radii for non-electrostatic terms: SMD-CDS.
 ------------------------------------------------------------------------------
 Nuclear repulsion after PCM non-electrostatic terms =       54.3167639204 Hartrees.
 One-electron integrals computed using PRISM.
   1 Symmetry operations used in ECPInt.
 ECPInt:  NShTT=     171 NPrTT=    1054 LenC2=     172 LenP2D=     939.
 LDataN:  DoStor=T MaxTD1= 4 Len=   56
 NBasis=    30 RedAO= T  NBF=    30
 NBsUse=    30 1.00D-06 NBFU=    30
 Defaulting to unpruned grid for atomic number  53.
 Initial guess read from the read-write file.
 B after Tr=     0.000000    0.000000    0.000000
         Rot=    1.000000    0.000000    0.000000    0.000000 Ang=   0.00 deg.
 Initial guess orbital symmetries:
       Occupied  (A) (A) (A) (A) (A) (A) (A) (A) (A) (A) (A) (A)
                 (A)
       Virtual   (A) (A) (A) (A) (A) (A) (A) (A) (A) (A) (A) (A)
                 (A) (A) (A) (A) (A)
 Requested convergence on RMS density matrix=1.00D-08 within 128 cycles.
 Requested convergence on MAX density matrix=1.00D-06.
 Requested convergence on             energy=1.00D-06.
 No special actions if energy rises.
 Keep R1 ints in memory in canonical form, NReq=3416166.
 Defaulting to unpruned grid for atomic number  53.
 Defaulting to unpruned grid for atomic number  53.
 Defaulting to unpruned grid for atomic number  53.
 Defaulting to unpruned grid for atomic number  53.
 Error on total polarization charges =  0.08447
 SCF Done:  E(RM062X) =  -162.965666321     A.U. after   11 cycles
             Convg  =    0.8942D-08             -V/T =  2.0575
 SMD-CDS (non-electrostatic) energy             (kcal/mol) =       1.24
 (included in total energy above)
   1 Symmetry operations used in ECPInt.
 ECPInt:  NShTT=     171 NPrTT=    1054 LenC2=     172 LenP2D=     939.
 LDataN:  DoStor=T MaxTD1= 5 Len=  102
 D1PCM: PCM CHGder 1st derivatives, ID1Alg=3 FixD1E=F DoIter=F DoCFld=F I1PDM=0.
 Calling FoFJK, ICntrl=      2127 FMM=F ISym2X=0 I1Cent= 0 IOpClX= 0 NMat=1 NMatS=1 NMatT=0.
 Defaulting to unpruned grid for atomic number  53.
 Defaulting to unpruned grid for atomic number  53.
 Defaulting to unpruned grid for atomic number  53.
 Defaulting to unpruned grid for atomic number  53.
 ***** Axes restored to original set *****
 -------------------------------------------------------------------
 Center     Atomic                   Forces (Hartrees/Bohr)
 Number     Number              X              Y              Z
 -------------------------------------------------------------------
      1        8           0.016681204    0.001669040    0.003211519
      2        1          -0.008183488   -0.000964141   -0.003206414
      3        8           0.023283829   -0.001483265   -0.005565894
      4        1          -0.000214967    0.001431976    0.001149341
      5       53          -0.031566578   -0.000653610    0.004411448
 -------------------------------------------------------------------
 Cartesian Forces:  Max     0.031566578 RMS     0.011444396

 GradGradGradGradGradGradGradGradGradGradGradGradGradGradGradGradGradGrad
 Berny optimization.
 Internal  Forces:  Max     0.031595396 RMS     0.011589847
 Search for a saddle point.
 Step number   5 out of a maximum of   21
 All quantities printed in internal units (Hartrees-Bohrs-Radians)
 Swaping is turned off.
 Update second derivatives using D2CorX and points    1    2    3    4    5
 The second derivative matrix:
                          R1        R2        R3        R4        R5
           R1           0.50195
           R2          -0.02697   0.03384
           R3          -0.04073   0.04606   0.23613
           R4           0.08243   0.02989  -0.08426   0.08092
           R5           0.00187  -0.00547  -0.00547  -0.00215   0.56754
           A1          -0.01457   0.00365  -0.06756   0.02208   0.00112
           A2          -0.00555   0.00239   0.08879  -0.04737  -0.00368
           A3           0.02004  -0.00539  -0.02037   0.02592   0.00269
           A4          -0.00187   0.01116   0.01557   0.00206  -0.01497
           D1           0.00198  -0.00198  -0.00526  -0.00097   0.00287
           D2           0.00040   0.00167   0.00502   0.00138   0.00087
                          A1        A2        A3        A4        D1
           A1           0.01213
           A2          -0.02808   0.09452
           A3           0.01580  -0.06652   0.05126
           A4          -0.00431   0.01063  -0.00635   0.06246
           D1           0.00098  -0.00685   0.00328   0.00512   0.01449
           D2          -0.00014   0.00784  -0.00451   0.00452  -0.00291
                          D2
           D2           0.00329
     Eigenvalues ---   -0.02545   0.00184   0.01351   0.05321   0.07903
     Eigenvalues ---    0.10627   0.32812   0.53510   0.568681000.00000
     Eigenvalues --- 1000.00000
 Eigenvectors required to have negative eigenvalues:
                          R2        A1        R3        R4        A3
   1                    0.56173  -0.49591  -0.38286  -0.38251   0.32615
                          A2        D2        R1        A4        D1
   1                    0.18677   0.05203   0.03480  -0.01927  -0.00982
 RFO step:  Lambda0=1.215307535D-04 Lambda=-1.08286092D-02.
 Linear search not attempted -- option 19 set.
 Maximum step size (   0.030) exceeded in Quadratic search.
    -- Step size scaled by   0.092
 Iteration  1 RMS(Cart)=  0.00938839 RMS(Int)=  0.00044172
 Iteration  2 RMS(Cart)=  0.00005996 RMS(Int)=  0.00000404
 Iteration  3 RMS(Cart)=  0.00000009 RMS(Int)=  0.00000404
 Variable       Old X    -DE/DX   Delta X   Delta X   Delta X     New X
                                 (Linear)    (Quad)   (Total)
    R1        1.85943   0.00064   0.00000   0.00009   0.00009   1.85952
    R2        3.47581   0.01671   0.00000   0.01900   0.01900   3.49481
    R3        4.19617   0.03160   0.00000   0.01365   0.01365   4.20982
    R4        3.56759   0.00794   0.00000   0.00919   0.00920   3.57679
    R5        1.85278   0.00149   0.00000   0.00029   0.00029   1.85307
    A1        1.35157  -0.00376   0.00000  -0.00407  -0.00407   1.34751
    A2        1.84665  -0.00526   0.00000  -0.00583  -0.00582   1.84083
    A3        3.08209   0.00945   0.00000   0.01028   0.01029   3.09238
    A4        1.72321  -0.00117   0.00000  -0.00664  -0.00664   1.71657
    D1        1.76187   0.00131   0.00000   0.00811   0.00811   1.76998
    D2       -1.68932  -0.00017   0.00000   0.00140   0.00140  -1.68792
         Item               Value     Threshold  Converged?
 Maximum Force            0.031595     0.000450     NO 
 RMS     Force            0.011590     0.000300     NO 
 Maximum Displacement     0.017388     0.001800     NO 
 RMS     Displacement     0.009409     0.001200     NO 
 Predicted change in Energy=-9.432125D-04
 GradGradGradGradGradGradGradGradGradGradGradGradGradGradGradGradGradGrad

                          Input orientation:                          
 ---------------------------------------------------------------------
 Center     Atomic      Atomic             Coordinates (Angstroms)
 Number     Number       Type             X           Y           Z
 ---------------------------------------------------------------------
      1          8           0       -1.434409    0.703304    0.382652
      2          1           0       -1.426684    0.703177   -0.601333
      3          8           0        0.372151    0.717949   -0.012697
      4          1           0        0.544584    1.670433    0.144206
      5         53           0       -3.585402    0.651794    0.960067
 ---------------------------------------------------------------------
                    Distance matrix (angstroms):
                    1          2          3          4          5
     1  O    0.000000
     2  H    0.984015   0.000000
     3  O    1.849372   1.892754   0.000000
     4  H    2.215538   2.318902   0.980600   0.000000
     5  I    2.227742   2.664710   4.075889   4.331286   0.000000
 Stoichiometry    H2IO2(1-)
 Framework group  C1[X(H2IO2)]
 Deg. of freedom     9
 Full point group                 C1      NOp   1
 Largest Abelian subgroup         C1      NOp   1
 Largest concise Abelian subgroup C1      NOp   1
                         Standard orientation:                         
 ---------------------------------------------------------------------
 Center     Atomic      Atomic             Coordinates (Angstroms)
 Number     Number       Type             X           Y           Z
 ---------------------------------------------------------------------
      1          8           0        1.422610    0.030839   -0.019091
      2          1           0        1.674591    0.841397    0.478692
      3          8           0        3.269889    0.005437   -0.103297
      4          1           0        3.435102   -0.663428    0.594486
      5         53           0       -0.804711   -0.008834   -0.001775
 ---------------------------------------------------------------------
 Rotational constants (GHZ):    265.1433213      1.6955566      1.6929927
 Standard basis: LANL2DZ (5D, 7F)
 There are    30 symmetry adapted basis functions of A   symmetry.
 Integral buffers will be    262144 words long.
 Raffenetti 2 integral format.
 Two-electron integral symmetry is turned on.
    30 basis functions,    70 primitive gaussians,    30 cartesian basis functions
    13 alpha electrons       13 beta electrons
       nuclear repulsion energy        54.1259866253 Hartrees.
 NAtoms=    5 NActive=    5 NUniq=    5 SFac= 7.50D-01 NAtFMM=   80 NAOKFM=F Big=F
 ------------------------------------------------------------------------------
 Polarizable Continuum Model (PCM)
 =================================
 Model                : PCM.
 Atomic radii         : SMD-Coulomb.
 Polarization charges : Total charges.
 Charge compensation  : None.
 Solution method      : Matrix inversion.
 Cavity type          : VdW (van der Waals Surface) (Alpha=1.000).
 Cavity algorithm     : GePol (No added spheres)
                        Default sphere list used, NSphG=    5.
                        Lebedev-Laikov grids with approx.  5.0 points / Ang**2.
                        Smoothing algorithm: Karplus/York (Gamma=1.0000).
                        Polarization charges: spherical gaussians, with
                                              point-specific exponents (IZeta= 3).
                        Self-potential: point-specific (ISelfS= 7).
                        Self-field    : sphere-specific E.n sum rule (ISelfD= 2).
 1st derivatives      : Analytical E(r).r(x)/FMM algorithm (CHGder, D1EAlg=3).
                        Cavity 1st derivative terms included.
 Solvent              : Water, Eps=  78.355300 Eps(inf)=   1.777849
 ------------------------------------------------------------------------------
 Spheres list:
 ISph  on   Nord    Re0     Alpha      Xe            Ye            Ze
    1   O      1    1.520   1.000      1.422610      0.030839     -0.019091
    2   H      2    1.200   1.000      1.674591      0.841397      0.478692
    3   O      3    1.520   1.000      3.269889      0.005437     -0.103297
    4   H      4    1.200   1.000      3.435102     -0.663428      0.594486
    5   I      5    1.980   1.000     -0.804711     -0.008834     -0.001775
 ------------------------------------------------------------------------------
 ------------------------------------------------------------------------------
 Atomic radii for non-electrostatic terms: SMD-CDS.
 ------------------------------------------------------------------------------
 Nuclear repulsion after PCM non-electrostatic terms =       54.1279484671 Hartrees.
 One-electron integrals computed using PRISM.
   1 Symmetry operations used in ECPInt.
 ECPInt:  NShTT=     171 NPrTT=    1054 LenC2=     172 LenP2D=     939.
 LDataN:  DoStor=T MaxTD1= 4 Len=   56
 NBasis=    30 RedAO= T  NBF=    30
 NBsUse=    30 1.00D-06 NBFU=    30
 Defaulting to unpruned grid for atomic number  53.
 Initial guess read from the read-write file.
 B after Tr=     0.000000    0.000000    0.000000
         Rot=    1.000000    0.000000    0.000000    0.000000 Ang=   0.00 deg.
 Initial guess orbital symmetries:
       Occupied  (A) (A) (A) (A) (A) (A) (A) (A) (A) (A) (A) (A)
                 (A)
       Virtual   (A) (A) (A) (A) (A) (A) (A) (A) (A) (A) (A) (A)
                 (A) (A) (A) (A) (A)
 Requested convergence on RMS density matrix=1.00D-08 within 128 cycles.
 Requested convergence on MAX density matrix=1.00D-06.
 Requested convergence on             energy=1.00D-06.
 No special actions if energy rises.
 Keep R1 ints in memory in canonical form, NReq=3418707.
 Defaulting to unpruned grid for atomic number  53.
 Defaulting to unpruned grid for atomic number  53.
 Defaulting to unpruned grid for atomic number  53.
 Defaulting to unpruned grid for atomic number  53.
 Error on total polarization charges =  0.08432
 SCF Done:  E(RM062X) =  -162.966607057     A.U. after   11 cycles
             Convg  =    0.8796D-08             -V/T =  2.0576
 SMD-CDS (non-electrostatic) energy             (kcal/mol) =       1.23
 (included in total energy above)
   1 Symmetry operations used in ECPInt.
 ECPInt:  NShTT=     171 NPrTT=    1054 LenC2=     172 LenP2D=     939.
 LDataN:  DoStor=T MaxTD1= 5 Len=  102
 D1PCM: PCM CHGder 1st derivatives, ID1Alg=3 FixD1E=F DoIter=F DoCFld=F I1PDM=0.
 Calling FoFJK, ICntrl=      2127 FMM=F ISym2X=0 I1Cent= 0 IOpClX= 0 NMat=1 NMatS=1 NMatT=0.
 Defaulting to unpruned grid for atomic number  53.
 Defaulting to unpruned grid for atomic number  53.
 Defaulting to unpruned grid for atomic number  53.
 Defaulting to unpruned grid for atomic number  53.
 ***** Axes restored to original set *****
 -------------------------------------------------------------------
 Center     Atomic                   Forces (Hartrees/Bohr)
 Number     Number              X              Y              Z
 -------------------------------------------------------------------
      1        8           0.015165061    0.001654697    0.003427377
      2        1          -0.007637329   -0.001010859   -0.003051344
      3        8           0.021500944   -0.001326879   -0.005389502
      4        1          -0.000207134    0.001273102    0.001211809
      5       53          -0.028821542   -0.000590061    0.003801661
 -------------------------------------------------------------------
 Cartesian Forces:  Max     0.028821542 RMS     0.010503452

 GradGradGradGradGradGradGradGradGradGradGradGradGradGradGradGradGradGrad
 Berny optimization.
 Internal  Forces:  Max     0.028801346 RMS     0.010616269
 Search for a saddle point.
 Step number   6 out of a maximum of   21
 All quantities printed in internal units (Hartrees-Bohrs-Radians)
 Swaping is turned off.
 Update second derivatives using D2CorX and points    1    2    3    4    5
                                                      6
 The second derivative matrix:
                          R1        R2        R3        R4        R5
           R1           0.50068
           R2          -0.02995   0.03264
           R3          -0.04210   0.04763   0.23801
           R4           0.08072   0.02921  -0.08348   0.08035
           R5           0.00173  -0.00544  -0.00540  -0.00218   0.56754
           A1          -0.01386   0.00437  -0.06763   0.02237   0.00111
           A2          -0.00436   0.00346   0.08874  -0.04674  -0.00362
           A3           0.01805  -0.00732  -0.02028   0.02492   0.00264
           A4          -0.00096   0.01111   0.01486   0.00211  -0.01497
           D1           0.00044  -0.00507  -0.00568  -0.00266   0.00272
           D2           0.00021   0.00162   0.00517   0.00127   0.00085
                          A1        A2        A3        A4        D1
           A1           0.01182
           A2          -0.02845   0.09391
           A3           0.01653  -0.06548   0.04938
           A4          -0.00441   0.01041  -0.00600   0.06259
           D1           0.00175  -0.00570   0.00126   0.00589   0.01175
           D2          -0.00015   0.00788  -0.00454   0.00453  -0.00310
                          D2
           D2           0.00327
     Eigenvalues ---   -0.02700   0.00152   0.01066   0.05428   0.07905
     Eigenvalues ---    0.10432   0.32842   0.53386   0.568621000.00000
     Eigenvalues --- 1000.00000
 Eigenvectors required to have negative eigenvalues:
                          R2        A1        R3        R4        A3
   1                    0.57405  -0.49443  -0.37383  -0.37013   0.33097
                          A2        D2        D1        R1        A4
   1                    0.18045   0.05711   0.04166   0.03653  -0.02884
 RFO step:  Lambda0=2.502977237D-05 Lambda=-9.65013125D-03.
 Linear search not attempted -- option 19 set.
 Maximum step size (   0.030) exceeded in Quadratic search.
    -- Step size scaled by   0.087
 Iteration  1 RMS(Cart)=  0.00855523 RMS(Int)=  0.00046317
 Iteration  2 RMS(Cart)=  0.00005064 RMS(Int)=  0.00000553
 Iteration  3 RMS(Cart)=  0.00000006 RMS(Int)=  0.00000553
 Variable       Old X    -DE/DX   Delta X   Delta X   Delta X     New X
                                 (Linear)    (Quad)   (Total)
    R1        1.85952   0.00072   0.00000   0.00011   0.00011   1.85963
    R2        3.49481   0.01540   0.00000   0.01498   0.01498   3.50979
    R3        4.20982   0.02880   0.00000   0.01395   0.01395   4.22377
[...]
    A1        1.33157  -0.00126   0.00000   0.00055   0.00055   1.33212
    A2        1.75174  -0.00112   0.00000  -0.00538  -0.00538   1.74636
    A3        3.07668  -0.00267   0.00000  -0.00543  -0.00543   3.07126
    A4        1.64697  -0.00042   0.00000  -0.00419  -0.00419   1.64278
    D1        1.98681   0.00095   0.00000   0.01813   0.01813   2.00494
    D2        1.52784   0.00016   0.00000   0.01645   0.01645   1.54429
         Item               Value     Threshold  Converged?
 Maximum Force            0.008456     0.000450     NO 
 RMS     Force            0.003219     0.000300     NO 
 Maximum Displacement     0.012934     0.001800     NO 
 RMS     Displacement     0.007184     0.001200     NO 
 Predicted change in Energy=-1.730740D-04
 GradGradGradGradGradGradGradGradGradGradGradGradGradGradGradGradGradGrad

                          Input orientation:                          
 ---------------------------------------------------------------------
 Center     Atomic      Atomic             Coordinates (Angstroms)
 Number     Number       Type             X           Y           Z
 ---------------------------------------------------------------------
      1          8           0       -1.415977    0.693284    0.423303
      2          1           0       -1.463183    0.641633   -0.560021
      3          8           0        0.439343    0.761304   -0.128395
      4          1           0        0.577544    1.675175    0.201281
      5         53           0       -3.667487    0.675261    0.936727
 ---------------------------------------------------------------------
                    Distance matrix (angstroms):
                    1          2          3          4          5
     1  O    0.000000
     2  H    0.985810   0.000000
     3  O    1.936804   1.954541   0.000000
     4  H    2.233278   2.410883   0.981298   0.000000
     5  I    2.309378   2.664647   4.243577   4.422782   0.000000
 Stoichiometry    H2IO2(1-)
 Framework group  C1[X(H2IO2)]
 Deg. of freedom     9
 Full point group                 C1      NOp   1
 Largest Abelian subgroup         C1      NOp   1
 Largest concise Abelian subgroup C1      NOp   1
                         Standard orientation:                         
 ---------------------------------------------------------------------
 Center     Atomic      Atomic             Coordinates (Angstroms)
 Number     Number       Type             X           Y           Z
 ---------------------------------------------------------------------
      1          8           0       -1.473281    0.010621   -0.087786
      2          1           0       -1.669155   -0.778420    0.469771
      3          8           0       -3.408638   -0.049911   -0.043748
      4          1           0       -3.494591    0.796242    0.445725
      5         53           0        0.834323    0.005594    0.002581
 ---------------------------------------------------------------------
 Rotational constants (GHZ):    274.4896961      1.5723313      1.5687483
 Standard basis: LANL2DZ (5D, 7F)
 There are    30 symmetry adapted basis functions of A   symmetry.
 Integral buffers will be    262144 words long.
 Raffenetti 2 integral format.
 Two-electron integral symmetry is turned on.
    30 basis functions,    70 primitive gaussians,    30 cartesian basis functions
    13 alpha electrons       13 beta electrons
       nuclear repulsion energy        52.4186065972 Hartrees.
 NAtoms=    5 NActive=    5 NUniq=    5 SFac= 7.50D-01 NAtFMM=   80 NAOKFM=F Big=F
 ------------------------------------------------------------------------------
 Polarizable Continuum Model (PCM)
 =================================
 Model                : PCM.
 Atomic radii         : SMD-Coulomb.
 Polarization charges : Total charges.
 Charge compensation  : None.
 Solution method      : Matrix inversion.
 Cavity type          : VdW (van der Waals Surface) (Alpha=1.000).
 Cavity algorithm     : GePol (No added spheres)
                        Default sphere list used, NSphG=    5.
                        Lebedev-Laikov grids with approx.  5.0 points / Ang**2.
                        Smoothing algorithm: Karplus/York (Gamma=1.0000).
                        Polarization charges: spherical gaussians, with
                                              point-specific exponents (IZeta= 3).
                        Self-potential: point-specific (ISelfS= 7).
                        Self-field    : sphere-specific E.n sum rule (ISelfD= 2).
 1st derivatives      : Analytical E(r).r(x)/FMM algorithm (CHGder, D1EAlg=3).
                        Cavity 1st derivative terms included.
 Solvent              : Water, Eps=  78.355300 Eps(inf)=   1.777849
 ------------------------------------------------------------------------------
 Spheres list:
 ISph  on   Nord    Re0     Alpha      Xe            Ye            Ze
    1   O      1    1.520   1.000     -1.473281      0.010621     -0.087786
    2   H      2    1.200   1.000     -1.669155     -0.778420      0.469771
    3   O      3    1.520   1.000     -3.408638     -0.049911     -0.043748
    4   H      4    1.200   1.000     -3.494591      0.796242      0.445725
    5   I      5    1.980   1.000      0.834323      0.005594      0.002581
 ------------------------------------------------------------------------------
 ------------------------------------------------------------------------------
 Atomic radii for non-electrostatic terms: SMD-CDS.
 ------------------------------------------------------------------------------
 Nuclear repulsion after PCM non-electrostatic terms =       52.4205094464 Hartrees.
 One-electron integrals computed using PRISM.
   1 Symmetry operations used in ECPInt.
 ECPInt:  NShTT=     171 NPrTT=    1054 LenC2=     172 LenP2D=     934.
 LDataN:  DoStor=T MaxTD1= 4 Len=   56
 NBasis=    30 RedAO= T  NBF=    30
 NBsUse=    30 1.00D-06 NBFU=    30
 Defaulting to unpruned grid for atomic number  53.
 Initial guess read from the read-write file.
 B after Tr=     0.000000    0.000000    0.000000
         Rot=    1.000000    0.000000    0.000000    0.000000 Ang=   0.00 deg.
 Initial guess orbital symmetries:
       Occupied  (A) (A) (A) (A) (A) (A) (A) (A) (A) (A) (A) (A)
                 (A)
       Virtual   (A) (A) (A) (A) (A) (A) (A) (A) (A) (A) (A) (A)
                 (A) (A) (A) (A) (A)
 Requested convergence on RMS density matrix=1.00D-08 within 128 cycles.
 Requested convergence on MAX density matrix=1.00D-06.
 Requested convergence on             energy=1.00D-06.
 No special actions if energy rises.
 Keep R1 ints in memory in canonical form, NReq=3427405.
 Defaulting to unpruned grid for atomic number  53.
 Defaulting to unpruned grid for atomic number  53.
 Defaulting to unpruned grid for atomic number  53.
 Defaulting to unpruned grid for atomic number  53.
 Error on total polarization charges =  0.08322
 SCF Done:  E(RM062X) =  -162.972689496     A.U. after   11 cycles
             Convg  =    0.3488D-08             -V/T =  2.0585
 SMD-CDS (non-electrostatic) energy             (kcal/mol) =       1.19
 (included in total energy above)
   1 Symmetry operations used in ECPInt.
 ECPInt:  NShTT=     171 NPrTT=    1054 LenC2=     172 LenP2D=     934.
 LDataN:  DoStor=T MaxTD1= 5 Len=  102
 D1PCM: PCM CHGder 1st derivatives, ID1Alg=3 FixD1E=F DoIter=F DoCFld=F I1PDM=0.
 Calling FoFJK, ICntrl=      2127 FMM=F ISym2X=0 I1Cent= 0 IOpClX= 0 NMat=1 NMatS=1 NMatT=0.
 Defaulting to unpruned grid for atomic number  53.
 Defaulting to unpruned grid for atomic number  53.
 Defaulting to unpruned grid for atomic number  53.
 Defaulting to unpruned grid for atomic number  53.
 ***** Axes restored to original set *****
 -------------------------------------------------------------------
 Center     Atomic                   Forces (Hartrees/Bohr)
 Number     Number              X              Y              Z
 -------------------------------------------------------------------
      1        8           0.003409084    0.000970511    0.001539599
      2        1          -0.001803450   -0.000549310   -0.000273815
      3        8           0.005890672   -0.000021673   -0.002765083
      4        1          -0.000056009    0.000207435    0.000607987
      5       53          -0.007440297   -0.000606963    0.000891311
 -------------------------------------------------------------------
 Cartesian Forces:  Max     0.007440297 RMS     0.002802928

 GradGradGradGradGradGradGradGradGradGradGradGradGradGradGradGradGradGrad
 Berny optimization.
 Internal  Forces:  Max     0.007484811 RMS     0.002846535
 Search for a saddle point.
 Step number  21 out of a maximum of   21
 All quantities printed in internal units (Hartrees-Bohrs-Radians)
 Swaping is turned off.
 Update second derivatives using D2CorX and points   13   14   15   16   17
                                                     18   19   20   21
 The second derivative matrix:
                          R1        R2        R3        R4        R5
           R1           0.50580
           R2          -0.01997   0.00359
           R3          -0.04991   0.05662   0.19995
           R4           0.07942   0.02231  -0.08264   0.08370
           R5           0.00063  -0.00353  -0.00688  -0.00245   0.56721
           A1          -0.01969   0.01285  -0.07005   0.02788   0.00018
           A2          -0.00825  -0.01697   0.11155  -0.05897  -0.00219
           A3          -0.00064   0.01825  -0.04101   0.01733   0.00141
           A4           0.00014   0.01119   0.01518   0.00113  -0.01535
           D1          -0.00310  -0.00581  -0.01648  -0.00019   0.00330
           D2          -0.00043  -0.00061  -0.00127  -0.00040  -0.00026
                          A1        A2        A3        A4        D1
           A1           0.01175
           A2          -0.02576   0.10120
           A3           0.00212  -0.01085   0.05851
           A4          -0.00514   0.01162  -0.00660   0.06473
           D1           0.00377  -0.00498   0.00043   0.00104   0.01417
           D2           0.00000  -0.00023   0.00150  -0.00093   0.00074
                          D2
           D2           0.00024
     Eigenvalues ---   -0.05920   0.00020   0.01180   0.05259   0.05825
     Eigenvalues ---    0.08102   0.30529   0.53553   0.568031000.00000
     Eigenvalues --- 1000.00000
 Eigenvectors required to have negative eigenvalues:
                          R2        R3        A1        A2        A3
   1                    0.69364  -0.45361  -0.42718   0.24238  -0.20514
                          R4        A4        D1        R1        R5
   1                   -0.16269  -0.05709  -0.00655  -0.00408  -0.00164
 RFO step:  Lambda0=5.205380469D-07 Lambda=-1.23753160D-03.
 Linear search not attempted -- option 19 set.
 Maximum step size (   0.030) exceeded in Quadratic search.
    -- Step size scaled by   0.121
 Iteration  1 RMS(Cart)=  0.00661989 RMS(Int)=  0.00016819
 Iteration  2 RMS(Cart)=  0.00005150 RMS(Int)=  0.00000076
 Iteration  3 RMS(Cart)=  0.00000000 RMS(Int)=  0.00000076
 Variable       Old X    -DE/DX   Delta X   Delta X   Delta X     New X
                                 (Linear)    (Quad)   (Total)
    R1        1.86291  -0.00013   0.00000   0.00007   0.00007   1.86299
    R2        3.66003   0.00454   0.00000   0.00737   0.00738   3.66741
    R3        4.36409   0.00748   0.00000   0.00898   0.00898   4.37307
    R4        3.69355   0.00193   0.00000   0.00718   0.00718   3.70073
    R5        1.85438   0.00029   0.00000   0.00005   0.00005   1.85443
    A1        1.33212  -0.00111   0.00000   0.00041   0.00041   1.33253
    A2        1.74636  -0.00098   0.00000  -0.00472  -0.00472   1.74164
    A3        3.07126  -0.00235   0.00000  -0.00473  -0.00473   3.06653
    A4        1.64278  -0.00037   0.00000  -0.00371  -0.00371   1.63907
    D1        2.00494   0.00087   0.00000   0.01711   0.01711   2.02205
    D2        1.54429   0.00016   0.00000   0.01903   0.01903   1.56332
         Item               Value     Threshold  Converged?
 Maximum Force            0.007485     0.000450     NO 
 RMS     Force            0.002847     0.000300     NO 
 Maximum Displacement     0.011818     0.001800     NO 
 RMS     Displacement     0.006617     0.001200     NO 
 Predicted change in Energy=-1.407141D-04
 Optimization stopped.
    -- Number of steps exceeded,  NStep=  21
    -- Flag reset to prevent archiving.
                           ----------------------------
                           ! Non-Optimized Parameters !
                           ! (Angstroms and Degrees)  !
 --------------------------                            --------------------------
 ! Name  Definition              Value          Derivative Info.                !
 --------------------------------------------------------------------------------
 ! R1    R(1,2)                  0.9858         -DE/DX =   -0.0001              !
 ! R2    R(1,3)                  1.9407         -DE/DX =    0.0045              !
 ! R3    R(1,5)                  2.3141         -DE/DX =    0.0075              !
 ! R4    R(2,3)                  1.9583         -DE/DX =    0.0019              !
 ! R5    R(3,4)                  0.9813         -DE/DX =    0.0003              !
 ! A1    A(2,1,3)               76.3481         -DE/DX =   -0.0011              !
 ! A2    A(2,1,5)               99.7887         -DE/DX =   -0.001               !
 ! A3    A(3,1,5)              175.699          -DE/DX =   -0.0024              !
 ! A4    A(1,3,4)               93.9117         -DE/DX =   -0.0004              !
 ! D1    D(2,1,3,4)            115.8549         -DE/DX =    0.0009              !
 ! D2    D(5,1,3,4)             89.5716         -DE/DX =    0.0002              !
 --------------------------------------------------------------------------------
 GradGradGradGradGradGradGradGradGradGradGradGradGradGradGradGradGradGrad

                          Input orientation:                          
 ---------------------------------------------------------------------
 Center     Atomic      Atomic             Coordinates (Angstroms)
 Number     Number       Type             X           Y           Z
 ---------------------------------------------------------------------
      1          8           0       -1.415977    0.693284    0.423303
      2          1           0       -1.463183    0.641633   -0.560021
      3          8           0        0.439343    0.761304   -0.128395
      4          1           0        0.577544    1.675175    0.201281
      5         53           0       -3.667487    0.675261    0.936727
 ---------------------------------------------------------------------
                    Distance matrix (angstroms):
                    1          2          3          4          5
     1  O    0.000000
     2  H    0.985810   0.000000
     3  O    1.936804   1.954541   0.000000
     4  H    2.233278   2.410883   0.981298   0.000000
     5  I    2.309378   2.664647   4.243577   4.422782   0.000000
 Stoichiometry    H2IO2(1-)
 Framework group  C1[X(H2IO2)]
 Deg. of freedom     9
 Full point group                 C1      NOp   1
 Largest Abelian subgroup         C1      NOp   1
 Largest concise Abelian subgroup C1      NOp   1
                         Standard orientation:                         
 ---------------------------------------------------------------------
 Center     Atomic      Atomic             Coordinates (Angstroms)
 Number     Number       Type             X           Y           Z
 ---------------------------------------------------------------------
      1          8           0       -1.473281    0.010621   -0.087786
      2          1           0       -1.669155   -0.778420    0.469771
      3          8           0       -3.408638   -0.049911   -0.043748
      4          1           0       -3.494591    0.796242    0.445725
      5         53           0        0.834323    0.005594    0.002581
 ---------------------------------------------------------------------
 Rotational constants (GHZ):    274.4896961      1.5723313      1.5687483

 **********************************************************************

            Population analysis using the SCF density.

 **********************************************************************

 Orbital symmetries:
       Occupied  (A) (A) (A) (A) (A) (A) (A) (A) (A) (A) (A) (A)
                 (A)
       Virtual   (A) (A) (A) (A) (A) (A) (A) (A) (A) (A) (A) (A)
                 (A) (A) (A) (A) (A)
 The electronic state is 1-A.
 Alpha  occ. eigenvalues --  -19.67995 -19.58236  -1.10848  -1.00106  -0.69080
 Alpha  occ. eigenvalues --   -0.52673  -0.46462  -0.42739  -0.39606  -0.32635
 Alpha  occ. eigenvalues --   -0.28496  -0.27983  -0.25411
 Alpha virt. eigenvalues --   -0.03928   0.16566   0.21962   0.42983   0.44251
 Alpha virt. eigenvalues --    0.44829   0.67866   0.71244   0.77922   0.78523
 Alpha virt. eigenvalues --    0.84665   0.96399   1.00130   1.10130   1.38966
 Alpha virt. eigenvalues --    1.74254   9.43268
          Condensed to atoms (all electrons):
              1          2          3          4          5
     1  O    8.437483   0.249464  -0.029802  -0.006017  -0.031428
     2  H    0.249464   0.306632   0.001794  -0.001862  -0.011718
     3  O   -0.029802   0.001794   8.631895   0.265331   0.021408
     4  H   -0.006017  -0.001862   0.265331   0.367817  -0.000774
     5  I   -0.031428  -0.011718   0.021408  -0.000774   7.343382
 Mulliken atomic charges:
              1
     1  O   -0.619700
     2  H    0.455690
     3  O   -0.890627
     4  H    0.375506
     5  I   -0.320870
 Sum of Mulliken atomic charges =  -1.00000
 Mulliken charges with hydrogens summed into heavy atoms:
              1
     1  O   -0.164010
     3  O   -0.515120
     5  I   -0.320870
 Sum of Mulliken charges with hydrogens summed into heavy atoms =  -1.00000
 Electronic spatial extent (au):  <R**2>=            571.1288
 Charge=             -1.0000 electrons
 Dipole moment (field-independent basis, Debye):
    X=              6.7565    Y=              0.1027    Z=              2.6432  Tot=              7.2558
 Quadrupole moment (field-independent basis, Debye-Ang):
   XX=            -64.8774   YY=            -33.6298   ZZ=            -35.9303
   XY=             -4.0055   XZ=             -6.6242   YZ=             -0.1266
 Traceless Quadrupole moment (field-independent basis, Debye-Ang):
   XX=            -20.0649   YY=             11.1827   ZZ=              8.8822
   XY=             -4.0055   XZ=             -6.6242   YZ=             -0.1266
 Octapole moment (field-independent basis, Debye-Ang**2):
  XXX=            147.1453  YYY=              0.2208  ZZZ=              1.8965  XYY=              7.4941
  XXY=             20.3701  XXZ=             19.7851  XZZ=             13.4037  YZZ=              0.0626
  YYZ=              1.5666  XYZ=             -1.5899
 Hexadecapole moment (field-independent basis, Debye-Ang**3):
 XXXX=          -1055.4107 YYYY=            -54.5796 ZZZZ=            -55.3929 XXXY=            -82.5776
 XXXZ=            -63.6168 YYYX=             -3.3646 YYYZ=             -0.1299 ZZZX=             -4.3589
 ZZZY=             -0.1317 XXYY=           -110.9008 XXZZ=           -127.9231 YYZZ=            -18.0296
 XXYZ=              8.7084 YYXZ=             -3.7746 ZZXY=             -1.0429
 N-N= 5.242050944640D+01 E-N=-4.916184180021D+02  KE= 1.539596760925D+02


 SCIENCE IS A VERY HUMAN FORM OF KNOWLEDGE.
 WE ARE ALWAYS AT THE BRINK OF THE KNOWN,
 WE ALWAYS FEEL FORWARD FOR WHAT IS HOPED.
 EVERY JUDGEMENT IN SCIENCE STANDS ON THE EDGE OF ERROR, AND IS PERSONAL.
 SCIENCE IS A TRIBUTE TO WHAT WE CAN KNOW ALTHOUGH WE ARE FALLIBLE.

                     -- J. BRONOWSKI
 Error termination request processed by link 9999.
 Error termination via Lnk1e in C:\G09W\l9999.exe at Tue Feb 02 03:08:02 2021.
 Job cpu time:  0 days  0 hours  1 minutes 55.0 seconds.
 File lengths (MBytes):  RWF=     18 Int=      0 D2E=      0 Chk=      2 Scr=      1
