 Entering Link 1 = C:\G09W\l1.exe PID=      7668.
  
 Copyright (c) 1988,1990,1992,1993,1995,1998,2003,2009, Gaussian, Inc.
                  All Rights Reserved.
  
 This is part of the Gaussian(R) 09 program.  It is based on
 the Gaussian(R) 03 system (copyright 2003, Gaussian, Inc.),
 the Gaussian(R) 98 system (copyright 1998, Gaussian, Inc.),
 the Gaussian(R) 94 system (copyright 1995, Gaussian, Inc.),
 the Gaussian 92(TM) system (copyright 1992, Gaussian, Inc.),
 the Gaussian 90(TM) system (copyright 1990, Gaussian, Inc.),
 the Gaussian 88(TM) system (copyright 1988, Gaussian, Inc.),
 the Gaussian 86(TM) system (copyright 1986, Carnegie Mellon
 University), and the Gaussian 82(TM) system (copyright 1983,
 Carnegie Mellon University). Gaussian is a federally registered
 trademark of Gaussian, Inc.
  
 This software contains proprietary and confidential information,
 including trade secrets, belonging to Gaussian, Inc.
  
 This software is provided under written license and may be
 used, copied, transmitted, or stored only in accord with that
 written license.
  
 The following legend is applicable only to US Government
 contracts under FAR:
  
                    RESTRICTED RIGHTS LEGEND
  
 Use, reproduction and disclosure by the US Government is
 subject to restrictions as set forth in subparagraphs (a)
 and (c) of the Commercial Computer Software - Restricted
 Rights clause in FAR 52.227-19.
  
 Gaussian, Inc.
 340 Quinnipiac St., Bldg. 40, Wallingford CT 06492
  
  
 ---------------------------------------------------------------
 Warning -- This program may not be used in any manner that
 competes with the business of Gaussian, Inc. or will provide
 assistance to any competitor of Gaussian, Inc.  The licensee
 of this program is prohibited from giving any competitor of
 Gaussian, Inc. access to this program.  By using this program,
 the user acknowledges that Gaussian, Inc. is engaged in the
 business of creating and licensing software in the field of
 computational chemistry and represents and warrants to the
 licensee that it is not a competitor of Gaussian, Inc. and that
 it will not use this program in any manner prohibited above.
 ---------------------------------------------------------------
  

 Cite this work as:
 Gaussian 09, Revision A.02,
 M. J. Frisch, G. W. Trucks, H. B. Schlegel, G. E. Scuseria, 
 M. A. Robb, J. R. Cheeseman, G. Scalmani, V. Barone, B. Mennucci, 
 G. A. Petersson, H. Nakatsuji, M. Caricato, X. Li, H. P. Hratchian, 
 A. F. Izmaylov, J. Bloino, G. Zheng, J. L. Sonnenberg, M. Hada, 
 M. Ehara, K. Toyota, R. Fukuda, J. Hasegawa, M. Ishida, T. Nakajima, 
 Y. Honda, O. Kitao, H. Nakai, T. Vreven, J. A. Montgomery, Jr., 
 J. E. Peralta, F. Ogliaro, M. Bearpark, J. J. Heyd, E. Brothers, 
 K. N. Kudin, V. N. Staroverov, R. Kobayashi, J. Normand, 
 K. Raghavachari, A. Rendell, J. C. Burant, S. S. Iyengar, J. Tomasi, 
 M. Cossi, N. Rega, J. M. Millam, M. Klene, J. E. Knox, J. B. Cross, 
 V. Bakken, C. Adamo, J. Jaramillo, R. Gomperts, R. E. Stratmann, 
 O. Yazyev, A. J. Austin, R. Cammi, C. Pomelli, J. W. Ochterski, 
 R. L. Martin, K. Morokuma, V. G. Zakrzewski, G. A. Voth, 
 P. Salvador, J. J. Dannenberg, S. Dapprich, A. D. Daniels, 
 O. Farkas, J. B. Foresman, J. V. Ortiz, J. Cioslowski, 
 and D. J. Fox, Gaussian, Inc., Wallingford CT, 2009.
 
 ******************************************
 Gaussian 09:  IA32W-G09RevA.02 11-Jun-2009
                09-Feb-2021 
 ******************************************
 %chk=D:\Documents\rayGit\FQ\quimicaComputacional\proyecto\decompositionHydrogenP
 eroxide\descompositionByRadicals\gasPhase\step4\ts\Q2ST\ts\martes\top\ts.chk
 %mem=1500MB
 %nprocshared=4
 Will use up to    4 processors via shared memory.
 ----------------------------------------------------------------------
 # opt=(calcfc,ts,noeigen,maxcycles=100) freq=noraman 6-31+g(d,p) m062x
 ----------------------------------------------------------------------
 1/5=1,6=100,10=4,11=1,14=-1,18=20,26=3,38=1/1,3;
 2/9=110,12=2,17=6,18=5,40=1/2;
 3/5=1,6=6,7=111,11=2,16=1,25=1,30=1,71=2,74=-55/1,2,3;
 4//1;
 5/5=2,38=5/2;
 8/6=4,10=90,11=11/1;
 11/6=1,8=1,9=11,15=111,16=1/1,2,10;
 10/6=1,7=6,13=1/2;
 6/7=2,8=2,9=2,10=2,28=1/1;
 7/10=1,18=20,25=1/1,2,3,16;
 1/5=1,6=100,10=4,11=1,14=-1,18=20/3(2);
 2/9=110/2;
 99//99;
 2/9=110/2;
 3/5=1,6=6,7=111,11=2,16=1,25=1,30=1,71=1,74=-55/1,2,3;
 4/5=5,16=3/1;
 5/5=2,38=5/2;
 7//1,2,3,16;
 1/5=1,6=100,11=1,14=-1,18=20/3(-5);
 2/9=110/2;
 6/7=2,8=2,9=2,10=2,19=2,28=1/1;
 99/9=1/99;
 ------------
 ts OOH vs OH
 ------------
 Symbolic Z-matrix:
 Charge =  0 Multiplicity = 1
 O                    -2.42784   1.18873   0. 
 O                    -1.16932   0.7906    0. 
 H                     0.01113   0.85092   0. 
 O                     0.60383  -0.13458   0. 
 H                     1.08342  -0.93203   0. 
 

 GradGradGradGradGradGradGradGradGradGradGradGradGradGradGradGradGradGrad
 Berny optimization.
 Initialization pass.
                           ----------------------------
                           !    Initial Parameters    !
                           ! (Angstroms and Degrees)  !
 --------------------------                            --------------------------
 ! Name  Definition              Value          Derivative Info.                !
 --------------------------------------------------------------------------------
 ! R1    R(1,2)                  1.32           calculate D2E/DX2 analytically  !
 ! R2    R(2,3)                  1.182          calculate D2E/DX2 analytically  !
 ! R3    R(3,4)                  1.15           calculate D2E/DX2 analytically  !
 ! R4    R(4,5)                  0.9306         calculate D2E/DX2 analytically  !
 ! A1    A(1,2,3)              159.5204         calculate D2E/DX2 analytically  !
 ! A2    A(2,3,4)              118.0982         calculate D2E/DX2 analytically  !
 ! A3    L(3,4,5,2,-1)         180.0            calculate D2E/DX2 analytically  !
 ! A4    L(3,4,5,2,-2)         180.0            calculate D2E/DX2 analytically  !
 ! D1    D(1,2,3,4)            180.0            calculate D2E/DX2 analytically  !
 --------------------------------------------------------------------------------
 Trust Radius=3.00D-01 FncErr=1.00D-07 GrdErr=1.00D-06
 Number of steps in this run= 100 maximum allowed number of steps= 100.
 Search for a saddle point of order  1.
 GradGradGradGradGradGradGradGradGradGradGradGradGradGradGradGradGradGrad

                          Input orientation:                          
 ---------------------------------------------------------------------
 Center     Atomic      Atomic             Coordinates (Angstroms)
 Number     Number       Type             X           Y           Z
 ---------------------------------------------------------------------
      1          8           0       -2.427845    1.188726    0.000000
      2          8           0       -1.169316    0.790598    0.000000
      3          1           0        0.011132    0.850916    0.000000
      4          8           0        0.603827   -0.134585    0.000000
      5          1           0        1.083421   -0.932029    0.000000
 ---------------------------------------------------------------------
                    Distance matrix (angstroms):
                    1          2          3          4          5
     1  O    0.000000
     2  O    1.320000   0.000000
     3  H    2.462260   1.181988   0.000000
     4  O    3.307897   2.000000   1.150000   0.000000
     5  H    4.102023   2.835890   2.080553   0.930553   0.000000
 Stoichiometry    H2O3
 Framework group  CS[SG(H2O3)]
 Deg. of freedom     7
 Full point group                 CS      NOp   2
 Largest Abelian subgroup         CS      NOp   2
 Largest concise Abelian subgroup C1      NOp   1
                         Standard orientation:                         
 ---------------------------------------------------------------------
 Center     Atomic      Atomic             Coordinates (Angstroms)
 Number     Number       Type             X           Y           Z
 ---------------------------------------------------------------------
      1          8           0       -0.459057    1.605640    0.000000
      2          8           0        0.000000    0.368034    0.000000
      3          1           0        0.772813   -0.526312    0.000000
      4          8           0        0.359356   -1.599417    0.000000
      5          1           0        0.024796   -2.467747    0.000000
 ---------------------------------------------------------------------
 Rotational constants (GHZ):    552.8461888      5.2824028      5.2324075
 Standard basis: 6-31+G(d,p) (6D, 7F)
 There are    50 symmetry adapted basis functions of A'  symmetry.
 There are    17 symmetry adapted basis functions of A"  symmetry.
 Integral buffers will be    262144 words long.
 Raffenetti 2 integral format.
 Two-electron integral symmetry is turned on.
    67 basis functions,   110 primitive gaussians,    67 cartesian basis functions
    13 alpha electrons       13 beta electrons
       nuclear repulsion energy        69.1397740930 Hartrees.
 NAtoms=    5 NActive=    5 NUniq=    5 SFac= 7.50D-01 NAtFMM=   80 NAOKFM=F Big=F
 One-electron integrals computed using PRISM.
 NBasis=    67 RedAO= T  NBF=    50    17
 NBsUse=    67 1.00D-06 NBFU=    50    17
 Harris functional with IExCor= 1009 diagonalized for initial guess.
 ExpMin= 8.45D-02 ExpMax= 5.48D+03 ExpMxC= 8.25D+02 IAcc=2 IRadAn=         0 AccDes= 0.00D+00
 HarFok:  IExCor= 1009 AccDes= 0.00D+00 IRadAn=         0 IDoV= 1
 ScaDFX=  1.000000  1.000000  1.000000  1.000000
 FoFCou: FMM=F IPFlag=           0 FMFlag=      100000 FMFlg1=           0
         NFxFlg=           0 DoJE=T BraDBF=F KetDBF=T FulRan=T
         Omega=  0.000000  0.000000  1.000000  0.000000  0.000000 ICntrl=     500 IOpCl=  0
         NMat0=    1 NMatS0=    1 NMatT0=    0 NMatD0=    1 NMtDS0=    0 NMtDT0=    0
         I1Cent=           4 NGrid=           0.
 Petite list used in FoFCou.
 Initial guess orbital symmetries:
       Occupied  (A') (A') (A') (A') (A') (A') (A') (A') (A') (A")
                 (A") (A') (A')
       Virtual   (A") (A') (A') (A') (A') (A") (A') (A') (A") (A')
                 (A') (A") (A') (A') (A') (A') (A') (A") (A') (A')
                 (A') (A") (A') (A') (A") (A') (A') (A") (A') (A')
                 (A") (A") (A') (A') (A') (A") (A') (A") (A') (A')
                 (A') (A") (A') (A") (A') (A') (A') (A") (A') (A')
                 (A') (A') (A') (A')
 The electronic state of the initial guess is 1-A'.
 Requested convergence on RMS density matrix=1.00D-08 within 128 cycles.
 Requested convergence on MAX density matrix=1.00D-06.
 Requested convergence on             energy=1.00D-06.
 No special actions if energy rises.
 Keep R1 ints in memory in canonical form, NReq=3551239.
 Integral accuracy reduced to 1.0D-05 until final iterations.
 Initial convergence to 1.0D-05 achieved.  Increase integral accuracy.
 SCF Done:  E(RM062X) =  -226.463045178     A.U. after   19 cycles
             Convg  =    0.7380D-08             -V/T =  2.0087
 Range of M.O.s used for correlation:     1    67
 NBasis=    67 NAE=    13 NBE=    13 NFC=     0 NFV=     0
 NROrb=     67 NOA=    13 NOB=    13 NVA=    54 NVB=    54

 **** Warning!!: The largest alpha MO coefficient is  0.33811536D+02

 Symmetrizing basis deriv contribution to polar:
 IMax=3 JMax=2 DiffMx= 0.00D+00
 G2DrvN: will do     6 centers at a time, making    1 passes doing MaxLOS=2.
 Calling FoFCou, ICntrl=  3107 FMM=F I1Cent=   0 AccDes= 0.00D+00.
 FoFDir/FoFCou used for L=0 through L=2.
 End of G2Drv Frequency-dependent properties file   721 does not exist.
 End of G2Drv Frequency-dependent properties file   722 does not exist.
          IDoAtm=11111
          Differentiating once with respect to nuclear coordinates.
          Keep R1 ints in memory in canonical form, NReq=3416970.
          There are    18 degrees of freedom in the 1st order CPHF.  IDoFFX=5.
     12 vectors produced by pass  0 Test12= 3.90D-11 5.56D-07 XBig12= 1.52D-01 2.97D-01.
 AX will form    12 AO Fock derivatives at one time.
     12 vectors produced by pass  1 Test12= 3.90D-11 5.56D-07 XBig12= 1.87D-02 9.75D-02.
     12 vectors produced by pass  2 Test12= 3.90D-11 5.56D-07 XBig12= 1.62D-03 1.24D-02.
     12 vectors produced by pass  3 Test12= 3.90D-11 5.56D-07 XBig12= 4.63D-05 1.36D-03.
     12 vectors produced by pass  4 Test12= 3.90D-11 5.56D-07 XBig12= 8.49D-07 2.08D-04.
      9 vectors produced by pass  5 Test12= 3.90D-11 5.56D-07 XBig12= 4.67D-09 1.42D-05.
      1 vectors produced by pass  6 Test12= 3.90D-11 5.56D-07 XBig12= 1.34D-11 7.80D-07.
 Inverted reduced A of dimension    70 with in-core refinement.
 End of Minotr Frequency-dependent properties file   721 does not exist.
 End of Minotr Frequency-dependent properties file   722 does not exist.

 **********************************************************************

            Population analysis using the SCF density.

 **********************************************************************

 Orbital symmetries:
       Occupied  (A') (A') (A') (A') (A') (A') (A') (A') (A") (A')
                 (A') (A") (A')
       Virtual   (A") (A') (A') (A') (A") (A') (A') (A') (A") (A')
                 (A') (A") (A') (A') (A') (A') (A') (A") (A') (A')
                 (A") (A') (A') (A') (A") (A') (A') (A") (A') (A')
                 (A") (A') (A") (A') (A') (A') (A") (A") (A') (A')
                 (A") (A') (A') (A") (A') (A') (A') (A") (A') (A')
                 (A') (A') (A') (A')
 The electronic state is 1-A'.
 Alpha  occ. eigenvalues --  -19.84817 -19.84124 -19.61940  -1.36932  -1.10226
 Alpha  occ. eigenvalues --   -0.99730  -0.71821  -0.61211  -0.58424  -0.54419
 Alpha  occ. eigenvalues --   -0.41833  -0.36492  -0.35664
 Alpha virt. eigenvalues --   -0.18578   0.05298   0.08395   0.11502   0.14308
 Alpha virt. eigenvalues --    0.15610   0.15679   0.19070   0.20798   0.23086
 Alpha virt. eigenvalues --    0.25159   0.26238   0.30952   0.38778   0.40924
 Alpha virt. eigenvalues --    0.47971   0.85618   1.07998   1.09718   1.12192
 Alpha virt. eigenvalues --    1.13121   1.13256   1.18129   1.23273   1.26362
 Alpha virt. eigenvalues --    1.29130   1.30902   1.39879   1.41490   1.56294
 Alpha virt. eigenvalues --    1.59760   1.59800   1.62322   1.64322   1.77895
 Alpha virt. eigenvalues --    1.85821   1.86766   1.90782   1.91471   2.01904
 Alpha virt. eigenvalues --    2.21985   2.23738   2.32929   2.56380   2.60231
 Alpha virt. eigenvalues --    2.75392   2.94624   2.95413   3.23847   3.51304
 Alpha virt. eigenvalues --    3.74082   3.84261   4.19991   4.83504
          Condensed to atoms (all electrons):
              1          2          3          4          5
     1  O    7.984557   0.221313  -0.012244  -0.073581   0.000373
     2  O    0.221313   7.767764   0.069237  -0.119398   0.014092
     3  H   -0.012244   0.069237   0.245488   0.204145  -0.011304
     4  O   -0.073581  -0.119398   0.204145   8.541171   0.296624
     5  H    0.000373   0.014092  -0.011304   0.296624   0.282504
 Mulliken atomic charges:
              1
     1  O   -0.120419
     2  O    0.046992
     3  H    0.504678
     4  O   -0.848962
     5  H    0.417711
 Sum of Mulliken atomic charges =   0.00000
 Mulliken charges with hydrogens summed into heavy atoms:
              1
     1  O   -0.120419
     2  O    0.046992
     4  O    0.073428
 Sum of Mulliken charges with hydrogens summed into heavy atoms =   0.00000
 APT atomic charges:
              1
     1  O    0.266015
     2  O   -0.361684
     3  H    0.386467
     4  O   -1.139741
     5  H    0.848943
 Sum of APT charges=   0.00000
 APT Atomic charges with hydrogens summed into heavy atoms:
              1
     1  O    0.266015
     2  O   -0.361684
     3  H    0.000000
     4  O    0.095669
     5  H    0.000000
 Sum of APT charges=   0.00000
 Electronic spatial extent (au):  <R**2>=            222.4479
 Charge=              0.0000 electrons
 Dipole moment (field-independent basis, Debye):
    X=              0.0512    Y=              0.5056    Z=              0.0000  Tot=              0.5082
 Quadrupole moment (field-independent basis, Debye-Ang):
   XX=            -17.9122   YY=            -14.7818   ZZ=            -17.4268
   XY=              1.7599   XZ=              0.0000   YZ=              0.0000
 Traceless Quadrupole moment (field-independent basis, Debye-Ang):
   XX=             -1.2053   YY=              1.9251   ZZ=             -0.7198
   XY=              1.7599   XZ=              0.0000   YZ=              0.0000
 Octapole moment (field-independent basis, Debye-Ang**2):
  XXX=             -0.3855  YYY=            -12.9490  ZZZ=              0.0000  XYY=             -5.8998
  XXY=              2.3036  XXZ=              0.0000  XZZ=             -0.7846  YZZ=              3.0873
  YYZ=              0.0000  XYZ=              0.0000
 Hexadecapole moment (field-independent basis, Debye-Ang**3):
 XXXX=            -29.0867 YYYY=           -154.2785 ZZZZ=            -14.8443 XXXY=             25.5994
 XXXZ=              0.0000 YYYX=             30.7566 YYYZ=              0.0000 ZZZX=              0.0000
 ZZZY=              0.0000 XXYY=            -44.0110 XXZZ=             -7.2517 YYZZ=            -38.0542
 XXYZ=              0.0000 YYXZ=              0.0000 ZZXY=              7.9166
 N-N= 6.913977409300D+01 E-N=-6.725221649693D+02  KE= 2.245100713964D+02
 Symmetry A'   KE= 2.158848980703D+02
 Symmetry A"   KE= 8.625173326092D+00
  Exact polarizability:   0.000   0.000   0.000   0.000   0.000   0.000
 Approx polarizability:  17.234 -18.499  87.141   0.000   0.000  12.613
 Calling FoFJK, ICntrl=    100147 FMM=F ISym2X=1 I1Cent= 0 IOpClX= 0 NMat=1 NMatS=1 NMatT=0.
 ***** Axes restored to original set *****
 -------------------------------------------------------------------
 Center     Atomic                   Forces (Hartrees/Bohr)
 Number     Number              X              Y              Z
 -------------------------------------------------------------------
      1        8           0.122141042   -0.014862305    0.000000000
      2        8          -0.204045748    0.022960762    0.000000000
      3        1           0.070970915   -0.051819260    0.000000000
      4        8          -0.009053669    0.061150972    0.000000000
      5        1           0.019987460   -0.017430170    0.000000000
 -------------------------------------------------------------------
 Cartesian Forces:  Max     0.204045748 RMS     0.068092100

 GradGradGradGradGradGradGradGradGradGradGradGradGradGradGradGradGradGrad
 Berny optimization.
 Internal  Forces:  Max     0.120933158 RMS     0.060843587
 Search for a saddle point.
 Step number   1 out of a maximum of  100
 All quantities printed in internal units (Hartrees-Bohrs-Radians)
 Swaping is turned off.
 Second derivative matrix not updated -- analytic derivatives used.
 The second derivative matrix:
                          R1        R2        R3        R4        A1
           R1           0.34188
           R2           0.04542   0.18974
           R3           0.00593   0.18589   0.18780
           R4          -0.00880   0.01384  -0.01553   0.69221
           A1           0.00178  -0.06070   0.02172   0.00056  -0.00274
           A2           0.04300   0.12153   0.11703   0.00927  -0.04590
           A3           0.01571   0.00909   0.00248  -0.00479  -0.00779
           A4           0.00000   0.00000   0.00000   0.00000   0.00000
           D1           0.00000   0.00000   0.00000   0.00000   0.00000
                          A2        A3        A4        D1
           A2           0.25061
           A3           0.02092  -0.09644
           A4           0.00000   0.00000  -0.02715
           D1           0.00000   0.00000  -0.00718  -0.03399
     Eigenvalues ---   -0.09845  -0.06327  -0.03853  -0.02261   0.05168
     Eigenvalues ---    0.13657   0.32775   0.51556   0.69321
 Eigenvectors required to have negative eigenvalues:
                          A3        A1        A2        R1        R3
   1                    0.99657   0.05533  -0.05213  -0.03080   0.00874
                          R4        R2        D1        A4
   1                    0.00642   0.00110   0.00000   0.00000
 RFO step:  Lambda0=1.112571645D-03 Lambda=-1.19632055D-01.
 Linear search not attempted -- option 19 set.
 Maximum step size (   0.300) exceeded in Quadratic search.
    -- Step size scaled by   0.262
 Iteration  1 RMS(Cart)=  0.06133870 RMS(Int)=  0.00497073
 Iteration  2 RMS(Cart)=  0.00361823 RMS(Int)=  0.00009683
 Iteration  3 RMS(Cart)=  0.00006084 RMS(Int)=  0.00000002
 Iteration  4 RMS(Cart)=  0.00000002 RMS(Int)=  0.00000000
 ClnCor:  largest displacement from symmetrization is 4.42D-02 for atom     2.
 Variable       Old X    -DE/DX   Delta X   Delta X   Delta X     New X
                                 (Linear)    (Quad)   (Total)
    R1        2.49444  -0.12093   0.00000  -0.08919  -0.09016   2.40428
    R2        2.23363   0.08140   0.00000   0.16362   0.16304   2.39667
    R3        2.17319  -0.03185   0.00000  -0.16107  -0.16107   2.01211
    R4        1.75849   0.02523   0.00000   0.00015   0.00010   1.75859
    A1        2.78416  -0.05647   0.00000   0.03857   0.04255   2.82670
    A2        2.06120   0.08378   0.00000   0.07477   0.07488   2.13609
    A3        3.14159   0.01437   0.00000  -0.02757  -0.02732   3.11428
    A4        3.14159   0.00000   0.00000   0.01455   0.00000   3.14159
    D1        3.14159   0.00000   0.00000   0.14587   0.00000   3.14159
         Item               Value     Threshold  Converged?
 Maximum Force            0.120933     0.000450     NO 
 RMS     Force            0.060844     0.000300     NO 
 Maximum Displacement     0.114050     0.001800     NO 
 RMS     Displacement     0.058701     0.001200     NO 
 Predicted change in Energy=-3.220311D-02
 GradGradGradGradGradGradGradGradGradGradGradGradGradGradGradGradGradGrad

                          Input orientation:                          
 ---------------------------------------------------------------------
 Center     Atomic      Atomic             Coordinates (Angstroms)
 Number     Number       Type             X           Y           Z
 ---------------------------------------------------------------------
      1          8           0       -2.426429    1.201036    0.000000
      2          8           0       -1.219336    0.798976    0.000000
      3          1           0        0.048901    0.790563    0.000000
      4          8           0        0.613277   -0.112322    0.000000
      5          1           0        1.084806   -0.914626    0.000000
 ---------------------------------------------------------------------
                    Distance matrix (angstroms):
                    1          2          3          4          5
     1  O    0.000000
     2  O    1.272292   0.000000
     3  H    2.509133   1.268265   0.000000
     4  O    3.311303   2.046689   1.064764   0.000000
     5  H    4.099366   2.871498   1.995186   0.930607   0.000000
 Stoichiometry    H2O3
 Framework group  CS[SG(H2O3)]
 Deg. of freedom     7
 Full point group                 CS      NOp   2
 Largest Abelian subgroup         CS      NOp   2
 Largest concise Abelian subgroup C1      NOp   1
                         Standard orientation:                         
 ---------------------------------------------------------------------
 Center     Atomic      Atomic             Coordinates (Angstroms)
 Number     Number       Type             X           Y           Z
 ---------------------------------------------------------------------
      1          8           0       -0.342750    1.623382    0.000000
      2          8           0        0.000000    0.398127    0.000000
      3          1           0        0.703142   -0.657376    0.000000
      4          8           0        0.271065   -1.630532    0.000000
      5          1           0       -0.129662   -2.470442    0.000000
 ---------------------------------------------------------------------
 Rotational constants (GHZ):    649.0460068      5.2430198      5.2010059
 Standard basis: 6-31+G(d,p) (6D, 7F)
 There are    50 symmetry adapted basis functions of A'  symmetry.
 There are    17 symmetry adapted basis functions of A"  symmetry.
 Integral buffers will be    262144 words long.
 Raffenetti 2 integral format.
 Two-electron integral symmetry is turned on.
    67 basis functions,   110 primitive gaussians,    67 cartesian basis functions
    13 alpha electrons       13 beta electrons
       nuclear repulsion energy        69.7167309775 Hartrees.
 NAtoms=    5 NActive=    5 NUniq=    5 SFac= 7.50D-01 NAtFMM=   80 NAOKFM=F Big=F
 One-electron integrals computed using PRISM.
 NBasis=    67 RedAO= T  NBF=    50    17
 NBsUse=    67 1.00D-06 NBFU=    50    17
 Initial guess read from the read-write file.
 B after Tr=     0.000000    0.000000    0.000000
         Rot=    1.000000    0.000000    0.000000    0.000000 Ang=   0.00 deg.
 Initial guess orbital symmetries:
       Occupied  (A') (A') (A') (A') (A') (A') (A') (A') (A") (A')
                 (A') (A") (A')
       Virtual   (A") (A') (A') (A') (A") (A') (A') (A') (A") (A')
                 (A') (A") (A') (A') (A') (A') (A') (A") (A') (A')
                 (A") (A') (A') (A') (A") (A') (A') (A") (A') (A')
                 (A") (A') (A") (A') (A') (A') (A") (A") (A') (A')
                 (A") (A') (A') (A") (A') (A') (A') (A") (A') (A')
                 (A') (A') (A') (A')
 Harris functional with IExCor= 1009 diagonalized for initial guess.
 ExpMin= 8.45D-02 ExpMax= 5.48D+03 ExpMxC= 8.25D+02 IAcc=2 IRadAn=         0 AccDes= 0.00D+00
 HarFok:  IExCor= 1009 AccDes= 0.00D+00 IRadAn=         0 IDoV= 1
 ScaDFX=  1.000000  1.000000  1.000000  1.000000
 FoFCou: FMM=F IPFlag=           0 FMFlag=      100000 FMFlg1=           0
         NFxFlg=           0 DoJE=T BraDBF=F KetDBF=T FulRan=T
         Omega=  0.000000  0.000000  1.000000  0.000000  0.000000 ICntrl=     500 IOpCl=  0
         NMat0=    1 NMatS0=    1 NMatT0=    0 NMatD0=    1 NMtDS0=    0 NMtDT0=    0
         I1Cent=           4 NGrid=           0.
 Petite list used in FoFCou.
 Requested convergence on RMS density matrix=1.00D-08 within 128 cycles.
 Requested convergence on MAX density matrix=1.00D-06.
 Requested convergence on             energy=1.00D-06.
 No special actions if energy rises.
 Keep R1 ints in memory in canonical form, NReq=3551244.
 Integral accuracy reduced to 1.0D-05 until final iterations.
 Initial convergence to 1.0D-05 achieved.  Increase integral accuracy.
 SCF Done:  E(RM062X) =  -226.494326182     A.U. after   16 cycles
             Convg  =    0.9062D-08             -V/T =  2.0083
 Calling FoFJK, ICntrl=      2127 FMM=F ISym2X=1 I1Cent= 0 IOpClX= 0 NMat=1 NMatS=1 NMatT=0.
 ***** Axes restored to original set *****
 -------------------------------------------------------------------
 Center     Atomic                   Forces (Hartrees/Bohr)
 Number     Number              X              Y              Z
 -------------------------------------------------------------------
      1        8           0.091272280   -0.012580484    0.000000000
      2        8          -0.169276566    0.025518311    0.000000000
      3        1           0.067170675   -0.052225272    0.000000000
      4        8          -0.003719619    0.052940983    0.000000000
      5        1           0.014553229   -0.013653538    0.000000000
 -------------------------------------------------------------------
 Cartesian Forces:  Max     0.169276566 RMS     0.056714969

 GradGradGradGradGradGradGradGradGradGradGradGradGradGradGradGradGradGrad
 Berny optimization.
 Internal  Forces:  Max     0.090569616 RMS     0.049581202
 Search for a saddle point.
 Step number   2 out of a maximum of  100
 All quantities printed in internal units (Hartrees-Bohrs-Radians)
 Swaping is turned off.
 Update second derivatives using D2CorX and points    1    2
 The second derivative matrix:
                          R1        R2        R3        R4        A1
           R1           0.36397
           R2           0.03937   0.18171
           R3           0.04026   0.17795   0.24090
           R4          -0.00798   0.01338  -0.01423   0.69223
           A1          -0.00196  -0.06159   0.01621   0.00038  -0.00249
           A2           0.04011   0.11790   0.11321   0.00905  -0.04629
           A3           0.01472   0.01156   0.00062  -0.00477  -0.00719
           A4           0.00000   0.00000   0.00000   0.00000   0.00000
           D1           0.00000   0.00000   0.00000   0.00000   0.00000
                          A2        A3        A4        D1
           A2           0.24897
           A3           0.02205  -0.09689
           A4           0.00000   0.00000  -0.02715
           D1           0.00000   0.00000  -0.00718  -0.03399
     Eigenvalues ---   -0.09912  -0.04860  -0.03853  -0.02261   0.06311
     Eigenvalues ---    0.15198   0.33556   0.53229   0.69319
 Eigenvectors required to have negative eigenvalues:
                          A3        A2        R3        R2        R1
   1                    0.99646  -0.05895   0.03757  -0.03269  -0.02686
                          A1        R4        D1        A4
   1                    0.01816   0.00763   0.00000   0.00000
 RFO step:  Lambda0=1.602754192D-04 Lambda=-8.56635738D-02.
 Linear search not attempted -- option 19 set.
 Maximum step size (   0.300) exceeded in Quadratic search.
    -- Step size scaled by   0.273
 Iteration  1 RMS(Cart)=  0.05611346 RMS(Int)=  0.01221170
 Iteration  2 RMS(Cart)=  0.00669638 RMS(Int)=  0.00043889
 Iteration  3 RMS(Cart)=  0.00025711 RMS(Int)=  0.00000066
 Iteration  4 RMS(Cart)=  0.00000036 RMS(Int)=  0.00000000
 ClnCor:  largest displacement from symmetrization is 3.30D-02 for atom     2.
 Variable       Old X    -DE/DX   Delta X   Delta X   Delta X     New X
                                 (Linear)    (Quad)   (Total)
    R1        2.40428  -0.09057   0.00000  -0.06321  -0.06378   2.34050
    R2        2.39667   0.07810   0.00000   0.17903   0.17876   2.57543
    R3        2.01211  -0.02758   0.00000  -0.14114  -0.14115   1.87096
    R4        1.75859   0.01914   0.00000  -0.00041  -0.00044   1.75815
    A1        2.82670  -0.04062   0.00000   0.08323   0.08615   2.91285
    A2        2.13609   0.07034   0.00000   0.06187   0.06190   2.19798
    A3        3.11428   0.00992   0.00000   0.00063   0.00082   3.11510
    A4        3.14159   0.00000   0.00000   0.01514   0.00000   3.14159
    D1        3.14159   0.00000   0.00000   0.15181   0.00000   3.14159
         Item               Value     Threshold  Converged?
 Maximum Force            0.090570     0.000450     NO 
 RMS     Force            0.049581     0.000300     NO 
 Maximum Displacement     0.099252     0.001800     NO 
 RMS     Displacement     0.059134     0.001200     NO 
 Predicted change in Energy=-2.377508D-02
 GradGradGradGradGradGradGradGradGradGradGradGradGradGradGradGradGradGrad

                          Input orientation:                          
 ---------------------------------------------------------------------
 Center     Atomic      Atomic             Coordinates (Angstroms)
 Number     Number       Type             X           Y           Z
 ---------------------------------------------------------------------
      1          8           0       -2.445554    1.199267    0.000000
      2          8           0       -1.262069    0.834102    0.000000
      3          1           0        0.097400    0.738042    0.000000
      4          8           0        0.620493   -0.102561    0.000000
      5          1           0        1.090949   -0.905223    0.000000
 ---------------------------------------------------------------------
                    Distance matrix (angstroms):
                    1          2          3          4          5
     1  O    0.000000
     2  O    1.238540   0.000000
     3  H    2.584442   1.362859   0.000000
     4  O    3.330976   2.102707   0.990071   0.000000
     5  H    4.115304   2.926080   1.920276   0.930373   0.000000
 Stoichiometry    H2O3
 Framework group  CS[SG(H2O3)]
 Deg. of freedom     7
 Full point group                 CS      NOp   2
 Largest Abelian subgroup         CS      NOp   2
 Largest concise Abelian subgroup C1      NOp   1
                         Standard orientation:                         
 ---------------------------------------------------------------------
 Center     Atomic      Atomic             Coordinates (Angstroms)
 Number     Number       Type             X           Y           Z
 ---------------------------------------------------------------------
      1          8           0       -0.370437    1.616374    0.000000
      2          8           0        0.000000    0.434529    0.000000
      3          1           0        0.691886   -0.739642    0.000000
      4          8           0        0.296210   -1.647210    0.000000
      5          1           0       -0.098070   -2.489907    0.000000
 ---------------------------------------------------------------------
 Rotational constants (GHZ):    644.7573394      5.1515374      5.1107035
 Standard basis: 6-31+G(d,p) (6D, 7F)
 There are    50 symmetry adapted basis functions of A'  symmetry.
 There are    17 symmetry adapted basis functions of A"  symmetry.
 Integral buffers will be    262144 words long.
 Raffenetti 2 integral format.
 Two-electron integral symmetry is turned on.
    67 basis functions,   110 primitive gaussians,    67 cartesian basis functions
    13 alpha electrons       13 beta electrons
       nuclear repulsion energy        69.9399865446 Hartrees.
 NAtoms=    5 NActive=    5 NUniq=    5 SFac= 7.50D-01 NAtFMM=   80 NAOKFM=F Big=F
 One-electron integrals computed using PRISM.
 NBasis=    67 RedAO= T  NBF=    50    17
 NBsUse=    67 1.00D-06 NBFU=    50    17
 Initial guess read from the read-write file.
 B after Tr=     0.000000    0.000000    0.000000
         Rot=    1.000000    0.000000    0.000000    0.000000 Ang=   0.00 deg.
 Initial guess orbital symmetries:
       Occupied  (A') (A') (A') (A') (A') (A') (A') (A') (A") (A')
                 (A') (A") (A')
       Virtual   (A") (A') (A') (A') (A") (A') (A') (A') (A") (A')
                 (A') (A") (A') (A') (A') (A') (A') (A") (A') (A')
                 (A') (A") (A') (A') (A") (A') (A') (A") (A') (A')
                 (A") (A') (A") (A') (A') (A') (A") (A") (A') (A')
                 (A') (A") (A') (A") (A') (A') (A') (A") (A') (A')
                 (A') (A') (A') (A')
 Harris functional with IExCor= 1009 diagonalized for initial guess.
 ExpMin= 8.45D-02 ExpMax= 5.48D+03 ExpMxC= 8.25D+02 IAcc=2 IRadAn=         0 AccDes= 0.00D+00
 HarFok:  IExCor= 1009 AccDes= 0.00D+00 IRadAn=         0 IDoV= 1
 ScaDFX=  1.000000  1.000000  1.000000  1.000000
 FoFCou: FMM=F IPFlag=           0 FMFlag=      100000 FMFlg1=           0
         NFxFlg=           0 DoJE=T BraDBF=F KetDBF=T FulRan=T
         Omega=  0.000000  0.000000  1.000000  0.000000  0.000000 ICntrl=     500 IOpCl=  0
         NMat0=    1 NMatS0=    1 NMatT0=    0 NMatD0=    1 NMtDS0=    0 NMtDT0=    0
         I1Cent=           4 NGrid=           0.
 Petite list used in FoFCou.
 Requested convergence on RMS density matrix=1.00D-08 within 128 cycles.
 Requested convergence on MAX density matrix=1.00D-06.
 Requested convergence on             energy=1.00D-06.
 No special actions if energy rises.
 Keep R1 ints in memory in canonical form, NReq=3551244.
 Integral accuracy reduced to 1.0D-05 until final iterations.
 Initial convergence to 1.0D-05 achieved.  Increase integral accuracy.
 SCF Done:  E(RM062X) =  -226.515789325     A.U. after   16 cycles
             Convg  =    0.3795D-08             -V/T =  2.0078
 Calling FoFJK, ICntrl=      2127 FMM=F ISym2X=1 I1Cent= 0 IOpClX= 0 NMat=1 NMatS=1 NMatT=0.
 ***** Axes restored to original set *****
 -------------------------------------------------------------------
 Center     Atomic                   Forces (Hartrees/Bohr)
 Number     Number              X              Y              Z
 -------------------------------------------------------------------
      1        8           0.059292905   -0.005297737    0.000000000
      2        8          -0.128278030    0.020867826    0.000000000
      3        1           0.047789812   -0.030810735    0.000000000
      4        8           0.010142626    0.025679455    0.000000000
      5        1           0.011052686   -0.010438809    0.000000000
 -------------------------------------------------------------------
 Cartesian Forces:  Max     0.128278030 RMS     0.040547124

 GradGradGradGradGradGradGradGradGradGradGradGradGradGradGradGradGradGrad
 Berny optimization.
 Internal  Forces:  Max     0.069928018 RMS     0.037367354
 Search for a saddle point.
 Step number   3 out of a maximum of  100
 All quantities printed in internal units (Hartrees-Bohrs-Radians)
 Swaping is turned off.
 Update second derivatives using D2CorX and points    1    2    3
 The second derivative matrix:
                          R1        R2        R3        R4        A1
           R1           0.38864
           R2           0.02750   0.16500
           R3           0.09615   0.14909   0.36732
           R4          -0.00693   0.01246  -0.01189   0.69227
           A1          -0.01373  -0.06272  -0.01097  -0.00025   0.00097
           A2           0.03649   0.11099   0.10421   0.00873  -0.04714
           A3           0.01392   0.01320  -0.00105  -0.00478  -0.00649
           A4           0.00000   0.00000   0.00000   0.00000   0.00000
           D1           0.00000   0.00000   0.00000   0.00000   0.00000
                          A2        A3        A4        D1
           A2           0.24615
           A3           0.02267  -0.09697
           A4           0.00000   0.00000  -0.02715
           D1           0.00000   0.00000  -0.00718  -0.03399
     Eigenvalues ---   -0.09937  -0.03853  -0.02619  -0.02261   0.07770
     Eigenvalues ---    0.19478   0.33853   0.58470   0.69322
 Eigenvectors required to have negative eigenvalues:
                          A3        A2        R2        R3        R1
   1                    0.99644  -0.05872  -0.03871   0.03398  -0.02808
                          A1        R4        D1        A4
   1                    0.01254   0.00754   0.00000   0.00000
 RFO step:  Lambda0=7.954830911D-05 Lambda=-4.28625129D-02.
 Linear search not attempted -- option 19 set.
 Maximum step size (   0.300) exceeded in Quadratic search.
    -- Step size scaled by   0.291
 Iteration  1 RMS(Cart)=  0.04281432 RMS(Int)=  0.01728470
 Iteration  2 RMS(Cart)=  0.01307636 RMS(Int)=  0.00054892
 Iteration  3 RMS(Cart)=  0.00019575 RMS(Int)=  0.00000067
 Iteration  4 RMS(Cart)=  0.00000049 RMS(Int)=  0.00000000
 ClnCor:  largest displacement from symmetrization is 2.93D-02 for atom     2.
 Variable       Old X    -DE/DX   Delta X   Delta X   Delta X     New X
                                 (Linear)    (Quad)   (Total)
    R1        2.34050  -0.05822   0.00000  -0.03666  -0.03713   2.30338
    R2        2.57543   0.06993   0.00000   0.15338   0.15324   2.72867
    R3        1.87096  -0.00176   0.00000  -0.05631  -0.05647   1.81449
    R4        1.75815   0.01459   0.00000   0.00147   0.00122   1.75937
    A1        2.91285  -0.02899   0.00000   0.08731   0.09054   3.00339
    A2        2.19798   0.05635   0.00000   0.03748   0.03742   2.23540
    A3        3.11510   0.00753   0.00000  -0.00032   0.00045   3.11555
    A4        3.14159   0.00000   0.00000   0.05498   0.00000   3.14159
    D1        3.14159   0.00000   0.00000   0.22340   0.00000   3.14159
         Item               Value     Threshold  Converged?
 Maximum Force            0.069928     0.000450     NO 
 RMS     Force            0.037367     0.000300     NO 
 Maximum Displacement     0.089497     0.001800     NO 
 RMS     Displacement     0.053417     0.001200     NO 
 Predicted change in Energy=-1.131627D-02
 GradGradGradGradGradGradGradGradGradGradGradGradGradGradGradGradGradGrad

                          Input orientation:                          
 ---------------------------------------------------------------------
 Center     Atomic      Atomic             Coordinates (Angstroms)
 Number     Number       Type             X           Y           Z
 ---------------------------------------------------------------------
      1          8           0       -2.476676    1.188875    0.000000
      2          8           0       -1.297185    0.881461    0.000000
      3          1           0        0.136933    0.713248    0.000000
      4          8           0        0.637043   -0.106418    0.000000
      5          1           0        1.101104   -0.913539    0.000000
 ---------------------------------------------------------------------
                    Distance matrix (angstroms):
                    1          2          3          4          5
     1  O    0.000000
     2  O    1.218894   0.000000
     3  H    2.656534   1.443949   0.000000
     4  O    3.372392   2.171899   0.960189   0.000000
     5  H    4.149777   2.995633   1.891048   0.931019   0.000000
 Stoichiometry    H2O3
 Framework group  CS[SG(H2O3)]
 Deg. of freedom     7
 Full point group                 CS      NOp   2
 Largest Abelian subgroup         CS      NOp   2
 Largest concise Abelian subgroup C1      NOp   1
                         Standard orientation:                         
 ---------------------------------------------------------------------
 Center     Atomic      Atomic             Coordinates (Angstroms)
 Number     Number       Type             X           Y           Z
 ---------------------------------------------------------------------
      1          8           0       -0.462071    1.602546    0.000000
      2          8           0        0.000000    0.474631    0.000000
      3          1           0        0.726241   -0.773393    0.000000
      4          8           0        0.370817   -1.665378    0.000000
      5          1           0        0.003790   -2.520999    0.000000
 ---------------------------------------------------------------------
 Rotational constants (GHZ):    549.4814505      5.0011441      4.9560364
 Standard basis: 6-31+G(d,p) (6D, 7F)
 There are    50 symmetry adapted basis functions of A'  symmetry.
 There are    17 symmetry adapted basis functions of A"  symmetry.
 Integral buffers will be    262144 words long.
 Raffenetti 2 integral format.
 Two-electron integral symmetry is turned on.
    67 basis functions,   110 primitive gaussians,    67 cartesian basis functions
    13 alpha electrons       13 beta electrons
       nuclear repulsion energy        69.6158917449 Hartrees.
 NAtoms=    5 NActive=    5 NUniq=    5 SFac= 7.50D-01 NAtFMM=   80 NAOKFM=F Big=F
 One-electron integrals computed using PRISM.
 NBasis=    67 RedAO= T  NBF=    50    17
 NBsUse=    67 1.00D-06 NBFU=    50    17
 Initial guess read from the read-write file.
 B after Tr=     0.000000    0.000000    0.000000
         Rot=    1.000000    0.000000    0.000000    0.000000 Ang=   0.00 deg.
 Initial guess orbital symmetries:
       Occupied  (A') (A') (A') (A') (A') (A') (A') (A') (A") (A')
                 (A') (A") (A')
       Virtual   (A") (A') (A') (A') (A") (A') (A') (A') (A") (A')
                 (A') (A") (A') (A') (A') (A') (A') (A') (A") (A')
                 (A') (A") (A') (A') (A") (A') (A') (A") (A') (A')
                 (A") (A') (A") (A') (A') (A') (A") (A") (A') (A')
                 (A') (A") (A') (A") (A') (A') (A') (A") (A') (A')
                 (A') (A') (A') (A')
 Harris functional with IExCor= 1009 diagonalized for initial guess.
 ExpMin= 8.45D-02 ExpMax= 5.48D+03 ExpMxC= 8.25D+02 IAcc=2 IRadAn=         0 AccDes= 0.00D+00
 HarFok:  IExCor= 1009 AccDes= 0.00D+00 IRadAn=         0 IDoV= 1
 ScaDFX=  1.000000  1.000000  1.000000  1.000000
 FoFCou: FMM=F IPFlag=           0 FMFlag=      100000 FMFlg1=           0
         NFxFlg=           0 DoJE=T BraDBF=F KetDBF=T FulRan=T
         Omega=  0.000000  0.000000  1.000000  0.000000  0.000000 ICntrl=     500 IOpCl=  0
         NMat0=    1 NMatS0=    1 NMatT0=    0 NMatD0=    1 NMtDS0=    0 NMtDT0=    0
         I1Cent=           4 NGrid=           0.
 Petite list used in FoFCou.
 Requested convergence on RMS density matrix=1.00D-08 within 128 cycles.
 Requested convergence on MAX density matrix=1.00D-06.
 Requested convergence on             energy=1.00D-06.
 No special actions if energy rises.
 Keep R1 ints in memory in canonical form, NReq=3551244.
 Integral accuracy reduced to 1.0D-05 until final iterations.
 Initial convergence to 1.0D-05 achieved.  Increase integral accuracy.
 SCF Done:  E(RM062X) =  -226.526670651     A.U. after   16 cycles
             Convg  =    0.2844D-08             -V/T =  2.0076
 Calling FoFJK, ICntrl=      2127 FMM=F ISym2X=1 I1Cent= 0 IOpClX= 0 NMat=1 NMatS=1 NMatT=0.
 ***** Axes restored to original set *****
 -------------------------------------------------------------------
 Center     Atomic                   Forces (Hartrees/Bohr)
 Number     Number              X              Y              Z
 -------------------------------------------------------------------
      1        8           0.035582752    0.000814446    0.000000000
      2        8          -0.092170722    0.014099933    0.000000000
      3        1           0.032923401   -0.016876264    0.000000000
      4        8           0.015146310    0.010298727    0.000000000
      5        1           0.008518259   -0.008336842    0.000000000
 -------------------------------------------------------------------
 Cartesian Forces:  Max     0.092170722 RMS     0.028056303

 GradGradGradGradGradGradGradGradGradGradGradGradGradGradGradGradGradGrad
 Berny optimization.
 Internal  Forces:  Max     0.057973285 RMS     0.028448735
 Search for a saddle point.
 Step number   4 out of a maximum of  100
 All quantities printed in internal units (Hartrees-Bohrs-Radians)
 Swaping is turned off.
 Update second derivatives using D2CorX and points    2    3    4
 The second derivative matrix:
                          R1        R2        R3        R4        A1
           R1           0.41201
           R2           0.00541   0.13529
           R3           0.13483   0.11363   0.43122
           R4          -0.00545   0.00953  -0.00941   0.69232
           A1          -0.03557  -0.06364  -0.04671  -0.00228   0.01215
           A2           0.03487   0.09581   0.10194   0.00812  -0.05272
           A3           0.01389   0.01302  -0.00109  -0.00479  -0.00654
           A4           0.00000   0.00000   0.00000   0.00000   0.00000
           D1           0.00000   0.00000   0.00000   0.00000   0.00000
                          A2        A3        A4        D1
           A2           0.24071
           A3           0.02261  -0.09698
           A4           0.00000   0.00000  -0.02715
           D1           0.00000   0.00000  -0.00718  -0.03399
     Eigenvalues ---   -0.09943  -0.03853  -0.02261  -0.01786   0.07722
     Eigenvalues ---    0.20670   0.34070   0.62619   0.69321
 Eigenvectors required to have negative eigenvalues:
                          A3        A2        R2        R3        R1
   1                    0.99630  -0.05901  -0.04338   0.03128  -0.03008
                          A1        R4        D1        A4
   1                    0.00947   0.00734   0.00000   0.00000
 RFO step:  Lambda0=3.485635536D-05 Lambda=-3.85254673D-02.
 Linear search not attempted -- option 19 set.
 Maximum step size (   0.300) exceeded in Quadratic search.
    -- Step size scaled by   0.302
 Iteration  1 RMS(Cart)=  0.03464045 RMS(Int)=  0.02488288
 Iteration  2 RMS(Cart)=  0.00745947 RMS(Int)=  0.00064547
 Iteration  3 RMS(Cart)=  0.00061053 RMS(Int)=  0.00000078
 Iteration  4 RMS(Cart)=  0.00000019 RMS(Int)=  0.00000000
 ClnCor:  largest displacement from symmetrization is 2.53D-02 for atom     2.
 Variable       Old X    -DE/DX   Delta X   Delta X   Delta X     New X
                                 (Linear)    (Quad)   (Total)
    R1        2.30338  -0.03422   0.00000  -0.01783  -0.01818   2.28519
    R2        2.72867   0.05797   0.00000   0.11554   0.11534   2.84401
    R3        1.81449   0.01061   0.00000  -0.01781  -0.01782   1.79667
    R4        1.75937   0.01145   0.00000   0.00271   0.00271   1.76208
    A1        3.00339  -0.02232   0.00000   0.03483   0.03905   3.04244
    A2        2.23540   0.04446   0.00000   0.02399   0.02411   2.25951
    A3        3.11555   0.00579   0.00000   0.00044   0.00039   3.11594
    A4        3.14159   0.00000   0.00000  -0.00679   0.00000   3.14159
    D1        3.14159   0.00000   0.00000   0.27235   0.00000   3.14159
         Item               Value     Threshold  Converged?
 Maximum Force            0.057973     0.000450     NO 
 RMS     Force            0.028449     0.000300     NO 
 Maximum Displacement     0.062366     0.001800     NO 
 RMS     Displacement     0.041207     0.001200     NO 
 Predicted change in Energy=-6.503025D-03
 GradGradGradGradGradGradGradGradGradGradGradGradGradGradGradGradGradGrad

                          Input orientation:                          
 ---------------------------------------------------------------------
 Center     Atomic      Atomic             Coordinates (Angstroms)
 Number     Number       Type             X           Y           Z
 ---------------------------------------------------------------------
      1          8           0       -2.504902    1.194969    0.000000
      2          8           0       -1.330188    0.907938    0.000000
      3          1           0        0.159966    0.697193    0.000000
      4          8           0        0.655473   -0.114234    0.000000
      5          1           0        1.120870   -0.922238    0.000000
 ---------------------------------------------------------------------
                    Distance matrix (angstroms):
                    1          2          3          4          5
     1  O    0.000000
     2  O    1.209273   0.000000
     3  H    2.710960   1.504983   0.000000
     4  O    3.420817   2.233313   0.950758   0.000000
     5  H    4.198665   3.058959   1.883054   0.932451   0.000000
 Stoichiometry    H2O3
 Framework group  CS[SG(H2O3)]
 Deg. of freedom     7
 Full point group                 CS      NOp   2
 Largest Abelian subgroup         CS      NOp   2
 Largest concise Abelian subgroup C1      NOp   1
                         Standard orientation:                         
 ---------------------------------------------------------------------
 Center     Atomic      Atomic             Coordinates (Angstroms)
 Number     Number       Type             X           Y           Z
 ---------------------------------------------------------------------
      1          8           0        0.482019    1.612765    0.000000
      2          8           0        0.000000    0.503712    0.000000
      3          1           0       -0.733574   -0.810382    0.000000
      4          8           0       -0.387164   -1.695786    0.000000
      5          1           0       -0.025266   -2.555143    0.000000
 ---------------------------------------------------------------------
 Rotational constants (GHZ):    521.2431388      4.8429933      4.7984101
 Standard basis: 6-31+G(d,p) (6D, 7F)
 There are    50 symmetry adapted basis functions of A'  symmetry.
 There are    17 symmetry adapted basis functions of A"  symmetry.
 Integral buffers will be    262144 words long.
 Raffenetti 2 integral format.
 Two-electron integral symmetry is turned on.
    67 basis functions,   110 primitive gaussians,    67 cartesian basis functions
    13 alpha electrons       13 beta electrons
       nuclear repulsion energy        69.1119007796 Hartrees.
 NAtoms=    5 NActive=    5 NUniq=    5 SFac= 7.50D-01 NAtFMM=   80 NAOKFM=F Big=F
 One-electron integrals computed using PRISM.
 NBasis=    67 RedAO= T  NBF=    50    17
 NBsUse=    67 1.00D-06 NBFU=    50    17
 Initial guess read from the read-write file.
 B after Tr=     0.000000    0.000000    0.000000
         Rot=    1.000000    0.000000    0.000000    0.000000 Ang=   0.00 deg.
 Initial guess orbital symmetries:
       Occupied  (A') (A') (A') (A') (A') (A') (A') (A') (A") (A')
                 (A') (A") (A')
       Virtual   (A") (A') (A') (A') (A") (A') (A') (A') (A") (A')
                 (A") (A') (A') (A') (A') (A') (A') (A') (A") (A')
                 (A') (A") (A') (A') (A") (A') (A') (A") (A') (A')
                 (A") (A') (A") (A') (A') (A') (A") (A') (A") (A')
                 (A') (A") (A') (A") (A') (A') (A') (A") (A') (A')
                 (A') (A') (A') (A')
 Harris functional with IExCor= 1009 diagonalized for initial guess.
 ExpMin= 8.45D-02 ExpMax= 5.48D+03 ExpMxC= 8.25D+02 IAcc=2 IRadAn=         0 AccDes= 0.00D+00
 HarFok:  IExCor= 1009 AccDes= 0.00D+00 IRadAn=         0 IDoV= 1
 ScaDFX=  1.000000  1.000000  1.000000  1.000000
 FoFCou: FMM=F IPFlag=           0 FMFlag=      100000 FMFlg1=           0
         NFxFlg=           0 DoJE=T BraDBF=F KetDBF=T FulRan=T
         Omega=  0.000000  0.000000  1.000000  0.000000  0.000000 ICntrl=     500 IOpCl=  0
         NMat0=    1 NMatS0=    1 NMatT0=    0 NMatD0=    1 NMtDS0=    0 NMtDT0=    0
         I1Cent=           4 NGrid=           0.
 Petite list used in FoFCou.
 Requested convergence on RMS density matrix=1.00D-08 within 128 cycles.
 Requested convergence on MAX density matrix=1.00D-06.
 Requested convergence on             energy=1.00D-06.
 No special actions if energy rises.
 Keep R1 ints in memory in canonical form, NReq=3551244.
 Integral accuracy reduced to 1.0D-05 until final iterations.
 Initial convergence to 1.0D-05 achieved.  Increase integral accuracy.
 SCF Done:  E(RM062X) =  -226.533245396     A.U. after   18 cycles
             Convg  =    0.8370D-08             -V/T =  2.0076
 Calling FoFJK, ICntrl=      2127 FMM=F ISym2X=1 I1Cent= 0 IOpClX= 0 NMat=1 NMatS=1 NMatT=0.
 ***** Axes restored to original set *****
 -------------------------------------------------------------------
 Center     Atomic                   Forces (Hartrees/Bohr)
 Number     Number              X              Y              Z
 -------------------------------------------------------------------
      1        8           0.021855129    0.002978855    0.000000000
      2        8          -0.068157756    0.009818012    0.000000000
      3        1           0.025227671   -0.011356693    0.000000000
      4        8           0.014551619    0.004882824    0.000000000
      5        1           0.006523337   -0.006322998    0.000000000
 -------------------------------------------------------------------
 Cartesian Forces:  Max     0.068157756 RMS     0.020513295

 GradGradGradGradGradGradGradGradGradGradGradGradGradGradGradGradGradGrad
 Berny optimization.
 Internal  Forces:  Max     0.047667590 RMS     0.022463627
 Search for a saddle point.
 Step number   5 out of a maximum of  100
 All quantities printed in internal units (Hartrees-Bohrs-Radians)
 Swaping is turned off.
 Update second derivatives using D2CorX and points    2    3    4    5
 The second derivative matrix:
                          R1        R2        R3        R4        A1
           R1           0.41992
           R2          -0.02044   0.10073
           R3           0.14247   0.07804   0.43618
           R4          -0.00542   0.00495  -0.00965   0.69214
           A1          -0.05050  -0.05022  -0.06587  -0.00354   0.02818
           A2           0.03349   0.06845   0.09942   0.00678  -0.05784
           A3           0.01415   0.01148  -0.00072  -0.00482  -0.00707
           A4           0.00000   0.00000   0.00000   0.00000   0.00000
           D1           0.00000   0.00000   0.00000   0.00000   0.00000
                          A2        A3        A4        D1
           A2           0.23056
           A3           0.02220  -0.09699
           A4           0.00000   0.00000  -0.02715
           D1           0.00000   0.00000  -0.00718  -0.03399
     Eigenvalues ---   -0.09950  -0.03853  -0.02261  -0.00596   0.06979
     Eigenvalues ---    0.19803   0.33414   0.62103   0.69319
 Eigenvectors required to have negative eigenvalues:
                          A3        A2        R2        R1        R3
   1                    0.99592  -0.06076  -0.04854  -0.03211   0.02975
                          A1        R4        D1        A4
   1                    0.01139   0.00708   0.00000   0.00000
 RFO step:  Lambda0=7.731107801D-06 Lambda=-3.85254673D-02.
 Linear search not attempted -- option 19 set.
 Maximum step size (   0.300) exceeded in Quadratic search.
    -- Step size scaled by   0.304
 Iteration  1 RMS(Cart)=  0.04946421 RMS(Int)=  0.02036266
 Iteration  2 RMS(Cart)=  0.00856094 RMS(Int)=  0.00040081
 Iteration  3 RMS(Cart)=  0.00023061 RMS(Int)=  0.00000021
 Iteration  4 RMS(Cart)=  0.00000022 RMS(Int)=  0.00000000
 ClnCor:  largest displacement from symmetrization is 7.97D-02 for atom     4.
 Variable       Old X    -DE/DX   Delta X   Delta X   Delta X     New X
                                 (Linear)    (Quad)   (Total)
    R1        2.28519  -0.02051   0.00000  -0.00300  -0.00309   2.28210
    R2        2.84401   0.04767   0.00000   0.11446   0.11437   2.95838
    R3        1.79667   0.01217   0.00000  -0.01013  -0.01386   1.78281
    R4        1.76208   0.00871   0.00000   0.00268  -0.00133   1.76075
    A1        3.04244  -0.01831   0.00000   0.03338   0.03339   3.07583
    A2        2.25951   0.03562   0.00000   0.02261   0.02510   2.28462
    A3        3.11594   0.00450   0.00000   0.00407   0.00957   3.12551
    A4        3.14159   0.00000   0.00000   0.25032   0.00000   3.14159
    D1        3.14159   0.00000   0.00000   0.11170   0.00000   3.14159
         Item               Value     Threshold  Converged?
 Maximum Force            0.047668     0.000450     NO 
 RMS     Force            0.022464     0.000300     NO 
 Maximum Displacement     0.065070     0.001800     NO 
 RMS     Displacement     0.045509     0.001200     NO 
 Predicted change in Energy=-5.014978D-03
 GradGradGradGradGradGradGradGradGradGradGradGradGradGradGradGradGradGrad

                          Input orientation:                          
 ---------------------------------------------------------------------
 Center     Atomic      Atomic             Coordinates (Angstroms)
 Number     Number       Type             X           Y           Z
 ---------------------------------------------------------------------
      1          8           0       -2.539336    1.207875    0.000000
      2          8           0       -1.363382    0.933069    0.000000
      3          1           0        0.181167    0.677772    0.000000
      4          8           0        0.674291   -0.126513    0.000000
      5          1           0        1.148479   -0.928575    0.000000
 ---------------------------------------------------------------------
                    Distance matrix (angstroms):
                    1          2          3          4          5
     1  O    0.000000
     2  O    1.207636   0.000000
     3  H    2.771668   1.565506   0.000000
     4  O    3.479653   2.296699   0.943422   0.000000
     5  H    4.261971   3.126526   1.875111   0.931749   0.000000
 Stoichiometry    H2O3
 Framework group  CS[SG(H2O3)]
 Deg. of freedom     7
 Full point group                 CS      NOp   2
 Largest Abelian subgroup         CS      NOp   2
 Largest concise Abelian subgroup C1      NOp   1
                         Standard orientation:                         
 ---------------------------------------------------------------------
 Center     Atomic      Atomic             Coordinates (Angstroms)
 Number     Number       Type             X           Y           Z
 ---------------------------------------------------------------------
      1          8           0        0.497401    1.631136    0.000000
      2          8           0        0.000000    0.530692    0.000000
      3          1           0       -0.737149   -0.850402    0.000000
      4          8           0       -0.398897   -1.731101    0.000000
      5          1           0       -0.050888   -2.595419    0.000000
 ---------------------------------------------------------------------
 Rotational constants (GHZ):    505.3614441      4.6657126      4.6230308
 Standard basis: 6-31+G(d,p) (6D, 7F)
 There are    50 symmetry adapted basis functions of A'  symmetry.
 There are    17 symmetry adapted basis functions of A"  symmetry.
 Integral buffers will be    262144 words long.
 Raffenetti 2 integral format.
 Two-electron integral symmetry is turned on.
    67 basis functions,   110 primitive gaussians,    67 cartesian basis functions
    13 alpha electrons       13 beta electrons
       nuclear repulsion energy        68.4153169649 Hartrees.
 NAtoms=    5 NActive=    5 NUniq=    5 SFac= 7.50D-01 NAtFMM=   80 NAOKFM=F Big=F
 One-electron integrals computed using PRISM.
 NBasis=    67 RedAO= T  NBF=    50    17
 NBsUse=    67 1.00D-06 NBFU=    50    17
 Initial guess read from the read-write file.
 B after Tr=     0.000000    0.000000    0.000000
         Rot=    1.000000    0.000000    0.000000    0.000000 Ang=   0.00 deg.
 Initial guess orbital symmetries:
       Occupied  (A') (A') (A') (A') (A') (A') (A') (A') (A") (A')
                 (A') (A") (A')
       Virtual   (A") (A') (A') (A') (A") (A') (A') (A') (A") (A')
                 (A") (A') (A') (A') (A') (A') (A') (A') (A") (A')
                 (A') (A") (A') (A') (A") (A') (A') (A") (A') (A')
                 (A") (A') (A") (A') (A') (A') (A") (A') (A") (A')
                 (A") (A') (A') (A") (A') (A') (A') (A") (A') (A')
                 (A') (A') (A') (A')
 Harris functional with IExCor= 1009 diagonalized for initial guess.
 ExpMin= 8.45D-02 ExpMax= 5.48D+03 ExpMxC= 8.25D+02 IAcc=2 IRadAn=         0 AccDes= 0.00D+00
 HarFok:  IExCor= 1009 AccDes= 0.00D+00 IRadAn=         0 IDoV= 1
 ScaDFX=  1.000000  1.000000  1.000000  1.000000
 FoFCou: FMM=F IPFlag=           0 FMFlag=      100000 FMFlg1=           0
         NFxFlg=           0 DoJE=T BraDBF=F KetDBF=T FulRan=T
         Omega=  0.000000  0.000000  1.000000  0.000000  0.000000 ICntrl=     500 IOpCl=  0
         NMat0=    1 NMatS0=    1 NMatT0=    0 NMatD0=    1 NMtDS0=    0 NMtDT0=    0
         I1Cent=           4 NGrid=           0.
 Petite list used in FoFCou.
 Requested convergence on RMS density matrix=1.00D-08 within 128 cycles.
 Requested convergence on MAX density matrix=1.00D-06.
 Requested convergence on             energy=1.00D-06.
 No special actions if energy rises.
 Keep R1 ints in memory in canonical form, NReq=3551244.
 Integral accuracy reduced to 1.0D-05 until final iterations.
 Initial convergence to 1.0D-05 achieved.  Increase integral accuracy.
 SCF Done:  E(RM062X) =  -226.538303483     A.U. after   14 cycles
             Convg  =    0.3970D-08             -V/T =  2.0076
 Calling FoFJK, ICntrl=      2127 FMM=F ISym2X=1 I1Cent= 0 IOpClX= 0 NMat=1 NMatS=1 NMatT=0.
 ***** Axes restored to original set *****
 -------------------------------------------------------------------
 Center     Atomic                   Forces (Hartrees/Bohr)
 Number     Number              X              Y              Z
 -------------------------------------------------------------------
      1        8           0.019786746    0.002100441    0.000000000
      2        8          -0.056919040    0.008596294    0.000000000
      3        1           0.018621094   -0.005553772    0.000000000
      4        8           0.011767022    0.001405038    0.000000000
      5        1           0.006744178   -0.006548001    0.000000000
 -------------------------------------------------------------------
 Cartesian Forces:  Max     0.056919040 RMS     0.016962679

 GradGradGradGradGradGradGradGradGradGradGradGradGradGradGradGradGradGrad
 Berny optimization.
 Internal  Forces:  Max     0.038400892 RMS     0.018629553
 Search for a saddle point.
 Step number   6 out of a maximum of  100
 All quantities printed in internal units (Hartrees-Bohrs-Radians)
 Swaping is turned off.
 Update second derivatives using D2CorX and points    3    4    5    6
 The second derivative matrix:
                          R1        R2        R3        R4        A1
           R1           0.40770
           R2           0.01308   0.08659
           R3           0.13812   0.04271   0.43972
           R4          -0.00579   0.00375  -0.00986   0.69211
           A1          -0.03795  -0.03715  -0.07484  -0.00357   0.03433
           A2           0.04175   0.04692   0.09140   0.00641  -0.05880
           A3           0.01657   0.00661  -0.00276  -0.00492  -0.00731
           A4           0.00000   0.00000   0.00000   0.00000   0.00000
           D1           0.00000   0.00000   0.00000   0.00000   0.00000
                          A2        A3        A4        D1
           A2           0.22068
           A3           0.01975  -0.09756
           A4           0.00000   0.00000  -0.02715
           D1           0.00000   0.00000  -0.00718  -0.03399
     Eigenvalues ---   -0.09971  -0.03853  -0.02261   0.00502   0.07486
     Eigenvalues ---    0.20066   0.29988   0.60968   0.69317
 Eigenvectors required to have negative eigenvalues:
                          A3        A2        R1        A1        R3
   1                    0.99670  -0.05709  -0.03290   0.03112   0.02918
                          R2        R4        D1        A4
   1                   -0.01928   0.00701   0.00000   0.00000
 RFO step:  Lambda0=7.383546018D-05 Lambda=-3.85254673D-02.
 Linear search not attempted -- option 19 set.
 Maximum step size (   0.300) exceeded in Quadratic search.
    -- Step size scaled by   0.316
 Iteration  1 RMS(Cart)=  0.03816880 RMS(Int)=  0.04188191
 Iteration  2 RMS(Cart)=  0.00386353 RMS(Int)=  0.00023362
 Iteration  3 RMS(Cart)=  0.00031549 RMS(Int)=  0.00000031
 Iteration  4 RMS(Cart)=  0.00000011 RMS(Int)=  0.00000000
 ClnCor:  largest displacement from symmetrization is 2.05D-02 for atom     2.
 Variable       Old X    -DE/DX   Delta X   Delta X   Delta X     New X
                                 (Linear)    (Quad)   (Total)
    R1        2.28210  -0.01878   0.00000  -0.01887  -0.01910   2.26300
    R2        2.95838   0.03840   0.00000   0.08800   0.08787   3.04625
    R3        1.78281   0.01403   0.00000   0.00123   0.00122   1.78403
    R4        1.76075   0.00905   0.00000   0.00306   0.00306   1.76382
    A1        3.07583  -0.01482   0.00000  -0.01415  -0.01062   3.06521
    A2        2.28462   0.02789   0.00000   0.01798   0.01807   2.30268
    A3        3.12551   0.00443   0.00000  -0.00614  -0.00619   3.11933
    A4        3.14159   0.00000   0.00000  -0.00711   0.00000   3.14159
    D1        3.14159   0.00000   0.00000   0.28509   0.00000   3.14159
         Item               Value     Threshold  Converged?
 Maximum Force            0.038401     0.000450     NO 
 RMS     Force            0.018630     0.000300     NO 
 Maximum Displacement     0.065225     0.001800     NO 
 RMS     Displacement     0.036971     0.001200     NO 
 Predicted change in Energy=-3.885275D-03
 GradGradGradGradGradGradGradGradGradGradGradGradGradGradGradGradGradGrad

                          Input orientation:                          
 ---------------------------------------------------------------------
 Center     Atomic      Atomic             Coordinates (Angstroms)
 Number     Number       Type             X           Y           Z
 ---------------------------------------------------------------------
      1          8           0       -2.559283    1.229567    0.000000
      2          8           0       -1.397898    0.937582    0.000000
      3          1           0        0.190891    0.664981    0.000000
      4          8           0        0.693936   -0.133899    0.000000
      5          1           0        1.173573   -0.934604    0.000000
 ---------------------------------------------------------------------
                    Distance matrix (angstroms):
                    1          2          3          4          5
     1  O    0.000000
     2  O    1.197527   0.000000
     3  H    2.807529   1.612006   0.000000
     4  O    3.527389   2.350285   0.944067   0.000000
     5  H    4.314841   3.180809   1.877321   0.933371   0.000000
 Stoichiometry    H2O3
 Framework group  CS[SG(H2O3)]
 Deg. of freedom     7
 Full point group                 CS      NOp   2
 Largest Abelian subgroup         CS      NOp   2
 Largest concise Abelian subgroup C1      NOp   1
                         Standard orientation:                         
 ---------------------------------------------------------------------
 Center     Atomic      Atomic             Coordinates (Angstroms)
 Number     Number       Type             X           Y           Z
 ---------------------------------------------------------------------
      1          8           0       -0.443287    1.662993    0.000000
      2          8           0        0.000000    0.550533    0.000000
      3          1           0        0.709245   -0.897063    0.000000
      4          8           0        0.356148   -1.772611    0.000000
      5          1           0       -0.012134   -2.630253    0.000000
 ---------------------------------------------------------------------
 Rotational constants (GHZ):    553.3417399      4.5270345      4.4902982
 Standard basis: 6-31+G(d,p) (6D, 7F)
 There are    50 symmetry adapted basis functions of A'  symmetry.
 There are    17 symmetry adapted basis functions of A"  symmetry.
 Integral buffers will be    262144 words long.
 Raffenetti 2 integral format.
 Two-electron integral symmetry is turned on.
    67 basis functions,   110 primitive gaussians,    67 cartesian basis functions
    13 alpha electrons       13 beta electrons
       nuclear repulsion energy        68.0400542383 Hartrees.
 NAtoms=    5 NActive=    5 NUniq=    5 SFac= 7.50D-01 NAtFMM=   80 NAOKFM=F Big=F
 One-electron integrals computed using PRISM.
 NBasis=    67 RedAO= T  NBF=    50    17
 NBsUse=    67 1.00D-06 NBFU=    50    17
 Initial guess read from the read-write file.
 B after Tr=     0.000000    0.000000    0.000000
         Rot=    1.000000    0.000000    0.000000    0.000000 Ang=   0.00 deg.
 Initial guess orbital symmetries:
       Occupied  (A') (A') (A') (A') (A') (A') (A') (A') (A') (A")
                 (A') (A") (A')
       Virtual   (A") (A') (A') (A') (A") (A') (A') (A') (A") (A')
                 (A") (A') (A') (A') (A') (A') (A') (A') (A") (A')
                 (A') (A") (A') (A') (A") (A') (A') (A") (A') (A')
                 (A") (A') (A") (A') (A') (A') (A") (A') (A') (A")
                 (A") (A') (A') (A") (A') (A') (A') (A") (A') (A')
                 (A') (A') (A') (A')
 Harris functional with IExCor= 1009 diagonalized for initial guess.
 ExpMin= 8.45D-02 ExpMax= 5.48D+03 ExpMxC= 8.25D+02 IAcc=2 IRadAn=         0 AccDes= 0.00D+00
 HarFok:  IExCor= 1009 AccDes= 0.00D+00 IRadAn=         0 IDoV= 1
 ScaDFX=  1.000000  1.000000  1.000000  1.000000
 FoFCou: FMM=F IPFlag=           0 FMFlag=      100000 FMFlg1=           0
         NFxFlg=           0 DoJE=T BraDBF=F KetDBF=T FulRan=T
         Omega=  0.000000  0.000000  1.000000  0.000000  0.000000 ICntrl=     500 IOpCl=  0
         NMat0=    1 NMatS0=    1 NMatT0=    0 NMatD0=    1 NMtDS0=    0 NMtDT0=    0
         I1Cent=           4 NGrid=           0.
 Petite list used in FoFCou.
 Requested convergence on RMS density matrix=1.00D-08 within 128 cycles.
 Requested convergence on MAX density matrix=1.00D-06.
 Requested convergence on             energy=1.00D-06.
 No special actions if energy rises.
 Keep R1 ints in memory in canonical form, NReq=3551244.
 Integral accuracy reduced to 1.0D-05 until final iterations.
 Initial convergence to 1.0D-05 achieved.  Increase integral accuracy.
 SCF Done:  E(RM062X) =  -226.542226163     A.U. after   17 cycles
             Convg  =    0.5526D-08             -V/T =  2.0076
 Calling FoFJK, ICntrl=      2127 FMM=F ISym2X=1 I1Cent= 0 IOpClX= 0 NMat=1 NMatS=1 NMatT=0.
 ***** Axes restored to original set *****
 -------------------------------------------------------------------
 Center     Atomic                   Forces (Hartrees/Bohr)
 Number     Number              X              Y              Z
 -------------------------------------------------------------------
      1        8           0.003856600    0.005202679    0.000000000
      2        8          -0.034415621    0.003335342    0.000000000
      3        1           0.016143334   -0.006462156    0.000000000
      4        8           0.009621306    0.002973991    0.000000000
      5        1           0.004794381   -0.005049856    0.000000000
 -------------------------------------------------------------------
 Cartesian Forces:  Max     0.034415621 RMS     0.010613729

 GradGradGradGradGradGradGradGradGradGradGradGradGradGradGradGradGradGrad
 Berny optimization.
 Internal  Forces:  Max     0.031598941 RMS     0.014315787
 Search for a saddle point.
 Step number   7 out of a maximum of  100
 All quantities printed in internal units (Hartrees-Bohrs-Radians)
 Swaping is turned off.
 Update second derivatives using D2CorX and points    3    4    5    6    7
 The second derivative matrix:
                          R1        R2        R3        R4        A1
           R1           0.44604
           R2          -0.09805   0.05187
           R3           0.13735   0.05042   0.42926
           R4          -0.00835  -0.00133  -0.01002   0.69183
           A1          -0.04313  -0.01231  -0.06623  -0.00249   0.02842
           A2           0.01856   0.01384   0.08947   0.00437  -0.04881
           A3           0.01959   0.01080  -0.00398  -0.00471  -0.00716
           A4           0.00000   0.00000   0.00000   0.00000   0.00000
           D1           0.00000   0.00000   0.00000   0.00000   0.00000
                          A2        A3        A4        D1
           A2           0.20551
           A3           0.02121  -0.09785
           A4           0.00000   0.00000  -0.02715
           D1           0.00000   0.00000  -0.00718  -0.03399
     Eigenvalues ---   -0.10233  -0.03853  -0.02261   0.00171   0.02213
     Eigenvalues ---    0.17765   0.35925   0.60322   0.69344
 Eigenvectors required to have negative eigenvalues:
                          A3        R2        A2        R1        R3
   1                    0.98683  -0.11871  -0.07003  -0.06488   0.04991
                          A1        R4        D1        A4
   1                    0.02075   0.00604   0.00000   0.00000
 RFO step:  Lambda0=4.646184216D-05 Lambda=-3.85254673D-02.
 Linear search not attempted -- option 19 set.
 Maximum step size (   0.300) exceeded in Quadratic search.
    -- Step size scaled by   0.290
 Iteration  1 RMS(Cart)=  0.06685706 RMS(Int)=  0.03670957
 Iteration  2 RMS(Cart)=  0.00417443 RMS(Int)=  0.00021920
 Iteration  3 RMS(Cart)=  0.00029706 RMS(Int)=  0.00000023
 Iteration  4 RMS(Cart)=  0.00000010 RMS(Int)=  0.00000000
 ClnCor:  largest displacement from symmetrization is 2.35D-02 for atom     2.
 Variable       Old X    -DE/DX   Delta X   Delta X   Delta X     New X
                                 (Linear)    (Quad)   (Total)
    R1        2.26300  -0.00246   0.00000   0.02945   0.02914   2.29214
    R2        3.04625   0.03160   0.00000   0.13726   0.13711   3.18336
    R3        1.78403   0.00939   0.00000  -0.02380  -0.02381   1.76021
    R4        1.76382   0.00677   0.00000   0.00294   0.00294   1.76676
    A1        3.06521  -0.01333   0.00000  -0.01984  -0.01622   3.04899
    A2        2.30268   0.02281   0.00000   0.01929   0.01939   2.32207
    A3        3.11933   0.00281   0.00000   0.02767   0.02763   3.14695
    A4        3.14159   0.00000   0.00000   0.00651   0.00000   3.14159
    D1        3.14159   0.00000   0.00000  -0.26104   0.00000   3.14159
         Item               Value     Threshold  Converged?
 Maximum Force            0.031599     0.000450     NO 
 RMS     Force            0.014316     0.000300     NO 
 Maximum Displacement     0.093915     0.001800     NO 
 RMS     Displacement     0.065641     0.001200     NO 
 Predicted change in Energy=-4.521632D-03
 GradGradGradGradGradGradGradGradGradGradGradGradGradGradGradGradGradGrad

                          Input orientation:                          
 ---------------------------------------------------------------------
 Center     Atomic      Atomic             Coordinates (Angstroms)
 Number     Number       Type             X           Y           Z
 ---------------------------------------------------------------------
      1          8           0       -2.608981    1.272685    0.000000
      2          8           0       -1.441939    0.942149    0.000000
      3          1           0        0.214370    0.634935    0.000000
      4          8           0        0.715353   -0.150331    0.000000
      5          1           0        1.222416   -0.935810    0.000000
 ---------------------------------------------------------------------
                    Distance matrix (angstroms):
                    1          2          3          4          5
     1  O    0.000000
     2  O    1.212948   0.000000
     3  H    2.894484   1.684559   0.000000
     4  O    3.616099   2.418144   0.931465   0.000000
     5  H    4.422336   3.259680   1.866386   0.934928   0.000000
 Stoichiometry    H2O3
 Framework group  CS[SG(H2O3)]
 Deg. of freedom     7
 Full point group                 CS      NOp   2
 Largest Abelian subgroup         CS      NOp   2
 Largest concise Abelian subgroup C1      NOp   1
                         Standard orientation:                         
 ---------------------------------------------------------------------
 Center     Atomic      Atomic             Coordinates (Angstroms)
 Number     Number       Type             X           Y           Z
 ---------------------------------------------------------------------
      1          8           0       -0.380058    1.720335    0.000000
      2          8           0        0.000000    0.568468    0.000000
      3          1           0        0.673493   -0.975601    0.000000
      4          8           0        0.303724   -1.830526    0.000000
      5          1           0       -0.062815   -2.690607    0.000000
 ---------------------------------------------------------------------
 Rotational constants (GHZ):    647.5962913      4.2991577      4.2708054
 Standard basis: 6-31+G(d,p) (6D, 7F)
 There are    50 symmetry adapted basis functions of A'  symmetry.
 There are    17 symmetry adapted basis functions of A"  symmetry.
 Integral buffers will be    262144 words long.
 Raffenetti 2 integral format.
 Two-electron integral symmetry is turned on.
    67 basis functions,   110 primitive gaussians,    67 cartesian basis functions
    13 alpha electrons       13 beta electrons
       nuclear repulsion energy        66.8808994567 Hartrees.
 NAtoms=    5 NActive=    5 NUniq=    5 SFac= 7.50D-01 NAtFMM=   80 NAOKFM=F Big=F
 One-electron integrals computed using PRISM.
 NBasis=    67 RedAO= T  NBF=    50    17
 NBsUse=    67 1.00D-06 NBFU=    50    17
 Initial guess read from the read-write file.
 B after Tr=     0.000000    0.000000    0.000000
         Rot=    1.000000    0.000000    0.000000    0.000000 Ang=   0.00 deg.
 Initial guess orbital symmetries:
       Occupied  (A') (A') (A') (A') (A') (A') (A') (A') (A') (A")
                 (A') (A") (A')
       Virtual   (A") (A') (A') (A') (A") (A') (A') (A") (A') (A')
                 (A") (A') (A') (A') (A') (A') (A') (A') (A") (A')
                 (A') (A") (A') (A') (A") (A') (A') (A") (A') (A')
                 (A") (A') (A") (A') (A') (A') (A") (A') (A') (A")
[...]
 Internal  Forces:  Max     0.000375911 RMS     0.000243692
 Search for a saddle point.
 Step number  99 out of a maximum of  100
 All quantities printed in internal units (Hartrees-Bohrs-Radians)
 Swaping is turned off.
 Update second derivatives using D2CorX and points   97   98   99
 The second derivative matrix:
                          R1        R2        R3        R4        A1
           R1           0.76912
           R2          -0.01226   0.03572
           R3           0.02889  -0.00853   0.53631
           R4          -0.00477   0.01164  -0.01239   0.69712
           A1           0.00757   0.00738  -0.00253   0.00244   0.02327
           A2           0.00007   0.01502   0.06993   0.03748   0.00305
           A3           0.01597  -0.02734   0.05977   0.00820  -0.00855
           A4          -0.00568   0.01442  -0.00884   0.00433   0.00416
           D1           0.00540  -0.01533   0.00330  -0.00731  -0.00568
                          A2        A3        A4        D1
           A2           0.28751
           A3           0.16681   0.14299
           A4          -0.00595  -0.02189   0.00766
           D1          -0.01686   0.00937  -0.00639   0.00909
     Eigenvalues ---   -0.00054   0.00097   0.00402   0.02033   0.08168
     Eigenvalues ---    0.34844   0.57729   0.70170   0.77490
 Eigenvectors required to have negative eigenvalues:
                          D1        A4        A3        A2        A1
   1                    0.60368  -0.59359  -0.44906   0.28114   0.04162
                          R2        R1        R3        R4
   1                    0.02825   0.00069   0.00049  -0.00041
 RFO step:  Lambda0=1.527391199D-04 Lambda=-2.68540489D-05.
 Linear search not attempted -- option 19 set.
 Maximum step size (   0.300) exceeded in Quadratic search.
    -- Step size scaled by   0.619
 Iteration  1 RMS(Cart)=  0.10116564 RMS(Int)=  0.02172047
 Iteration  2 RMS(Cart)=  0.02347501 RMS(Int)=  0.00068631
 Iteration  3 RMS(Cart)=  0.00055082 RMS(Int)=  0.00000023
 Iteration  4 RMS(Cart)=  0.00000030 RMS(Int)=  0.00000000
 Variable       Old X    -DE/DX   Delta X   Delta X   Delta X     New X
                                 (Linear)    (Quad)   (Total)
    R1        2.26028   0.00027   0.00000   0.00035   0.00035   2.26063
    R2        4.07322   0.00038   0.00000   0.02903   0.02903   4.10224
    R3        1.82054   0.00004   0.00000   0.00022   0.00022   1.82076
    R4        1.81691  -0.00006   0.00000  -0.00016  -0.00016   1.81675
    A1        1.75625   0.00023   0.00000   0.02185   0.02185   1.77809
    A2        2.86521  -0.00031   0.00000   0.07714   0.07714   2.94235
    A3        2.13359  -0.00012   0.00000  -0.11875  -0.11875   2.01484
    A4        5.15493   0.00036   0.00000  -0.13016  -0.13016   5.02477
    D1       -0.33036  -0.00017   0.00000   0.22735   0.22735  -0.10301
         Item               Value     Threshold  Converged?
 Maximum Force            0.000376     0.000450     YES
 RMS     Force            0.000244     0.000300     YES
 Maximum Displacement     0.164337     0.001800     NO 
 RMS     Displacement     0.119820     0.001200     NO 
 Predicted change in Energy= 6.020601D-05
 GradGradGradGradGradGradGradGradGradGradGradGradGradGradGradGradGradGrad

                          Input orientation:                          
 ---------------------------------------------------------------------
 Center     Atomic      Atomic             Coordinates (Angstroms)
 Number     Number       Type             X           Y           Z
 ---------------------------------------------------------------------
      1          8           0       -2.477616    0.856104    0.032743
      2          8           0       -1.559851    1.545712    0.369229
      3          1           0        0.145468    0.330243   -0.202571
      4          8           0        0.769905   -0.341121   -0.498689
      5          1           0        1.223314   -0.627311    0.299288
 ---------------------------------------------------------------------
                    Distance matrix (angstroms):
                    1          2          3          4          5
     1  O    0.000000
     2  O    1.196275   0.000000
     3  H    2.685604   2.170813   0.000000
     4  O    3.501737   3.121087   0.963503   0.000000
     5  H    3.996054   3.531704   1.526606   0.961381   0.000000
 Stoichiometry    H2O3
 Framework group  C1[X(H2O3)]
 Deg. of freedom     9
 Full point group                 C1      NOp   1
 Largest Abelian subgroup         C1      NOp   1
 Largest concise Abelian subgroup C1      NOp   1
                         Standard orientation:                         
 ---------------------------------------------------------------------
 Center     Atomic      Atomic             Coordinates (Angstroms)
 Number     Number       Type             X           Y           Z
 ---------------------------------------------------------------------
      1          8           0       -1.452984   -0.520689    0.029554
      2          8           0       -1.013579    0.590909   -0.018879
      3          1           0        1.124821    0.223465   -0.087156
      4          8           0        2.023984   -0.122703   -0.090679
      5          1           0        2.415807    0.196401    0.727185
 ---------------------------------------------------------------------
 Rotational constants (GHZ):     46.3504737      4.0980906      3.8024915
 Standard basis: 6-31+G(d,p) (6D, 7F)
 There are    67 symmetry adapted basis functions of A   symmetry.
 Integral buffers will be    262144 words long.
 Raffenetti 2 integral format.
 Two-electron integral symmetry is turned on.
    67 basis functions,   110 primitive gaussians,    67 cartesian basis functions
    13 alpha electrons       13 beta electrons
       nuclear repulsion energy        63.7618496670 Hartrees.
 NAtoms=    5 NActive=    5 NUniq=    5 SFac= 7.50D-01 NAtFMM=   80 NAOKFM=F Big=F
 One-electron integrals computed using PRISM.
 NBasis=    67 RedAO= T  NBF=    67
 NBsUse=    67 1.00D-06 NBFU=    67
 Initial guess read from the read-write file.
 B after Tr=     0.000000    0.000000    0.000000
         Rot=    1.000000    0.000000    0.000000    0.000000 Ang=   0.00 deg.
 Initial guess orbital symmetries:
       Occupied  (A) (A) (A) (A) (A) (A) (A) (A) (A) (A) (A) (A)
                 (A)
       Virtual   (A) (A) (A) (A) (A) (A) (A) (A) (A) (A) (A) (A)
                 (A) (A) (A) (A) (A) (A) (A) (A) (A) (A) (A) (A)
                 (A) (A) (A) (A) (A) (A) (A) (A) (A) (A) (A) (A)
                 (A) (A) (A) (A) (A) (A) (A) (A) (A) (A) (A) (A)
                 (A) (A) (A) (A) (A) (A)
 Harris functional with IExCor= 1009 diagonalized for initial guess.
 ExpMin= 8.45D-02 ExpMax= 5.48D+03 ExpMxC= 8.25D+02 IAcc=2 IRadAn=         0 AccDes= 0.00D+00
 HarFok:  IExCor= 1009 AccDes= 0.00D+00 IRadAn=         0 IDoV= 1
 ScaDFX=  1.000000  1.000000  1.000000  1.000000
 FoFCou: FMM=F IPFlag=           0 FMFlag=      100000 FMFlg1=           0
         NFxFlg=           0 DoJE=T BraDBF=F KetDBF=T FulRan=T
         Omega=  0.000000  0.000000  1.000000  0.000000  0.000000 ICntrl=     500 IOpCl=  0
         NMat0=    1 NMatS0=    1 NMatT0=    0 NMatD0=    1 NMtDS0=    0 NMtDT0=    0
         I1Cent=           4 NGrid=           0.
 Petite list used in FoFCou.
 Requested convergence on RMS density matrix=1.00D-08 within 128 cycles.
 Requested convergence on MAX density matrix=1.00D-06.
 Requested convergence on             energy=1.00D-06.
 No special actions if energy rises.
 Keep R1 ints in memory in canonical form, NReq=3551380.
 Integral accuracy reduced to 1.0D-05 until final iterations.
 Initial convergence to 1.0D-05 achieved.  Increase integral accuracy.
 SCF Done:  E(RM062X) =  -226.602045438     A.U. after   24 cycles
             Convg  =    0.3534D-08             -V/T =  2.0081
 Calling FoFJK, ICntrl=      2127 FMM=F ISym2X=0 I1Cent= 0 IOpClX= 0 NMat=1 NMatS=1 NMatT=0.
 ***** Axes restored to original set *****
 -------------------------------------------------------------------
 Center     Atomic                   Forces (Hartrees/Bohr)
 Number     Number              X              Y              Z
 -------------------------------------------------------------------
      1        8           0.000118243   -0.000078319   -0.000057306
      2        8          -0.000454888    0.000227276   -0.000070121
      3        1          -0.000361030    0.000405665   -0.001116603
      4        8          -0.000760438    0.000851774    0.001654525
      5        1           0.001458114   -0.001406397   -0.000410495
 -------------------------------------------------------------------
 Cartesian Forces:  Max     0.001654525 RMS     0.000822289

 GradGradGradGradGradGradGradGradGradGradGradGradGradGradGradGradGradGrad
 Berny optimization.
 Internal  Forces:  Max     0.003483972 RMS     0.001520981
 Search for a saddle point.
 Step number 100 out of a maximum of  100
 All quantities printed in internal units (Hartrees-Bohrs-Radians)
 Swaping is turned off.
 Update second derivatives using D2CorX and points   98   99  100
 The second derivative matrix:
                          R1        R2        R3        R4        A1
           R1           0.76912
           R2          -0.01220   0.03561
           R3           0.02889  -0.00874   0.53632
           R4          -0.00478   0.01136  -0.01237   0.69715
           A1           0.00761   0.00747  -0.00266   0.00226   0.02342
           A2           0.00018   0.01381   0.06952   0.03692   0.00269
           A3           0.01572  -0.02840   0.06059   0.00935  -0.00977
           A4          -0.00597   0.01492  -0.00785   0.00569   0.00369
           D1           0.00579  -0.01578   0.00198  -0.00913  -0.00493
                          A2        A3        A4        D1
           A2           0.28295
           A3           0.16818   0.15258
           A4          -0.00039  -0.01669   0.00558
           D1          -0.02384   0.00169  -0.00459   0.00795
     Eigenvalues ---   -0.00185   0.00111   0.00544   0.02036   0.08191
     Eigenvalues ---    0.34936   0.57765   0.70179   0.77490
 Eigenvectors required to have negative eigenvalues:
                          A4        D1        R2        A3        A2
   1                    0.69633  -0.57269  -0.41442   0.08341  -0.07663
                          A1        R3        R4        R1
   1                   -0.05022   0.00564  -0.00321   0.00171
 RFO step:  Lambda0=3.815925986D-05 Lambda=-2.77221959D-04.
 Linear search not attempted -- option 19 set.
 Iteration  1 RMS(Cart)=  0.09045348 RMS(Int)=  0.01097415
 Iteration  2 RMS(Cart)=  0.00744381 RMS(Int)=  0.00003650
 Iteration  3 RMS(Cart)=  0.00004790 RMS(Int)=  0.00000000
 Iteration  4 RMS(Cart)=  0.00000000 RMS(Int)=  0.00000000
 Variable       Old X    -DE/DX   Delta X   Delta X   Delta X     New X
                                 (Linear)    (Quad)   (Total)
    R1        2.26063  -0.00006   0.00000  -0.00032  -0.00032   2.26031
    R2        4.10224   0.00028   0.00000   0.05891   0.05891   4.16116
    R3        1.82076   0.00058   0.00000  -0.00076  -0.00076   1.82000
    R4        1.81675   0.00076   0.00000   0.00046   0.00046   1.81721
    A1        1.77809  -0.00027   0.00000  -0.00059  -0.00059   1.77750
    A2        2.94235   0.00274   0.00000  -0.08810  -0.08810   2.85425
    A3        2.01484   0.00348   0.00000   0.14640   0.14640   2.16125
    A4        5.02477  -0.00033   0.00000   0.13143   0.13143   5.15621
    D1       -0.10301   0.00003   0.00000  -0.09818  -0.09818  -0.20119
         Item               Value     Threshold  Converged?
 Maximum Force            0.003484     0.000450     NO 
 RMS     Force            0.001521     0.000300     NO 
 Maximum Displacement     0.160865     0.001800     NO 
 RMS     Displacement     0.090118     0.001200     NO 
 Predicted change in Energy=-1.245965D-04
 Optimization stopped.
    -- Number of steps exceeded,  NStep= 100
    -- Flag reset to prevent archiving.
                           ----------------------------
                           ! Non-Optimized Parameters !
                           ! (Angstroms and Degrees)  !
 --------------------------                            --------------------------
 ! Name  Definition              Value          Derivative Info.                !
 --------------------------------------------------------------------------------
 ! R1    R(1,2)                  1.1961         -DE/DX =   -0.0001              !
 ! R2    R(2,3)                  2.202          -DE/DX =    0.0003              !
 ! R3    R(3,4)                  0.9631         -DE/DX =    0.0006              !
 ! R4    R(4,5)                  0.9616         -DE/DX =    0.0008              !
 ! A1    A(1,2,3)              101.8432         -DE/DX =   -0.0003              !
 ! A2    A(2,3,4)              163.5364         -DE/DX =    0.0027              !
 ! A3    L(3,4,5,2,-1)         123.8303         -DE/DX =    0.0035              !
 ! A4    L(3,4,5,2,-2)         295.4289         -DE/DX =   -0.0003              !
 ! D1    D(1,2,3,4)            -11.5272         -DE/DX =    0.0                 !
 --------------------------------------------------------------------------------
 GradGradGradGradGradGradGradGradGradGradGradGradGradGradGradGradGradGrad

                          Input orientation:                          
 ---------------------------------------------------------------------
 Center     Atomic      Atomic             Coordinates (Angstroms)
 Number     Number       Type             X           Y           Z
 ---------------------------------------------------------------------
      1          8           0       -2.477616    0.856104    0.032743
      2          8           0       -1.559851    1.545712    0.369229
      3          1           0        0.145468    0.330243   -0.202571
      4          8           0        0.769905   -0.341121   -0.498689
      5          1           0        1.223314   -0.627311    0.299288
 ---------------------------------------------------------------------
                    Distance matrix (angstroms):
                    1          2          3          4          5
     1  O    0.000000
     2  O    1.196275   0.000000
     3  H    2.685604   2.170813   0.000000
     4  O    3.501737   3.121087   0.963503   0.000000
     5  H    3.996054   3.531704   1.526606   0.961381   0.000000
 Stoichiometry    H2O3
 Framework group  C1[X(H2O3)]
 Deg. of freedom     9
 Full point group                 C1      NOp   1
 Largest Abelian subgroup         C1      NOp   1
 Largest concise Abelian subgroup C1      NOp   1
                         Standard orientation:                         
 ---------------------------------------------------------------------
 Center     Atomic      Atomic             Coordinates (Angstroms)
 Number     Number       Type             X           Y           Z
 ---------------------------------------------------------------------
      1          8           0       -1.452984   -0.520689    0.029554
      2          8           0       -1.013579    0.590909   -0.018879
      3          1           0        1.124821    0.223465   -0.087156
      4          8           0        2.023984   -0.122703   -0.090679
      5          1           0        2.415807    0.196401    0.727185
 ---------------------------------------------------------------------
 Rotational constants (GHZ):     46.3504737      4.0980906      3.8024915

 **********************************************************************

            Population analysis using the SCF density.

 **********************************************************************

 Orbital symmetries:
       Occupied  (A) (A) (A) (A) (A) (A) (A) (A) (A) (A) (A) (A)
                 (A)
       Virtual   (A) (A) (A) (A) (A) (A) (A) (A) (A) (A) (A) (A)
                 (A) (A) (A) (A) (A) (A) (A) (A) (A) (A) (A) (A)
                 (A) (A) (A) (A) (A) (A) (A) (A) (A) (A) (A) (A)
                 (A) (A) (A) (A) (A) (A) (A) (A) (A) (A) (A) (A)
                 (A) (A) (A) (A) (A) (A)
 The electronic state is 1-A.
 Alpha  occ. eigenvalues --  -19.83587 -19.83422 -19.64269  -1.45713  -1.12848
 Alpha  occ. eigenvalues --   -0.93730  -0.65168  -0.64548  -0.62358  -0.59964
 Alpha  occ. eigenvalues --   -0.46378  -0.39029  -0.36245
 Alpha virt. eigenvalues --   -0.13863   0.06166   0.09533   0.11248   0.12484
 Alpha virt. eigenvalues --    0.16445   0.17932   0.19702   0.20132   0.21587
 Alpha virt. eigenvalues --    0.24422   0.26132   0.29352   0.31822   0.33882
 Alpha virt. eigenvalues --    0.36040   0.98479   1.03987   1.06664   1.10502
 Alpha virt. eigenvalues --    1.11359   1.14664   1.16662   1.17502   1.19646
 Alpha virt. eigenvalues --    1.21401   1.21693   1.31923   1.38035   1.53459
 Alpha virt. eigenvalues --    1.55446   1.56340   1.57390   1.59963   1.64141
 Alpha virt. eigenvalues --    1.68024   1.70974   1.96623   1.99163   2.29408
 Alpha virt. eigenvalues --    2.32898   2.54578   2.56054   2.60689   2.64808
 Alpha virt. eigenvalues --    2.68239   2.70393   2.95952   3.06595   3.43150
 Alpha virt. eigenvalues --    3.62048   3.71719   3.98912   4.10518
          Condensed to atoms (all electrons):
              1          2          3          4          5
     1  O    7.644607   0.332598  -0.006126   0.003243  -0.000772
     2  O    0.332598   7.673573   0.014142  -0.000148   0.000720
     3  H   -0.006126   0.014142   0.358819   0.274364  -0.023846
     4  O    0.003243  -0.000148   0.274364   8.186552   0.288727
     5  H   -0.000772   0.000720  -0.023846   0.288727   0.370645
 Mulliken atomic charges:
              1
     1  O    0.026450
     2  O   -0.020885
     3  H    0.382648
     4  O   -0.752738
     5  H    0.364525
 Sum of Mulliken atomic charges =   0.00000
 Mulliken charges with hydrogens summed into heavy atoms:
              1
     1  O    0.026450
     2  O   -0.020885
     4  O   -0.005565
 Sum of Mulliken charges with hydrogens summed into heavy atoms =   0.00000
 Electronic spatial extent (au):  <R**2>=            292.3788
 Charge=              0.0000 electrons
 Dipole moment (field-independent basis, Debye):
    X=             -1.2238    Y=              1.1745    Z=              1.5546  Tot=              2.3008
 Quadrupole moment (field-independent basis, Debye-Ang):
   XX=            -19.8231   YY=            -18.1487   ZZ=            -15.3900
   XY=              2.4308   XZ=              4.2036   YZ=              0.4833
 Traceless Quadrupole moment (field-independent basis, Debye-Ang):
   XX=             -2.0358   YY=             -0.3615   ZZ=              2.3973
   XY=              2.4308   XZ=              4.2036   YZ=              0.4833
 Octapole moment (field-independent basis, Debye-Ang**2):
  XXX=             -3.4413  YYY=              0.8211  ZZZ=              1.6407  XYY=             -1.9231
  XXY=              3.8008  XXZ=             11.1745  XZZ=             -0.6533  YZZ=              0.4383
  YYZ=              0.3240  XYZ=              0.8567
 Hexadecapole moment (field-independent basis, Debye-Ang**3):
 XXXX=           -279.2327 YYYY=            -34.7088 ZZZZ=            -13.5151 XXXY=              9.7390
 XXXZ=             28.9434 YYYX=              2.9641 YYYZ=              0.3562 ZZZX=              4.2841
 ZZZY=              0.4457 XXYY=            -55.0883 XXZZ=            -42.3319 YYZZ=             -7.7474
 XXYZ=              2.3949 YYXZ=              0.8668 ZZXY=              1.1297
 N-N= 6.376184966695D+01 E-N=-6.619121100152D+02  KE= 2.247841319600D+02


 PERICLES, SOPHOCLES,
 PELOPONESIAN WAR,
 FRENCH VERBS, LATIN VERBS
 H2SO4.
 Error termination request processed by link 9999.
 Error termination via Lnk1e in C:\G09W\l9999.exe at Tue Feb 09 13:54:05 2021.
 Job cpu time:  0 days  0 hours 10 minutes  2.0 seconds.
 File lengths (MBytes):  RWF=      6 Int=      0 D2E=      0 Chk=      1 Scr=      1
