 Entering Link 1 = C:\G09W\l1.exe PID=      7924.
  
 Copyright (c) 1988,1990,1992,1993,1995,1998,2003,2009, Gaussian, Inc.
                  All Rights Reserved.
  
 This is part of the Gaussian(R) 09 program.  It is based on
 the Gaussian(R) 03 system (copyright 2003, Gaussian, Inc.),
 the Gaussian(R) 98 system (copyright 1998, Gaussian, Inc.),
 the Gaussian(R) 94 system (copyright 1995, Gaussian, Inc.),
 the Gaussian 92(TM) system (copyright 1992, Gaussian, Inc.),
 the Gaussian 90(TM) system (copyright 1990, Gaussian, Inc.),
 the Gaussian 88(TM) system (copyright 1988, Gaussian, Inc.),
 the Gaussian 86(TM) system (copyright 1986, Carnegie Mellon
 University), and the Gaussian 82(TM) system (copyright 1983,
 Carnegie Mellon University). Gaussian is a federally registered
 trademark of Gaussian, Inc.
  
 This software contains proprietary and confidential information,
 including trade secrets, belonging to Gaussian, Inc.
  
 This software is provided under written license and may be
 used, copied, transmitted, or stored only in accord with that
 written license.
  
 The following legend is applicable only to US Government
 contracts under FAR:
  
                    RESTRICTED RIGHTS LEGEND
  
 Use, reproduction and disclosure by the US Government is
 subject to restrictions as set forth in subparagraphs (a)
 and (c) of the Commercial Computer Software - Restricted
 Rights clause in FAR 52.227-19.
  
 Gaussian, Inc.
 340 Quinnipiac St., Bldg. 40, Wallingford CT 06492
  
  
 ---------------------------------------------------------------
 Warning -- This program may not be used in any manner that
 competes with the business of Gaussian, Inc. or will provide
 assistance to any competitor of Gaussian, Inc.  The licensee
 of this program is prohibited from giving any competitor of
 Gaussian, Inc. access to this program.  By using this program,
 the user acknowledges that Gaussian, Inc. is engaged in the
 business of creating and licensing software in the field of
 computational chemistry and represents and warrants to the
 licensee that it is not a competitor of Gaussian, Inc. and that
 it will not use this program in any manner prohibited above.
 ---------------------------------------------------------------
  

 Cite this work as:
 Gaussian 09, Revision A.02,
 M. J. Frisch, G. W. Trucks, H. B. Schlegel, G. E. Scuseria, 
 M. A. Robb, J. R. Cheeseman, G. Scalmani, V. Barone, B. Mennucci, 
 G. A. Petersson, H. Nakatsuji, M. Caricato, X. Li, H. P. Hratchian, 
 A. F. Izmaylov, J. Bloino, G. Zheng, J. L. Sonnenberg, M. Hada, 
 M. Ehara, K. Toyota, R. Fukuda, J. Hasegawa, M. Ishida, T. Nakajima, 
 Y. Honda, O. Kitao, H. Nakai, T. Vreven, J. A. Montgomery, Jr., 
 J. E. Peralta, F. Ogliaro, M. Bearpark, J. J. Heyd, E. Brothers, 
 K. N. Kudin, V. N. Staroverov, R. Kobayashi, J. Normand, 
 K. Raghavachari, A. Rendell, J. C. Burant, S. S. Iyengar, J. Tomasi, 
 M. Cossi, N. Rega, J. M. Millam, M. Klene, J. E. Knox, J. B. Cross, 
 V. Bakken, C. Adamo, J. Jaramillo, R. Gomperts, R. E. Stratmann, 
 O. Yazyev, A. J. Austin, R. Cammi, C. Pomelli, J. W. Ochterski, 
 R. L. Martin, K. Morokuma, V. G. Zakrzewski, G. A. Voth, 
 P. Salvador, J. J. Dannenberg, S. Dapprich, A. D. Daniels, 
 O. Farkas, J. B. Foresman, J. V. Ortiz, J. Cioslowski, 
 and D. J. Fox, Gaussian, Inc., Wallingford CT, 2009.
 
 ******************************************
 Gaussian 09:  IA32W-G09RevA.02 11-Jun-2009
                09-Feb-2021 
 ******************************************
 %chk=D:\Documents\rayGit\FQ\quimicaComputacional\proyecto\decompositionHydrogenP
 eroxide\descompositionByRadicals\gasPhase\step4\ts\Q2ST\ts\martes\top\ts.chk
 %mem=1500MB
 %nprocshared=4
 Will use up to    4 processors via shared memory.
 ----------------------------------------------------------------------
 # opt=(readfc,ts,noeigen,maxcycles=100) geom=check guess=check freq=no
 raman 6-31+g(d,p) m062x
 ----------------------------------------------------------------------
 1/5=1,6=100,10=3,11=1,14=-1,18=20,26=3,29=2,38=1/1,3;
 2/9=110,12=2,40=1/2;
 3/5=1,6=6,7=111,11=2,14=-4,16=1,25=1,30=1,71=1,74=-55,116=-2/1,2,3;
 4/5=1/1;
 5/5=2,38=6/2;
 6/7=2,8=2,9=2,10=2,28=1/1;
 7//1,2,3,16;
 1/5=1,6=100,11=1,14=-1,18=20/3(2);
 2/9=110/2;
 99//99;
 2/9=110/2;
 3/5=1,6=6,7=111,11=2,14=-2,16=1,25=1,30=1,71=1,74=-55/1,2,3;
 4/5=5,16=3/1;
 5/5=2,38=5/2;
 7//1,2,3,16;
 1/5=1,6=100,11=1,14=-1,18=20/3(-5);
 2/9=110/2;
 6/7=2,8=2,9=2,10=2,19=2,28=1/1;
 99/9=1/99;
 ------------
 ts OOH vs OH
 ------------
 Redundant internal coordinates taken from checkpoint file:
 D:\Documents\rayGit\FQ\quimicaComputacional\proyecto\decompositionHydrogenPeroxide\descompositionByRadicals\gasPhase\step4\ts\Q2ST\ts\martes\top\ts.chk
 Charge =  0 Multiplicity = 1
 O,0,-2.4776158975,0.8561039037,0.0327432066
 O,0,-1.5598511392,1.5457123161,0.3692285978
 H,0,0.1454675523,0.330243496,-0.2025705591
 O,0,0.7699046549,-0.3411214254,-0.4986893904
 H,0,1.2233140093,-0.6273112105,0.299288145
 Recover connectivity data from disk.

 GradGradGradGradGradGradGradGradGradGradGradGradGradGradGradGradGradGrad
 Berny optimization.
 Initialization pass.
 Force constant matrix read from checkpoint file:
 D:\Documents\rayGit\FQ\quimicaComputacional\proyecto\decompositionHydrogenPeroxi
 de\descompositionByRadicals\gasPhase\step4\ts\Q2ST\ts\martes\top\ts.chk
                           ----------------------------
                           !    Initial Parameters    !
                           ! (Angstroms and Degrees)  !
 --------------------------                            --------------------------
 ! Name  Definition              Value          Derivative Info.                !
 --------------------------------------------------------------------------------
 ! R1    R(1,2)                  1.1963         D2E/DX2 =    0.7691             !
 ! R2    R(2,3)                  2.1708         D2E/DX2 =    0.0356             !
 ! R3    R(3,4)                  0.9635         D2E/DX2 =    0.5363             !
 ! R4    R(4,5)                  0.9614         D2E/DX2 =    0.6971             !
 ! A1    A(1,2,3)              101.8773         D2E/DX2 =    0.0234             !
 ! A2    A(2,3,4)              168.5842         D2E/DX2 =    0.2829             !
 ! A3    L(3,4,5,2,-1)         115.442          D2E/DX2 =    0.1526             !
 ! A4    L(3,4,5,2,-2)         287.8983         D2E/DX2 =    0.0056             !
 ! D1    D(1,2,3,4)             -5.9021         D2E/DX2 =    0.0079             !
 --------------------------------------------------------------------------------
 Trust Radius=3.00D-01 FncErr=1.00D-07 GrdErr=1.00D-06
 Number of steps in this run= 100 maximum allowed number of steps= 100.
 Search for a saddle point of order  1.
 GradGradGradGradGradGradGradGradGradGradGradGradGradGradGradGradGradGrad

                          Input orientation:                          
 ---------------------------------------------------------------------
 Center     Atomic      Atomic             Coordinates (Angstroms)
 Number     Number       Type             X           Y           Z
 ---------------------------------------------------------------------
      1          8           0       -2.477616    0.856104    0.032743
      2          8           0       -1.559851    1.545712    0.369229
      3          1           0        0.145468    0.330243   -0.202571
      4          8           0        0.769905   -0.341121   -0.498689
      5          1           0        1.223314   -0.627311    0.299288
 ---------------------------------------------------------------------
                    Distance matrix (angstroms):
                    1          2          3          4          5
     1  O    0.000000
     2  O    1.196275   0.000000
     3  H    2.685604   2.170813   0.000000
     4  O    3.501737   3.121087   0.963503   0.000000
     5  H    3.996054   3.531704   1.526606   0.961381   0.000000
 Stoichiometry    H2O3
 Framework group  C1[X(H2O3)]
 Deg. of freedom     9
 Full point group                 C1      NOp   1
 Largest Abelian subgroup         C1      NOp   1
 Largest concise Abelian subgroup C1      NOp   1
                         Standard orientation:                         
 ---------------------------------------------------------------------
 Center     Atomic      Atomic             Coordinates (Angstroms)
 Number     Number       Type             X           Y           Z
 ---------------------------------------------------------------------
      1          8           0       -1.452984   -0.520689    0.029554
      2          8           0       -1.013579    0.590909   -0.018879
      3          1           0        1.124821    0.223465   -0.087156
      4          8           0        2.023984   -0.122703   -0.090679
      5          1           0        2.415807    0.196401    0.727185
 ---------------------------------------------------------------------
 Rotational constants (GHZ):     46.3504737      4.0980906      3.8024915
 Standard basis: 6-31+G(d,p) (6D, 7F)
 There are    67 symmetry adapted basis functions of A   symmetry.
 Integral buffers will be    262144 words long.
 Raffenetti 2 integral format.
 Two-electron integral symmetry is turned on.
    67 basis functions,   110 primitive gaussians,    67 cartesian basis functions
    13 alpha electrons       13 beta electrons
       nuclear repulsion energy        63.7618496670 Hartrees.
 NAtoms=    5 NActive=    5 NUniq=    5 SFac= 7.50D-01 NAtFMM=   80 NAOKFM=F Big=F
 One-electron integrals computed using PRISM.
 NBasis=    67 RedAO= T  NBF=    67
 NBsUse=    67 1.00D-06 NBFU=    67
 Initial guess read from the checkpoint file:  D:\Documents\rayGit\FQ\quimicaComp
 utacional\proyecto\decompositionHydrogenPeroxide\descompositionByRadicals\gasPha
 se\step4\ts\Q2ST\ts\martes\top\ts.chk
 B after Tr=     0.000000    0.000000    0.000000
         Rot=    1.000000    0.000000    0.000000    0.000000 Ang=   0.00 deg.
 Initial guess orbital symmetries:
       Occupied  (A) (A) (A) (A) (A) (A) (A) (A) (A) (A) (A) (A)
                 (A)
       Virtual   (A) (A) (A) (A) (A) (A) (A) (A) (A) (A) (A) (A)
                 (A) (A) (A) (A) (A) (A) (A) (A) (A) (A) (A) (A)
                 (A) (A) (A) (A) (A) (A) (A) (A) (A) (A) (A) (A)
                 (A) (A) (A) (A) (A) (A) (A) (A) (A) (A) (A) (A)
                 (A) (A) (A) (A) (A) (A)
 Requested convergence on RMS density matrix=1.00D-08 within 128 cycles.
 Requested convergence on MAX density matrix=1.00D-06.
 Requested convergence on             energy=1.00D-06.
 No special actions if energy rises.
 Keep R1 ints in memory in canonical form, NReq=3551380.
 SCF Done:  E(RM062X) =  -226.602045438     A.U. after    1 cycles
             Convg  =    0.2654D-09             -V/T =  2.0081

 **********************************************************************

            Population analysis using the SCF density.

 **********************************************************************

 Orbital symmetries:
       Occupied  (A) (A) (A) (A) (A) (A) (A) (A) (A) (A) (A) (A)
                 (A)
       Virtual   (A) (A) (A) (A) (A) (A) (A) (A) (A) (A) (A) (A)
                 (A) (A) (A) (A) (A) (A) (A) (A) (A) (A) (A) (A)
                 (A) (A) (A) (A) (A) (A) (A) (A) (A) (A) (A) (A)
                 (A) (A) (A) (A) (A) (A) (A) (A) (A) (A) (A) (A)
                 (A) (A) (A) (A) (A) (A)
 The electronic state is 1-A.
 Alpha  occ. eigenvalues --  -19.83587 -19.83422 -19.64269  -1.45713  -1.12848
 Alpha  occ. eigenvalues --   -0.93730  -0.65168  -0.64548  -0.62358  -0.59964
 Alpha  occ. eigenvalues --   -0.46378  -0.39029  -0.36245
 Alpha virt. eigenvalues --   -0.13863   0.06166   0.09533   0.11248   0.12484
 Alpha virt. eigenvalues --    0.16445   0.17932   0.19702   0.20132   0.21587
 Alpha virt. eigenvalues --    0.24422   0.26132   0.29352   0.31822   0.33882
 Alpha virt. eigenvalues --    0.36040   0.98479   1.03987   1.06664   1.10502
 Alpha virt. eigenvalues --    1.11359   1.14664   1.16662   1.17502   1.19646
 Alpha virt. eigenvalues --    1.21401   1.21693   1.31923   1.38035   1.53459
 Alpha virt. eigenvalues --    1.55446   1.56340   1.57390   1.59963   1.64141
 Alpha virt. eigenvalues --    1.68024   1.70974   1.96623   1.99163   2.29408
 Alpha virt. eigenvalues --    2.32898   2.54578   2.56054   2.60689   2.64808
 Alpha virt. eigenvalues --    2.68239   2.70393   2.95952   3.06595   3.43150
 Alpha virt. eigenvalues --    3.62048   3.71719   3.98912   4.10518
          Condensed to atoms (all electrons):
              1          2          3          4          5
     1  O    7.644607   0.332598  -0.006126   0.003243  -0.000772
     2  O    0.332598   7.673573   0.014142  -0.000148   0.000720
     3  H   -0.006126   0.014142   0.358819   0.274364  -0.023846
     4  O    0.003243  -0.000148   0.274364   8.186552   0.288727
     5  H   -0.000772   0.000720  -0.023846   0.288727   0.370645
 Mulliken atomic charges:
              1
     1  O    0.026450
     2  O   -0.020885
     3  H    0.382648
     4  O   -0.752738
     5  H    0.364525
 Sum of Mulliken atomic charges =   0.00000
 Mulliken charges with hydrogens summed into heavy atoms:
              1
     1  O    0.026450
     2  O   -0.020885
     4  O   -0.005565
 Sum of Mulliken charges with hydrogens summed into heavy atoms =   0.00000
 Electronic spatial extent (au):  <R**2>=            292.3788
 Charge=              0.0000 electrons
 Dipole moment (field-independent basis, Debye):
    X=             -1.2238    Y=              1.1745    Z=              1.5546  Tot=              2.3008
 Quadrupole moment (field-independent basis, Debye-Ang):
   XX=            -19.8231   YY=            -18.1487   ZZ=            -15.3900
   XY=              2.4308   XZ=              4.2036   YZ=              0.4833
 Traceless Quadrupole moment (field-independent basis, Debye-Ang):
   XX=             -2.0358   YY=             -0.3615   ZZ=              2.3973
   XY=              2.4308   XZ=              4.2036   YZ=              0.4833
 Octapole moment (field-independent basis, Debye-Ang**2):
  XXX=             -3.4413  YYY=              0.8211  ZZZ=              1.6407  XYY=             -1.9231
  XXY=              3.8008  XXZ=             11.1745  XZZ=             -0.6533  YZZ=              0.4383
  YYZ=              0.3240  XYZ=              0.8567
 Hexadecapole moment (field-independent basis, Debye-Ang**3):
 XXXX=           -279.2327 YYYY=            -34.7088 ZZZZ=            -13.5151 XXXY=              9.7390
 XXXZ=             28.9434 YYYX=              2.9641 YYYZ=              0.3562 ZZZX=              4.2841
 ZZZY=              0.4457 XXYY=            -55.0883 XXZZ=            -42.3319 YYZZ=             -7.7474
 XXYZ=              2.3949 YYXZ=              0.8668 ZZXY=              1.1297
 N-N= 6.376184966695D+01 E-N=-6.619121101709D+02  KE= 2.247841320372D+02
 Calling FoFJK, ICntrl=      2127 FMM=F ISym2X=0 I1Cent= 0 IOpClX= 0 NMat=1 NMatS=1 NMatT=0.
 ***** Axes restored to original set *****
 -------------------------------------------------------------------
 Center     Atomic                   Forces (Hartrees/Bohr)
 Number     Number              X              Y              Z
 -------------------------------------------------------------------
      1        8           0.000118253   -0.000078311   -0.000057302
      2        8          -0.000454898    0.000227268   -0.000070124
      3        1          -0.000361029    0.000405665   -0.001116603
      4        8          -0.000760439    0.000851775    0.001654526
      5        1           0.001458114   -0.001406397   -0.000410496
 -------------------------------------------------------------------
 Cartesian Forces:  Max     0.001654526 RMS     0.000822290

 GradGradGradGradGradGradGradGradGradGradGradGradGradGradGradGradGradGrad
 Berny optimization.
 Internal  Forces:  Max     0.003483972 RMS     0.001520981
 Search for a saddle point.
 Step number   1 out of a maximum of  100
 All quantities printed in internal units (Hartrees-Bohrs-Radians)
 Swaping is turned off.
 Second derivative matrix not updated -- first step.
 The second derivative matrix:
                          R1        R2        R3        R4        A1
           R1           0.76912
           R2          -0.01220   0.03561
           R3           0.02889  -0.00874   0.53632
           R4          -0.00478   0.01136  -0.01237   0.69715
           A1           0.00761   0.00747  -0.00266   0.00226   0.02342
           A2           0.00018   0.01381   0.06952   0.03692   0.00269
           A3           0.01572  -0.02840   0.06059   0.00935  -0.00977
           A4          -0.00597   0.01492  -0.00785   0.00569   0.00369
           D1           0.00579  -0.01578   0.00198  -0.00913  -0.00493
                          A2        A3        A4        D1
           A2           0.28295
           A3           0.16818   0.15258
           A4          -0.00039  -0.01669   0.00558
           D1          -0.02384   0.00169  -0.00459   0.00795
     Eigenvalues ---   -0.00185   0.00111   0.00544   0.02036   0.08191
     Eigenvalues ---    0.34936   0.57765   0.70179   0.77490
 Eigenvectors required to have negative eigenvalues:
                          A4        D1        R2        A3        A2
   1                    0.69633  -0.57269  -0.41442   0.08341  -0.07663
                          A1        R3        R4        R1
   1                   -0.05022   0.00564  -0.00321   0.00171
 RFO step:  Lambda0=3.815923637D-05 Lambda=-2.77221990D-04.
 Linear search not attempted -- option 19 set.
 Iteration  1 RMS(Cart)=  0.09045348 RMS(Int)=  0.01097415
 Iteration  2 RMS(Cart)=  0.00744383 RMS(Int)=  0.00003650
 Iteration  3 RMS(Cart)=  0.00004790 RMS(Int)=  0.00000000
 Iteration  4 RMS(Cart)=  0.00000000 RMS(Int)=  0.00000000
 Variable       Old X    -DE/DX   Delta X   Delta X   Delta X     New X
                                 (Linear)    (Quad)   (Total)
    R1        2.26063  -0.00006   0.00000  -0.00032  -0.00032   2.26031
    R2        4.10224   0.00028   0.00000   0.05891   0.05891   4.16116
    R3        1.82076   0.00058   0.00000  -0.00076  -0.00076   1.82000
    R4        1.81675   0.00076   0.00000   0.00046   0.00046   1.81721
    A1        1.77809  -0.00027   0.00000  -0.00059  -0.00059   1.77750
    A2        2.94235   0.00274   0.00000  -0.08810  -0.08810   2.85425
    A3        2.01484   0.00348   0.00000   0.14640   0.14640   2.16125
    A4        5.02477  -0.00033   0.00000   0.13143   0.13143   5.15621
    D1       -0.10301   0.00003   0.00000  -0.09818  -0.09818  -0.20119
         Item               Value     Threshold  Converged?
 Maximum Force            0.003484     0.000450     NO 
 RMS     Force            0.001521     0.000300     NO 
 Maximum Displacement     0.160865     0.001800     NO 
 RMS     Displacement     0.090118     0.001200     NO 
 Predicted change in Energy=-1.245965D-04
 GradGradGradGradGradGradGradGradGradGradGradGradGradGradGradGradGradGrad

                          Input orientation:                          
 ---------------------------------------------------------------------
 Center     Atomic      Atomic             Coordinates (Angstroms)
 Number     Number       Type             X           Y           Z
 ---------------------------------------------------------------------
      1          8           0       -2.495437    0.884912   -0.010530
      2          8           0       -1.587752    1.548725    0.397055
      3          1           0        0.155193    0.329602   -0.172714
      4          8           0        0.720775   -0.390431   -0.471432
      5          1           0        1.308440   -0.609180    0.257621
 ---------------------------------------------------------------------
                    Distance matrix (angstroms):
                    1          2          3          4          5
     1  O    0.000000
     2  O    1.196104   0.000000
     3  H    2.713027   2.201989   0.000000
     4  O    3.490409   3.137498   0.963100   0.000000
     5  H    4.095571   3.614406   1.548056   0.961624   0.000000
 Stoichiometry    H2O3
 Framework group  C1[X(H2O3)]
 Deg. of freedom     9
 Full point group                 C1      NOp   1
 Largest Abelian subgroup         C1      NOp   1
 Largest concise Abelian subgroup C1      NOp   1
                         Standard orientation:                         
 ---------------------------------------------------------------------
 Center     Atomic      Atomic             Coordinates (Angstroms)
 Number     Number       Type             X           Y           Z
 ---------------------------------------------------------------------
      1          8           0       -1.447866   -0.525049    0.034049
      2          8           0       -1.029841    0.594199   -0.022544
      3          1           0        1.145178    0.260644   -0.104956
      4          8           0        2.019724   -0.141584   -0.074233
      5          1           0        2.518688    0.318830    0.606777
 ---------------------------------------------------------------------
 Rotational constants (GHZ):     45.9198845      4.0857461      3.7783944
 Standard basis: 6-31+G(d,p) (6D, 7F)
 There are    67 symmetry adapted basis functions of A   symmetry.
 Integral buffers will be    262144 words long.
 Raffenetti 2 integral format.
 Two-electron integral symmetry is turned on.
    67 basis functions,   110 primitive gaussians,    67 cartesian basis functions
    13 alpha electrons       13 beta electrons
       nuclear repulsion energy        63.6397462394 Hartrees.
 NAtoms=    5 NActive=    5 NUniq=    5 SFac= 7.50D-01 NAtFMM=   80 NAOKFM=F Big=F
 One-electron integrals computed using PRISM.
 NBasis=    67 RedAO= T  NBF=    67
 NBsUse=    67 1.00D-06 NBFU=    67
 Initial guess read from the read-write file.
 B after Tr=     0.000000    0.000000    0.000000
         Rot=    1.000000    0.000000    0.000000    0.000000 Ang=   0.00 deg.
 Initial guess orbital symmetries:
       Occupied  (A) (A) (A) (A) (A) (A) (A) (A) (A) (A) (A) (A)
                 (A)
       Virtual   (A) (A) (A) (A) (A) (A) (A) (A) (A) (A) (A) (A)
                 (A) (A) (A) (A) (A) (A) (A) (A) (A) (A) (A) (A)
                 (A) (A) (A) (A) (A) (A) (A) (A) (A) (A) (A) (A)
                 (A) (A) (A) (A) (A) (A) (A) (A) (A) (A) (A) (A)
                 (A) (A) (A) (A) (A) (A)
 Harris functional with IExCor= 1009 diagonalized for initial guess.
 ExpMin= 8.45D-02 ExpMax= 5.48D+03 ExpMxC= 8.25D+02 IAcc=2 IRadAn=         0 AccDes= 0.00D+00
 HarFok:  IExCor= 1009 AccDes= 0.00D+00 IRadAn=         0 IDoV= 1
 ScaDFX=  1.000000  1.000000  1.000000  1.000000
 FoFCou: FMM=F IPFlag=           0 FMFlag=      100000 FMFlg1=           0
         NFxFlg=           0 DoJE=T BraDBF=F KetDBF=T FulRan=T
         Omega=  0.000000  0.000000  1.000000  0.000000  0.000000 ICntrl=     500 IOpCl=  0
         NMat0=    1 NMatS0=    1 NMatT0=    0 NMatD0=    1 NMtDS0=    0 NMtDT0=    0
         I1Cent=           4 NGrid=           0.
 Petite list used in FoFCou.
 Requested convergence on RMS density matrix=1.00D-08 within 128 cycles.
 Requested convergence on MAX density matrix=1.00D-06.
 Requested convergence on             energy=1.00D-06.
 No special actions if energy rises.
 Keep R1 ints in memory in canonical form, NReq=3551380.
 Integral accuracy reduced to 1.0D-05 until final iterations.
 Initial convergence to 1.0D-05 achieved.  Increase integral accuracy.
 SCF Done:  E(RM062X) =  -226.602122995     A.U. after   21 cycles
             Convg  =    0.9153D-08             -V/T =  2.0081
 Calling FoFJK, ICntrl=      2127 FMM=F ISym2X=0 I1Cent= 0 IOpClX= 0 NMat=1 NMatS=1 NMatT=0.
 ***** Axes restored to original set *****
 -------------------------------------------------------------------
 Center     Atomic                   Forces (Hartrees/Bohr)
 Number     Number              X              Y              Z
 -------------------------------------------------------------------
      1        8          -0.000069608   -0.000066081   -0.000161760
      2        8           0.000132850    0.000032905   -0.000036089
      3        1           0.000744206   -0.000205871    0.001480224
      4        8          -0.000126030   -0.000789059   -0.001454353
      5        1          -0.000681419    0.001028106    0.000171978
 -------------------------------------------------------------------
 Cartesian Forces:  Max     0.001480224 RMS     0.000690278

 GradGradGradGradGradGradGradGradGradGradGradGradGradGradGradGradGradGrad
 Berny optimization.
 Internal  Forces:  Max     0.002289400 RMS     0.001053124
 Search for a saddle point.
 Step number   2 out of a maximum of  100
 All quantities printed in internal units (Hartrees-Bohrs-Radians)
 Swaping is turned off.
 Update second derivatives using D2CorX and points    1    2
 The second derivative matrix:
                          R1        R2        R3        R4        A1
           R1           0.76912
           R2          -0.01234   0.03582
           R3           0.02889  -0.00838   0.53631
           R4          -0.00478   0.01187  -0.01238   0.69715
           A1           0.00761   0.00757  -0.00266   0.00226   0.02342
           A2           0.00038   0.01589   0.06895   0.03617   0.00252
           A3           0.01537  -0.02616   0.06145   0.01062  -0.00954
           A4          -0.00627   0.01450  -0.00705   0.00682   0.00392
           D1           0.00601  -0.01583   0.00139  -0.00997  -0.00510
                          A2        A3        A4        D1
           A2           0.27621
           A3           0.17076   0.16237
           A4           0.00562  -0.01393   0.00261
           D1          -0.02777  -0.00128  -0.00319   0.00752
     Eigenvalues ---   -0.00514   0.00106   0.00711   0.02034   0.08207
     Eigenvalues ---    0.35040   0.57794   0.70185   0.77490
 Eigenvectors required to have negative eigenvalues:
                          A4        D1        R2        A3        A2
   1                    0.77618  -0.50776  -0.30880   0.14865  -0.13907
                          A1        R3        R4        R1
   1                   -0.05336   0.00696  -0.00431   0.00266
 RFO step:  Lambda0=8.230924351D-05 Lambda=-4.11800748D-05.
 Linear search not attempted -- option 19 set.
 Iteration  1 RMS(Cart)=  0.05683859 RMS(Int)=  0.00534092
 Iteration  2 RMS(Cart)=  0.00397199 RMS(Int)=  0.00002985
 Iteration  3 RMS(Cart)=  0.00002062 RMS(Int)=  0.00000000
 Iteration  4 RMS(Cart)=  0.00000000 RMS(Int)=  0.00000000
 Variable       Old X    -DE/DX   Delta X   Delta X   Delta X     New X
                                 (Linear)    (Quad)   (Total)
    R1        2.26031   0.00014   0.00000   0.00004   0.00004   2.26035
    R2        4.16116  -0.00007   0.00000   0.03648   0.03648   4.19763
    R3        1.82000  -0.00036   0.00000  -0.00027  -0.00027   1.81972
    R4        1.81721  -0.00051   0.00000   0.00018   0.00018   1.81738
    A1        1.77750  -0.00010   0.00000   0.00321   0.00321   1.78071
    A2        2.85425  -0.00229   0.00000   0.02837   0.02837   2.88262
    A3        2.16125  -0.00196   0.00000  -0.03820  -0.03820   2.12305
    A4        5.15621   0.00068   0.00000  -0.04178  -0.04178   5.11443
    D1       -0.20119  -0.00014   0.00000   0.14196   0.14196  -0.05922
         Item               Value     Threshold  Converged?
 Maximum Force            0.002289     0.000450     NO 
 RMS     Force            0.001053     0.000300     NO 
 Maximum Displacement     0.074772     0.001800     NO 
 RMS     Displacement     0.059402     0.001200     NO 
 Predicted change in Energy= 2.101105D-05
 GradGradGradGradGradGradGradGradGradGradGradGradGradGradGradGradGradGrad

                          Input orientation:                          
 ---------------------------------------------------------------------
 Center     Atomic      Atomic             Coordinates (Angstroms)
 Number     Number       Type             X           Y           Z
 ---------------------------------------------------------------------
      1          8           0       -2.503891    0.867352    0.024408
      2          8           0       -1.596412    1.565660    0.370192
      3          1           0        0.169710    0.337178   -0.182779
      4          8           0        0.760343   -0.359821   -0.487134
      5          1           0        1.271470   -0.646743    0.275313
 ---------------------------------------------------------------------
                    Distance matrix (angstroms):
                    1          2          3          4          5
     1  O    0.000000
     2  O    1.196126   0.000000
     3  H    2.733524   2.221291   0.000000
     4  O    3.524607   3.161769   0.962957   0.000000
     5  H    4.075388   3.623324   1.546552   0.961717   0.000000
 Stoichiometry    H2O3
 Framework group  C1[X(H2O3)]
 Deg. of freedom     9
 Full point group                 C1      NOp   1
 Largest Abelian subgroup         C1      NOp   1
 Largest concise Abelian subgroup C1      NOp   1
                         Standard orientation:                         
 ---------------------------------------------------------------------
 Center     Atomic      Atomic             Coordinates (Angstroms)
 Number     Number       Type             X           Y           Z
 ---------------------------------------------------------------------
      1          8           0       -1.459140   -0.525962    0.029713
      2          8           0       -1.037905    0.592519   -0.018039
      3          1           0        1.157090    0.258066   -0.083412
      4          8           0        2.040605   -0.124907   -0.087721
      5          1           0        2.494424    0.208740    0.691784
 ---------------------------------------------------------------------
 Rotational constants (GHZ):     45.9740330      4.0149055      3.7251271
 Standard basis: 6-31+G(d,p) (6D, 7F)
 There are    67 symmetry adapted basis functions of A   symmetry.
 Integral buffers will be    262144 words long.
 Raffenetti 2 integral format.
 Two-electron integral symmetry is turned on.
    67 basis functions,   110 primitive gaussians,    67 cartesian basis functions
    13 alpha electrons       13 beta electrons
       nuclear repulsion energy        63.4365953928 Hartrees.
 NAtoms=    5 NActive=    5 NUniq=    5 SFac= 7.50D-01 NAtFMM=   80 NAOKFM=F Big=F
 One-electron integrals computed using PRISM.
 NBasis=    67 RedAO= T  NBF=    67
 NBsUse=    67 1.00D-06 NBFU=    67
 Initial guess read from the read-write file.
 B after Tr=     0.000000    0.000000    0.000000
         Rot=    1.000000    0.000000    0.000000    0.000000 Ang=   0.00 deg.
 Initial guess orbital symmetries:
       Occupied  (A) (A) (A) (A) (A) (A) (A) (A) (A) (A) (A) (A)
                 (A)
       Virtual   (A) (A) (A) (A) (A) (A) (A) (A) (A) (A) (A) (A)
                 (A) (A) (A) (A) (A) (A) (A) (A) (A) (A) (A) (A)
                 (A) (A) (A) (A) (A) (A) (A) (A) (A) (A) (A) (A)
                 (A) (A) (A) (A) (A) (A) (A) (A) (A) (A) (A) (A)
                 (A) (A) (A) (A) (A) (A)
 Harris functional with IExCor= 1009 diagonalized for initial guess.
 ExpMin= 8.45D-02 ExpMax= 5.48D+03 ExpMxC= 8.25D+02 IAcc=2 IRadAn=         0 AccDes= 0.00D+00
 HarFok:  IExCor= 1009 AccDes= 0.00D+00 IRadAn=         0 IDoV= 1
 ScaDFX=  1.000000  1.000000  1.000000  1.000000
 FoFCou: FMM=F IPFlag=           0 FMFlag=      100000 FMFlg1=           0
         NFxFlg=           0 DoJE=T BraDBF=F KetDBF=T FulRan=T
         Omega=  0.000000  0.000000  1.000000  0.000000  0.000000 ICntrl=     500 IOpCl=  0
         NMat0=    1 NMatS0=    1 NMatT0=    0 NMatD0=    1 NMtDS0=    0 NMtDT0=    0
         I1Cent=           4 NGrid=           0.
 Petite list used in FoFCou.
 Requested convergence on RMS density matrix=1.00D-08 within 128 cycles.
 Requested convergence on MAX density matrix=1.00D-06.
 Requested convergence on             energy=1.00D-06.
 No special actions if energy rises.
 Keep R1 ints in memory in canonical form, NReq=3551380.
 Integral accuracy reduced to 1.0D-05 until final iterations.
 Initial convergence to 1.0D-05 achieved.  Increase integral accuracy.
 SCF Done:  E(RM062X) =  -226.602113801     A.U. after   23 cycles
             Convg  =    0.2616D-08             -V/T =  2.0081
 Calling FoFJK, ICntrl=      2127 FMM=F ISym2X=0 I1Cent= 0 IOpClX= 0 NMat=1 NMatS=1 NMatT=0.
 ***** Axes restored to original set *****
 -------------------------------------------------------------------
 Center     Atomic                   Forces (Hartrees/Bohr)
 Number     Number              X              Y              Z
 -------------------------------------------------------------------
      1        8          -0.000085521   -0.000106822   -0.000111923
      2        8           0.000236217   -0.000010046   -0.000121606
      3        1           0.000405344   -0.000102635    0.001401876
      4        8           0.000256246   -0.000751851   -0.001189211
      5        1          -0.000812287    0.000971354    0.000020864
 -------------------------------------------------------------------
 Cartesian Forces:  Max     0.001401876 RMS     0.000626683

 GradGradGradGradGradGradGradGradGradGradGradGradGradGradGradGradGradGrad
 Berny optimization.
 Internal  Forces:  Max     0.002091445 RMS     0.000974009
 Search for a saddle point.
 Step number   3 out of a maximum of  100
 All quantities printed in internal units (Hartrees-Bohrs-Radians)
 Swaping is turned off.
 Update second derivatives using D2CorX and points    1    2    3
 The second derivative matrix:
                          R1        R2        R3        R4        A1
           R1           0.76913
           R2          -0.01294   0.03685
           R3           0.02888  -0.00755   0.53631
           R4          -0.00482   0.01490  -0.01236   0.69733
           A1           0.00758   0.00793  -0.00262   0.00242   0.02345
           A2           0.00037   0.02478   0.06886   0.03619   0.00294
           A3           0.01506  -0.01856   0.06180   0.01220  -0.00901
           A4          -0.00638   0.01243  -0.00686   0.00741   0.00389
           D1           0.00505  -0.01508   0.00274  -0.00510  -0.00457
                          A2        A3        A4        D1
           A2           0.27472
           A3           0.17427   0.16887
           A4           0.00779  -0.01344   0.00155
           D1          -0.01345   0.01078  -0.00654   0.00695
     Eigenvalues ---   -0.00416  -0.00050   0.00864   0.02028   0.08217
     Eigenvalues ---    0.35286   0.57872   0.70226   0.77490
 Eigenvectors required to have negative eigenvalues:
                          A4        A3        A2        R2        D1
   1                    0.96146   0.20652  -0.14631  -0.07586   0.07342
                          A1        R3        R4        R1
   1                   -0.01825   0.00551  -0.00388   0.00218
 RFO step:  Lambda0=3.827155666D-05 Lambda=-5.05582471D-04.
 Linear search not attempted -- option 19 set.
 Maximum step size (   0.300) exceeded in Quadratic search.
    -- Step size scaled by   0.396
 Iteration  1 RMS(Cart)=  0.05486376 RMS(Int)=  0.03601577
 Iteration  2 RMS(Cart)=  0.02896652 RMS(Int)=  0.00086787
 Iteration  3 RMS(Cart)=  0.00070083 RMS(Int)=  0.00000031
 Iteration  4 RMS(Cart)=  0.00000040 RMS(Int)=  0.00000000
 Variable       Old X    -DE/DX   Delta X   Delta X   Delta X     New X
                                 (Linear)    (Quad)   (Total)
    R1        2.26035   0.00014   0.00000  -0.00003  -0.00003   2.26032
    R2        4.19763  -0.00020   0.00000  -0.05474  -0.05474   4.14289
    R3        1.81972  -0.00020   0.00000  -0.00010  -0.00010   1.81963
    R4        1.81738  -0.00072   0.00000   0.00036   0.00036   1.81774
    A1        1.78071  -0.00008   0.00000  -0.01008  -0.01008   1.77063
    A2        2.88262  -0.00209   0.00000  -0.03930  -0.03930   2.84332
    A3        2.12305  -0.00182   0.00000   0.04485   0.04485   2.16789
    A4        5.11443   0.00047   0.00000  -0.03765  -0.03765   5.07678
    D1       -0.05922  -0.00004   0.00000  -0.28623  -0.28623  -0.34545
         Item               Value     Threshold  Converged?
 Maximum Force            0.002091     0.000450     NO 
 RMS     Force            0.000974     0.000300     NO 
 Maximum Displacement     0.101348     0.001800     NO 
 RMS     Displacement     0.079619     0.001200     NO 
 Predicted change in Energy=-2.751575D-05
 GradGradGradGradGradGradGradGradGradGradGradGradGradGradGradGradGradGrad

                          Input orientation:                          
 ---------------------------------------------------------------------
 Center     Atomic      Atomic             Coordinates (Angstroms)
 Number     Number       Type             X           Y           Z
 ---------------------------------------------------------------------
      1          8           0       -2.486606    0.888453   -0.022580
      2          8           0       -1.582057    1.540065    0.410858
      3          1           0        0.148263    0.331858   -0.182867
      4          8           0        0.706712   -0.401074   -0.462390
      5          1           0        1.314907   -0.595675    0.256979
 ---------------------------------------------------------------------
                    Distance matrix (angstroms):
                    1          2          3          4          5
     1  O    0.000000
     2  O    1.196108   0.000000
     3  H    2.697782   2.192323   0.000000
     4  O    3.471828   3.125546   0.962905   0.000000
     5  H    4.090513   3.602425   1.553976   0.961906   0.000000
 Stoichiometry    H2O3
 Framework group  C1[X(H2O3)]
 Deg. of freedom     9
 Full point group                 C1      NOp   1
 Largest Abelian subgroup         C1      NOp   1
 Largest concise Abelian subgroup C1      NOp   1
                         Standard orientation:                         
 ---------------------------------------------------------------------
 Center     Atomic      Atomic             Coordinates (Angstroms)
 Number     Number       Type             X           Y           Z
 ---------------------------------------------------------------------
      1          8           0       -1.439965   -0.525547    0.034402
      2          8           0       -1.026408    0.595355   -0.022378
      3          1           0        1.136890    0.256188   -0.129109
      4          8           0        2.009555   -0.146190   -0.068010
      5          1           0        2.517654    0.354866    0.577001
 ---------------------------------------------------------------------
 Rotational constants (GHZ):     45.7926133      4.1256763      3.8093038
 Standard basis: 6-31+G(d,p) (6D, 7F)
 There are    67 symmetry adapted basis functions of A   symmetry.
 Integral buffers will be    262144 words long.
 Raffenetti 2 integral format.
 Two-electron integral symmetry is turned on.
    67 basis functions,   110 primitive gaussians,    67 cartesian basis functions
    13 alpha electrons       13 beta electrons
       nuclear repulsion energy        63.7536085167 Hartrees.
 NAtoms=    5 NActive=    5 NUniq=    5 SFac= 7.50D-01 NAtFMM=   80 NAOKFM=F Big=F
 One-electron integrals computed using PRISM.
 NBasis=    67 RedAO= T  NBF=    67
 NBsUse=    67 1.00D-06 NBFU=    67
 Initial guess read from the read-write file.
 B after Tr=     0.000000    0.000000    0.000000
         Rot=    1.000000    0.000000    0.000000    0.000000 Ang=   0.00 deg.
 Initial guess orbital symmetries:
       Occupied  (A) (A) (A) (A) (A) (A) (A) (A) (A) (A) (A) (A)
                 (A)
       Virtual   (A) (A) (A) (A) (A) (A) (A) (A) (A) (A) (A) (A)
                 (A) (A) (A) (A) (A) (A) (A) (A) (A) (A) (A) (A)
                 (A) (A) (A) (A) (A) (A) (A) (A) (A) (A) (A) (A)
                 (A) (A) (A) (A) (A) (A) (A) (A) (A) (A) (A) (A)
                 (A) (A) (A) (A) (A) (A)
 Harris functional with IExCor= 1009 diagonalized for initial guess.
 ExpMin= 8.45D-02 ExpMax= 5.48D+03 ExpMxC= 8.25D+02 IAcc=2 IRadAn=         0 AccDes= 0.00D+00
 HarFok:  IExCor= 1009 AccDes= 0.00D+00 IRadAn=         0 IDoV= 1
 ScaDFX=  1.000000  1.000000  1.000000  1.000000
 FoFCou: FMM=F IPFlag=           0 FMFlag=      100000 FMFlg1=           0
         NFxFlg=           0 DoJE=T BraDBF=F KetDBF=T FulRan=T
         Omega=  0.000000  0.000000  1.000000  0.000000  0.000000 ICntrl=     500 IOpCl=  0
         NMat0=    1 NMatS0=    1 NMatT0=    0 NMatD0=    1 NMtDS0=    0 NMtDT0=    0
         I1Cent=           4 NGrid=           0.
 Petite list used in FoFCou.
 Requested convergence on RMS density matrix=1.00D-08 within 128 cycles.
 Requested convergence on MAX density matrix=1.00D-06.
 Requested convergence on             energy=1.00D-06.
 No special actions if energy rises.
 Keep R1 ints in memory in canonical form, NReq=3551380.
 Integral accuracy reduced to 1.0D-05 until final iterations.
 Initial convergence to 1.0D-05 achieved.  Increase integral accuracy.
 SCF Done:  E(RM062X) =  -226.602087603     A.U. after   25 cycles
             Convg  =    0.1566D-08             -V/T =  2.0081
 Calling FoFJK, ICntrl=      2127 FMM=F ISym2X=0 I1Cent= 0 IOpClX= 0 NMat=1 NMatS=1 NMatT=0.
 ***** Axes restored to original set *****
 -------------------------------------------------------------------
 Center     Atomic                   Forces (Hartrees/Bohr)
 Number     Number              X              Y              Z
 -------------------------------------------------------------------
      1        8          -0.000104120   -0.000026711   -0.000179820
      2        8           0.000084833    0.000035334   -0.000005115
      3        1           0.001247646   -0.000131925    0.002207267
      4        8           0.000222008   -0.001676063   -0.002154218
      5        1          -0.001450367    0.001799365    0.000131887
 -------------------------------------------------------------------
 Cartesian Forces:  Max     0.002207267 RMS     0.001135964

 GradGradGradGradGradGradGradGradGradGradGradGradGradGradGradGradGradGrad
 Berny optimization.
 Internal  Forces:  Max     0.003660673 RMS     0.001771617
 Search for a saddle point.
 Step number   4 out of a maximum of  100
 All quantities printed in internal units (Hartrees-Bohrs-Radians)
 Swaping is turned off.
 Update second derivatives using D2CorX and points    1    2    3    4
 The second derivative matrix:
                          R1        R2        R3        R4        A1
           R1           0.76913
           R2          -0.01297   0.03655
           R3           0.02888  -0.00741   0.53631
           R4          -0.00483   0.01524  -0.01233   0.69747
           A1           0.00759   0.00794  -0.00266   0.00231   0.02347
           A2           0.00039   0.02615   0.06870   0.03594   0.00262
           A3           0.01493  -0.01783   0.06226   0.01354  -0.00943
           A4          -0.00630   0.01226  -0.00718   0.00654   0.00404
           D1           0.00526  -0.01437   0.00185  -0.00739  -0.00444
                          A2        A3        A4        D1
           A2           0.27163
           A3           0.17643   0.17601
           A4           0.00565  -0.01706   0.00321
           D1          -0.02095   0.00348  -0.00444   0.00651
     Eigenvalues ---   -0.00392   0.00033   0.00896   0.02027   0.08247
     Eigenvalues ---    0.35516   0.57952   0.70260   0.77490
 Eigenvectors required to have negative eigenvalues:
                          A4        D1        A3        A2        R2
   1                    0.86725  -0.32253   0.29131  -0.22015  -0.09772
                          A1        R3        R4        R1
   1                   -0.03050   0.00536  -0.00350   0.00219
 RFO step:  Lambda0=1.270145472D-04 Lambda=-1.22123249D-04.
 Linear search not attempted -- option 19 set.
 Maximum step size (   0.300) exceeded in Quadratic search.
    -- Step size scaled by   0.931
 Iteration  1 RMS(Cart)=  0.06882440 RMS(Int)=  0.02803426
 Iteration  2 RMS(Cart)=  0.03481053 RMS(Int)=  0.00143465
 Iteration  3 RMS(Cart)=  0.00101397 RMS(Int)=  0.00000066
 Iteration  4 RMS(Cart)=  0.00000086 RMS(Int)=  0.00000000
 Variable       Old X    -DE/DX   Delta X   Delta X   Delta X     New X
                                 (Linear)    (Quad)   (Total)
    R1        2.26032   0.00015   0.00000   0.00015   0.00015   2.26047
    R2        4.14289   0.00005   0.00000   0.03618   0.03618   4.17907
    R3        1.81963  -0.00041   0.00000   0.00038   0.00038   1.82000
    R4        1.81774  -0.00118   0.00000  -0.00060  -0.00060   1.81714
    A1        1.77063  -0.00001   0.00000   0.00522   0.00522   1.77585
    A2        2.84332  -0.00366   0.00000   0.06163   0.06163   2.90495
    A3        2.16789  -0.00349   0.00000  -0.08569  -0.08569   2.08221
    A4        5.07678   0.00102   0.00000  -0.03908  -0.03908   5.03771
    D1       -0.34545  -0.00015   0.00000   0.27567   0.27567  -0.06978
         Item               Value     Threshold  Converged?
 Maximum Force            0.003661     0.000450     NO 
 RMS     Force            0.001772     0.000300     NO 
 Maximum Displacement     0.134294     0.001800     NO 
 RMS     Displacement     0.101045     0.001200     NO 
 Predicted change in Energy= 3.285127D-07
 GradGradGradGradGradGradGradGradGradGradGradGradGradGradGradGradGradGrad

                          Input orientation:                          
 ---------------------------------------------------------------------
 Center     Atomic      Atomic             Coordinates (Angstroms)
 Number     Number       Type             X           Y           Z
 ---------------------------------------------------------------------
      1          8           0       -2.493974    0.855805    0.037311
      2          8           0       -1.587898    1.565688    0.362829
      3          1           0        0.166748    0.341023   -0.195750
      4          8           0        0.772500   -0.346480   -0.492355
      5          1           0        1.243842   -0.652409    0.287965
 ---------------------------------------------------------------------
                    Distance matrix (angstroms):
                    1          2          3          4          5
     1  O    0.000000
     2  O    1.196189   0.000000
     3  H    2.720066   2.211469   0.000000
     4  O    3.520779   3.155820   0.963104   0.000000
     5  H    4.038416   3.597820   1.543055   0.961591   0.000000
 Stoichiometry    H2O3
 Framework group  C1[X(H2O3)]
 Deg. of freedom     9
 Full point group                 C1      NOp   1
 Largest Abelian subgroup         C1      NOp   1
 Largest concise Abelian subgroup C1      NOp   1
                         Standard orientation:                         
 ---------------------------------------------------------------------
 Center     Atomic      Atomic             Coordinates (Angstroms)
 Number     Number       Type             X           Y           Z
 ---------------------------------------------------------------------
      1          8           0       -1.455816   -0.526384    0.027184
      2          8           0       -1.034622    0.592386   -0.015433
      3          1           0        1.148948    0.249139   -0.084725
      4          8           0        2.039206   -0.118234   -0.091605
      5          1           0        2.460905    0.168714    0.723557
 ---------------------------------------------------------------------
 Rotational constants (GHZ):     45.9240610      4.0304102      3.7409747
 Standard basis: 6-31+G(d,p) (6D, 7F)
 There are    67 symmetry adapted basis functions of A   symmetry.
 Integral buffers will be    262144 words long.
 Raffenetti 2 integral format.
 Two-electron integral symmetry is turned on.
    67 basis functions,   110 primitive gaussians,    67 cartesian basis functions
    13 alpha electrons       13 beta electrons
       nuclear repulsion energy        63.5003407244 Hartrees.
 NAtoms=    5 NActive=    5 NUniq=    5 SFac= 7.50D-01 NAtFMM=   80 NAOKFM=F Big=F
 One-electron integrals computed using PRISM.
 NBasis=    67 RedAO= T  NBF=    67
 NBsUse=    67 1.00D-06 NBFU=    67
 Initial guess read from the read-write file.
 B after Tr=     0.000000    0.000000    0.000000
         Rot=    1.000000    0.000000    0.000000    0.000000 Ang=   0.00 deg.
 Initial guess orbital symmetries:
       Occupied  (A) (A) (A) (A) (A) (A) (A) (A) (A) (A) (A) (A)
                 (A)
       Virtual   (A) (A) (A) (A) (A) (A) (A) (A) (A) (A) (A) (A)
                 (A) (A) (A) (A) (A) (A) (A) (A) (A) (A) (A) (A)
                 (A) (A) (A) (A) (A) (A) (A) (A) (A) (A) (A) (A)
                 (A) (A) (A) (A) (A) (A) (A) (A) (A) (A) (A) (A)
                 (A) (A) (A) (A) (A) (A)
 Harris functional with IExCor= 1009 diagonalized for initial guess.
 ExpMin= 8.45D-02 ExpMax= 5.48D+03 ExpMxC= 8.25D+02 IAcc=2 IRadAn=         0 AccDes= 0.00D+00
 HarFok:  IExCor= 1009 AccDes= 0.00D+00 IRadAn=         0 IDoV= 1
 ScaDFX=  1.000000  1.000000  1.000000  1.000000
 FoFCou: FMM=F IPFlag=           0 FMFlag=      100000 FMFlg1=           0
         NFxFlg=           0 DoJE=T BraDBF=F KetDBF=T FulRan=T
         Omega=  0.000000  0.000000  1.000000  0.000000  0.000000 ICntrl=     500 IOpCl=  0
         NMat0=    1 NMatS0=    1 NMatT0=    0 NMatD0=    1 NMtDS0=    0 NMtDT0=    0
         I1Cent=           4 NGrid=           0.
 Petite list used in FoFCou.
 Requested convergence on RMS density matrix=1.00D-08 within 128 cycles.
 Requested convergence on MAX density matrix=1.00D-06.
 Requested convergence on             energy=1.00D-06.
 No special actions if energy rises.
 Keep R1 ints in memory in canonical form, NReq=3551380.
 Integral accuracy reduced to 1.0D-05 until final iterations.
 Initial convergence to 1.0D-05 achieved.  Increase integral accuracy.
 SCF Done:  E(RM062X) =  -226.602108255     A.U. after   24 cycles
             Convg  =    0.5242D-08             -V/T =  2.0081
 Calling FoFJK, ICntrl=      2127 FMM=F ISym2X=0 I1Cent= 0 IOpClX= 0 NMat=1 NMatS=1 NMatT=0.
 ***** Axes restored to original set *****
 -------------------------------------------------------------------
 Center     Atomic                   Forces (Hartrees/Bohr)
 Number     Number              X              Y              Z
 -------------------------------------------------------------------
      1        8          -0.000069251   -0.000058807   -0.000070928
      2        8           0.000106120   -0.000015936   -0.000150447
      3        1           0.000316867   -0.000069888    0.000984542
      4        8           0.000042762   -0.000390876   -0.000766664
      5        1          -0.000396498    0.000535507    0.000003497
 -------------------------------------------------------------------
 Cartesian Forces:  Max     0.000984542 RMS     0.000392294

 GradGradGradGradGradGradGradGradGradGradGradGradGradGradGradGradGradGrad
 Berny optimization.
 Internal  Forces:  Max     0.001193835 RMS     0.000534782
 Search for a saddle point.
 Step number   5 out of a maximum of  100
 All quantities printed in internal units (Hartrees-Bohrs-Radians)
 Swaping is turned off.
 Update second derivatives using D2CorX and points    1    2    3    4    5
 The second derivative matrix:
                          R1        R2        R3        R4        A1
           R1           0.76914
           R2          -0.01325   0.03650
           R3           0.02887  -0.00706   0.53632
           R4          -0.00487   0.01637  -0.01229   0.69765
           A1           0.00766   0.00789  -0.00273   0.00206   0.02345
           A2           0.00020   0.03004   0.06886   0.03665   0.00184
           A3           0.01493  -0.01555   0.06228   0.01366  -0.01000
           A4          -0.00533   0.01082  -0.00821   0.00300   0.00407
           D1           0.00519  -0.01435   0.00195  -0.00709  -0.00442
                          A2        A3        A4        D1
           A2           0.27423
           A3           0.17728   0.17547
           A4          -0.00571  -0.02520   0.00686
           D1          -0.01996   0.00423  -0.00447   0.00663
     Eigenvalues ---   -0.00129   0.00057   0.00855   0.02024   0.08249
     Eigenvalues ---    0.35741   0.58038   0.70301   0.77490
 Eigenvectors required to have negative eigenvalues:
                          A4        D1        A3        A2        R2
   1                    0.74195  -0.51061   0.35371  -0.24295  -0.05949
                          A1        R3        R4        R1
   1                   -0.03334   0.00230  -0.00100   0.00100
 RFO step:  Lambda0=3.102220111D-05 Lambda=-1.28449444D-05.
 Linear search not attempted -- option 19 set.
 Iteration  1 RMS(Cart)=  0.06460229 RMS(Int)=  0.00860395
 Iteration  2 RMS(Cart)=  0.00645944 RMS(Int)=  0.00009571
 Iteration  3 RMS(Cart)=  0.00006035 RMS(Int)=  0.00000001
 Iteration  4 RMS(Cart)=  0.00000000 RMS(Int)=  0.00000000
 Variable       Old X    -DE/DX   Delta X   Delta X   Delta X     New X
                                 (Linear)    (Quad)   (Total)
    R1        2.26047   0.00009   0.00000  -0.00002  -0.00002   2.26045
    R2        4.17907  -0.00010   0.00000   0.01798   0.01798   4.19705
    R3        1.82000  -0.00011   0.00000  -0.00005  -0.00005   1.81995
    R4        1.81714  -0.00038   0.00000  -0.00015  -0.00015   1.81700
    A1        1.77585  -0.00001   0.00000   0.00635   0.00635   1.78220
    A2        2.90495  -0.00119   0.00000   0.03986   0.03986   2.94481
    A3        2.08221  -0.00094   0.00000  -0.05568  -0.05568   2.02652
    A4        5.03771   0.00031   0.00000  -0.05752  -0.05752   4.98019
    D1       -0.06978  -0.00002   0.00000   0.15654   0.15654   0.08676
         Item               Value     Threshold  Converged?
 Maximum Force            0.001194     0.000450     NO 
 RMS     Force            0.000535     0.000300     NO 
 Maximum Displacement     0.100805     0.001800     NO 
 RMS     Displacement     0.069551     0.001200     NO 
 Predicted change in Energy= 9.392204D-06
 GradGradGradGradGradGradGradGradGradGradGradGradGradGradGradGradGradGrad

                          Input orientation:                          
 ---------------------------------------------------------------------
 Center     Atomic      Atomic             Coordinates (Angstroms)
 Number     Number       Type             X           Y           Z
 ---------------------------------------------------------------------
      1          8           0       -2.496277    0.835303    0.079809
      2          8           0       -1.591808    1.577841    0.327639
      3          1           0        0.179536    0.349607   -0.207662
      4          8           0        0.819270   -0.308270   -0.499995
      5          1           0        1.190499   -0.690854    0.300210
 ---------------------------------------------------------------------
                    Distance matrix (angstroms):
                    1          2          3          4          5
     1  O    0.000000
     2  O    1.196179   0.000000
     3  H    2.734688   2.220983   0.000000
     4  O    3.554826   3.171071   0.963079   0.000000
     5  H    3.996254   3.590120   1.537055   0.961513   0.000000
 Stoichiometry    H2O3
 Framework group  C1[X(H2O3)]
 Deg. of freedom     9
 Full point group                 C1      NOp   1
 Largest Abelian subgroup         C1      NOp   1
 Largest concise Abelian subgroup C1      NOp   1
                         Standard orientation:                         
 ---------------------------------------------------------------------
 Center     Atomic      Atomic             Coordinates (Angstroms)
 Number     Number       Type             X           Y           Z
 ---------------------------------------------------------------------
      1          8           0       -1.468524   -0.525304    0.013447
      2          8           0       -1.036348    0.589972   -0.001709
      3          1           0        1.155981    0.239451   -0.061658
      4          8           0        2.058256   -0.094890   -0.102115
      5          1           0        2.416944    0.002324    0.784677
 ---------------------------------------------------------------------
 Rotational constants (GHZ):     46.2074890      3.9730546      3.6989886
 Standard basis: 6-31+G(d,p) (6D, 7F)
 There are    67 symmetry adapted basis functions of A   symmetry.
 Integral buffers will be    262144 words long.
 Raffenetti 2 integral format.
 Two-electron integral symmetry is turned on.
    67 basis functions,   110 primitive gaussians,    67 cartesian basis functions
    13 alpha electrons       13 beta electrons
       nuclear repulsion energy        63.3557101567 Hartrees.
 NAtoms=    5 NActive=    5 NUniq=    5 SFac= 7.50D-01 NAtFMM=   80 NAOKFM=F Big=F
 One-electron integrals computed using PRISM.
 NBasis=    67 RedAO= T  NBF=    67
 NBsUse=    67 1.00D-06 NBFU=    67
 Initial guess read from the read-write file.
 B after Tr=     0.000000    0.000000    0.000000
         Rot=    1.000000    0.000000    0.000000    0.000000 Ang=   0.00 deg.
 Initial guess orbital symmetries:
       Occupied  (A) (A) (A) (A) (A) (A) (A) (A) (A) (A) (A) (A)
                 (A)
       Virtual   (A) (A) (A) (A) (A) (A) (A) (A) (A) (A) (A) (A)
                 (A) (A) (A) (A) (A) (A) (A) (A) (A) (A) (A) (A)
                 (A) (A) (A) (A) (A) (A) (A) (A) (A) (A) (A) (A)
                 (A) (A) (A) (A) (A) (A) (A) (A) (A) (A) (A) (A)
                 (A) (A) (A) (A) (A) (A)
 Harris functional with IExCor= 1009 diagonalized for initial guess.
 ExpMin= 8.45D-02 ExpMax= 5.48D+03 ExpMxC= 8.25D+02 IAcc=2 IRadAn=         0 AccDes= 0.00D+00
 HarFok:  IExCor= 1009 AccDes= 0.00D+00 IRadAn=         0 IDoV= 1
 ScaDFX=  1.000000  1.000000  1.000000  1.000000
 FoFCou: FMM=F IPFlag=           0 FMFlag=      100000 FMFlg1=           0
         NFxFlg=           0 DoJE=T BraDBF=F KetDBF=T FulRan=T
         Omega=  0.000000  0.000000  1.000000  0.000000  0.000000 ICntrl=     500 IOpCl=  0
         NMat0=    1 NMatS0=    1 NMatT0=    0 NMatD0=    1 NMtDS0=    0 NMtDT0=    0
         I1Cent=           4 NGrid=           0.
 Petite list used in FoFCou.
 Requested convergence on RMS density matrix=1.00D-08 within 128 cycles.
 Requested convergence on MAX density matrix=1.00D-06.
 Requested convergence on             energy=1.00D-06.
 No special actions if energy rises.
 Keep R1 ints in memory in canonical form, NReq=3551380.
 Integral accuracy reduced to 1.0D-05 until final iterations.
 Initial convergence to 1.0D-05 achieved.  Increase integral accuracy.
 SCF Done:  E(RM062X) =  -226.602084173     A.U. after   31 cycles
             Convg  =    0.7858D-08             -V/T =  2.0081
 Calling FoFJK, ICntrl=      2127 FMM=F ISym2X=0 I1Cent= 0 IOpClX= 0 NMat=1 NMatS=1 NMatT=0.
 ***** Axes restored to original set *****
 -------------------------------------------------------------------
 Center     Atomic                   Forces (Hartrees/Bohr)
 Number     Number              X              Y              Z
 -------------------------------------------------------------------
      1        8          -0.000044973   -0.000222793   -0.000021221
      2        8           0.000098852    0.000100087   -0.000203124
      3        1          -0.000124560    0.000363517    0.000298301
      4        8          -0.000132930   -0.000015828    0.000063490
      5        1           0.000203612   -0.000224984   -0.000137446
 -------------------------------------------------------------------
 Cartesian Forces:  Max     0.000363517 RMS     0.000179392

 GradGradGradGradGradGradGradGradGradGradGradGradGradGradGradGradGradGrad
 Berny optimization.
 Internal  Forces:  Max     0.000611293 RMS     0.000259271
 Search for a saddle point.
 Step number   6 out of a maximum of  100
 All quantities printed in internal units (Hartrees-Bohrs-Radians)
 Swaping is turned off.
 Update second derivatives using D2CorX and points    1    2    3    4    5
                                                      6
 The second derivative matrix:
                          R1        R2        R3        R4        A1
           R1           0.76913
           R2          -0.01364   0.03743
           R3           0.02885  -0.00745   0.53631
           R4          -0.00486   0.01667  -0.01226   0.69765
           A1           0.00766   0.00839  -0.00275   0.00203   0.02348
           A2           0.00023   0.03109   0.06873   0.03640   0.00187
           A3           0.01493  -0.01566   0.06258   0.01409  -0.01021
           A4          -0.00502   0.01080  -0.00754   0.00322   0.00353
           D1           0.00441  -0.01377   0.00065  -0.00711  -0.00321
                          A2        A3        A4        D1
           A2           0.27277
           A3           0.17763   0.17832
           A4          -0.00516  -0.02350   0.00620
           D1          -0.01979   0.00191  -0.00332   0.00502
     Eigenvalues ---   -0.00132   0.00051   0.00837   0.02023   0.08237
     Eigenvalues ---    0.35770   0.58052   0.70304   0.77489
 Eigenvectors required to have negative eigenvalues:
                          D1        A4        A3        A2        R2
   1                    0.71103  -0.60358  -0.26023   0.19032   0.16181
                          R4        A1        R3        R1
   1                    0.00146   0.00133  -0.00107  -0.00012
 RFO step:  Lambda0=5.031718379D-07 Lambda=-2.06684123D-05.
 Linear search not attempted -- option 19 set.
 Iteration  1 RMS(Cart)=  0.02409740 RMS(Int)=  0.00475152
 Iteration  2 RMS(Cart)=  0.00099354 RMS(Int)=  0.00000525
 Iteration  3 RMS(Cart)=  0.00000481 RMS(Int)=  0.00000000
 Iteration  4 RMS(Cart)=  0.00000000 RMS(Int)=  0.00000000
 Variable       Old X    -DE/DX   Delta X   Delta X   Delta X     New X
                                 (Linear)    (Quad)   (Total)
    R1        2.26045   0.00015   0.00000   0.00026   0.00026   2.26072
    R2        4.19705  -0.00016   0.00000   0.03432   0.03432   4.23137
    R3        1.81995   0.00027   0.00000   0.00038   0.00038   1.82034
    R4        1.81700   0.00004   0.00000  -0.00002  -0.00002   1.81698
    A1        1.78220  -0.00024   0.00000  -0.00716  -0.00716   1.77504
    A2        2.94481   0.00006   0.00000  -0.02412  -0.02412   2.92069
    A3        2.02652   0.00061   0.00000   0.04444   0.04444   2.07097
    A4        4.98019  -0.00014   0.00000   0.11742   0.11742   5.09761
    D1        0.08676   0.00016   0.00000   0.08715   0.08715   0.17390
         Item               Value     Threshold  Converged?
 Maximum Force            0.000611     0.000450     NO 
 RMS     Force            0.000259     0.000300     YES
 Maximum Displacement     0.043262     0.001800     NO 
 RMS     Displacement     0.024325     0.001200     NO 
 Predicted change in Energy=-1.033851D-05
 GradGradGradGradGradGradGradGradGradGradGradGradGradGradGradGradGradGrad

                          Input orientation:                          
 ---------------------------------------------------------------------
 Center     Atomic      Atomic             Coordinates (Angstroms)
 Number     Number       Type             X           Y           Z
 ---------------------------------------------------------------------
      1          8           0       -2.502139    0.838970    0.073565
      2          8           0       -1.605017    1.588394    0.327956
      3          1           0        0.184767    0.347221   -0.191596
      4          8           0        0.810217   -0.317786   -0.498987
      5          1           0        1.213392   -0.693172    0.289062
 ---------------------------------------------------------------------
                    Distance matrix (angstroms):
                    1          2          3          4          5
     1  O    0.000000
     2  O    1.196319   0.000000
     3  H    2.744375   2.239146   0.000000
     4  O    3.554940   3.186019   0.963281   0.000000
     5  H    4.024807   3.626360   1.539974   0.961502   0.000000
 Stoichiometry    H2O3
 Framework group  C1[X(H2O3)]
 Deg. of freedom     9
 Full point group                 C1      NOp   1
 Largest Abelian subgroup         C1      NOp   1
 Largest concise Abelian subgroup C1      NOp   1
                         Standard orientation:                         
 ---------------------------------------------------------------------
 Center     Atomic      Atomic             Coordinates (Angstroms)
 Number     Number       Type             X           Y           Z
 ---------------------------------------------------------------------
      1          8           0       -1.465255   -0.529299    0.015677
      2          8           0       -1.047855    0.591669   -0.004012
      3          1           0        1.164866    0.251644   -0.048984
      4          8           0        2.061334   -0.096885   -0.101741
      5          1           0        2.449335    0.024483    0.769587
 ---------------------------------------------------------------------
 Rotational constants (GHZ):     45.8446845      3.9549504      3.6796328
 Standard basis: 6-31+G(d,p) (6D, 7F)
 There are    67 symmetry adapted basis functions of A   symmetry.
 Integral buffers will be    262144 words long.
 Raffenetti 2 integral format.
 Two-electron integral symmetry is turned on.
    67 basis functions,   110 primitive gaussians,    67 cartesian basis functions
    13 alpha electrons       13 beta electrons
       nuclear repulsion energy        63.2602360918 Hartrees.
 NAtoms=    5 NActive=    5 NUniq=    5 SFac= 7.50D-01 NAtFMM=   80 NAOKFM=F Big=F
 One-electron integrals computed using PRISM.
 NBasis=    67 RedAO= T  NBF=    67
 NBsUse=    67 1.00D-06 NBFU=    67
 Initial guess read from the read-write file.
 B after Tr=     0.000000    0.000000    0.000000
         Rot=    1.000000    0.000000    0.000000    0.000000 Ang=   0.00 deg.
 Initial guess orbital symmetries:
       Occupied  (A) (A) (A) (A) (A) (A) (A) (A) (A) (A) (A) (A)
                 (A)
       Virtual   (A) (A) (A) (A) (A) (A) (A) (A) (A) (A) (A) (A)
                 (A) (A) (A) (A) (A) (A) (A) (A) (A) (A) (A) (A)
                 (A) (A) (A) (A) (A) (A) (A) (A) (A) (A) (A) (A)
                 (A) (A) (A) (A) (A) (A) (A) (A) (A) (A) (A) (A)
                 (A) (A) (A) (A) (A) (A)
 Harris functional with IExCor= 1009 diagonalized for initial guess.
 ExpMin= 8.45D-02 ExpMax= 5.48D+03 ExpMxC= 8.25D+02 IAcc=2 IRadAn=         0 AccDes= 0.00D+00
 HarFok:  IExCor= 1009 AccDes= 0.00D+00 IRadAn=         0 IDoV= 1
 ScaDFX=  1.000000  1.000000  1.000000  1.000000
 FoFCou: FMM=F IPFlag=           0 FMFlag=      100000 FMFlg1=           0
         NFxFlg=           0 DoJE=T BraDBF=F KetDBF=T FulRan=T
         Omega=  0.000000  0.000000  1.000000  0.000000  0.000000 ICntrl=     500 IOpCl=  0
         NMat0=    1 NMatS0=    1 NMatT0=    0 NMatD0=    1 NMtDS0=    0 NMtDT0=    0
         I1Cent=           4 NGrid=           0.
 Petite list used in FoFCou.
 Requested convergence on RMS density matrix=1.00D-08 within 128 cycles.
 Requested convergence on MAX density matrix=1.00D-06.
 Requested convergence on             energy=1.00D-06.
 No special actions if energy rises.
 Keep R1 ints in memory in canonical form, NReq=3551380.
 Integral accuracy reduced to 1.0D-05 until final iterations.
 Initial convergence to 1.0D-05 achieved.  Increase integral accuracy.
 SCF Done:  E(RM062X) =  -226.602098343     A.U. after   19 cycles
             Convg  =    0.3855D-08             -V/T =  2.0081
 Calling FoFJK, ICntrl=      2127 FMM=F ISym2X=0 I1Cent= 0 IOpClX= 0 NMat=1 NMatS=1 NMatT=0.
 ***** Axes restored to original set *****
 -------------------------------------------------------------------
 Center     Atomic                   Forces (Hartrees/Bohr)
 Number     Number              X              Y              Z
 -------------------------------------------------------------------
      1        8           0.000033397    0.000038613    0.000054884
      2        8           0.000162742   -0.000255817   -0.000305481
      3        1           0.000057228    0.000080002    0.000521293
      4        8          -0.000234510    0.000084326   -0.000305566
      5        1          -0.000018857    0.000052877    0.000034869
 -------------------------------------------------------------------
 Cartesian Forces:  Max     0.000521293 RMS     0.000205285

 GradGradGradGradGradGradGradGradGradGradGradGradGradGradGradGradGradGrad
 Berny optimization.
 Internal  Forces:  Max     0.000483731 RMS     0.000209146
 Search for a saddle point.
 Step number   7 out of a maximum of  100
 All quantities printed in internal units (Hartrees-Bohrs-Radians)
 Swaping is turned off.
 Update second derivatives using D2CorX and points    1    2    3    4    5
                                                      6    7
 The second derivative matrix:
                          R1        R2        R3        R4        A1
           R1           0.76912
           R2          -0.01342   0.03873
           R3           0.02885  -0.00691   0.53632
           R4          -0.00486   0.01682  -0.01225   0.69767
           A1           0.00766   0.00804  -0.00276   0.00203   0.02347
           A2           0.00027   0.03228   0.06875   0.03638   0.00171
           A3           0.01495  -0.01434   0.06282   0.01428  -0.01021
           A4          -0.00481   0.01180  -0.00706   0.00324   0.00335
           D1           0.00488  -0.01224   0.00155  -0.00716  -0.00361
                          A2        A3        A4        D1
           A2           0.27198
           A3           0.17882   0.17901
           A4          -0.00368  -0.02338   0.00621
           D1          -0.01756   0.00215  -0.00365   0.00428
     Eigenvalues ---   -0.00127   0.00021   0.00871   0.02035   0.08184
     Eigenvalues ---    0.35820   0.58078   0.70310   0.77488
 Eigenvectors required to have negative eigenvalues:
                          A4        D1        A3        A2        R2
   1                    0.76976  -0.50791   0.30770  -0.21202  -0.09925
                          A1        R4        R3        R1
   1                   -0.00414  -0.00159   0.00139   0.00038
 RFO step:  Lambda0=5.179291433D-06 Lambda=-1.40907944D-05.
 Linear search not attempted -- option 19 set.
 Iteration  1 RMS(Cart)=  0.04142758 RMS(Int)=  0.00459956
 Iteration  2 RMS(Cart)=  0.00504904 RMS(Int)=  0.00004390
 Iteration  3 RMS(Cart)=  0.00002619 RMS(Int)=  0.00000000
 Iteration  4 RMS(Cart)=  0.00000000 RMS(Int)=  0.00000000
 Variable       Old X    -DE/DX   Delta X   Delta X   Delta X     New X
                                 (Linear)    (Quad)   (Total)
    R1        2.26072  -0.00007   0.00000  -0.00067  -0.00067   2.26004
    R2        4.23137  -0.00033   0.00000   0.02060   0.02060   4.25197
    R3        1.82034  -0.00016   0.00000  -0.00079  -0.00079   1.81955
    R4        1.81698  -0.00001   0.00000   0.00066   0.00066   1.81764
    A1        1.77504   0.00006   0.00000   0.01527   0.01527   1.79031
    A2        2.92069  -0.00048   0.00000   0.01392   0.01392   2.93461
    A3        2.07097  -0.00008   0.00000  -0.00568  -0.00568   2.06529
    A4        5.09761   0.00002   0.00000   0.06433   0.06433   5.16194
    D1        0.17390   0.00009   0.00000   0.20947   0.20947   0.38338
         Item               Value     Threshold  Converged?
 Maximum Force            0.000484     0.000450     NO 
 RMS     Force            0.000209     0.000300     YES
 Maximum Displacement     0.059223     0.001800     NO 
 RMS     Displacement     0.046125     0.001200     NO 
 Predicted change in Energy=-4.760508D-06
 GradGradGradGradGradGradGradGradGradGradGradGradGradGradGradGradGradGrad

                          Input orientation:                          
 ---------------------------------------------------------------------
 Center     Atomic      Atomic             Coordinates (Angstroms)
 Number     Number       Type             X           Y           Z
 ---------------------------------------------------------------------
      1          8           0       -2.514687    0.833804    0.103089
      2          8           0       -1.613996    1.596341    0.297050
      3          1           0        0.195850    0.350056   -0.186611
      4          8           0        0.841556   -0.292276   -0.498989
      5          1           0        1.192495   -0.724298    0.285461
 ---------------------------------------------------------------------
                    Distance matrix (angstroms):
                    1          2          3          4          5
     1  O    0.000000
     2  O    1.195963   0.000000
     3  H    2.768564   2.250044   0.000000
     4  O    3.590950   3.198482   0.962864   0.000000
     5  H    4.025436   3.641688   1.539607   0.961854   0.000000
 Stoichiometry    H2O3
 Framework group  C1[X(H2O3)]
 Deg. of freedom     9
 Full point group                 C1      NOp   1
 Largest Abelian subgroup         C1      NOp   1
 Largest concise Abelian subgroup C1      NOp   1
                         Standard orientation:                         
 ---------------------------------------------------------------------
 Center     Atomic      Atomic             Coordinates (Angstroms)
 Number     Number       Type             X           Y           Z
 ---------------------------------------------------------------------
      1          8           0       -1.483330   -0.525337    0.004399
      2          8           0       -1.047354    0.588326    0.007151
      3          1           0        1.176039    0.244140   -0.020379
      4          8           0        2.078267   -0.080843   -0.106853
      5          1           0        2.443299   -0.101304    0.782808
 ---------------------------------------------------------------------
 Rotational constants (GHZ):     46.4228465      3.8945345      3.6323888
 Standard basis: 6-31+G(d,p) (6D, 7F)
 There are    67 symmetry adapted basis functions of A   symmetry.
 Integral buffers will be    262144 words long.
 Raffenetti 2 integral format.
 Two-electron integral symmetry is turned on.
    67 basis functions,   110 primitive gaussians,    67 cartesian basis functions
    13 alpha electrons       13 beta electrons
       nuclear repulsion energy        63.1043741112 Hartrees.
 NAtoms=    5 NActive=    5 NUniq=    5 SFac= 7.50D-01 NAtFMM=   80 NAOKFM=F Big=F
 One-electron integrals computed using PRISM.
 NBasis=    67 RedAO= T  NBF=    67
 NBsUse=    67 1.00D-06 NBFU=    67
 Initial guess read from the read-write file.
 B after Tr=     0.000000    0.000000    0.000000
         Rot=    1.000000    0.000000    0.000000    0.000000 Ang=   0.00 deg.
 Initial guess orbital symmetries:
       Occupied  (A) (A) (A) (A) (A) (A) (A) (A) (A) (A) (A) (A)
                 (A)
       Virtual   (A) (A) (A) (A) (A) (A) (A) (A) (A) (A) (A) (A)
                 (A) (A) (A) (A) (A) (A) (A) (A) (A) (A) (A) (A)
                 (A) (A) (A) (A) (A) (A) (A) (A) (A) (A) (A) (A)
                 (A) (A) (A) (A) (A) (A) (A) (A) (A) (A) (A) (A)
                 (A) (A) (A) (A) (A) (A)
 Harris functional with IExCor= 1009 diagonalized for initial guess.
 ExpMin= 8.45D-02 ExpMax= 5.48D+03 ExpMxC= 8.25D+02 IAcc=2 IRadAn=         0 AccDes= 0.00D+00
 HarFok:  IExCor= 1009 AccDes= 0.00D+00 IRadAn=         0 IDoV= 1
 ScaDFX=  1.000000  1.000000  1.000000  1.000000
 FoFCou: FMM=F IPFlag=           0 FMFlag=      100000 FMFlg1=           0
         NFxFlg=           0 DoJE=T BraDBF=F KetDBF=T FulRan=T
         Omega=  0.000000  0.000000  1.000000  0.000000  0.000000 ICntrl=     500 IOpCl=  0
         NMat0=    1 NMatS0=    1 NMatT0=    0 NMatD0=    1 NMtDS0=    0 NMtDT0=    0
         I1Cent=           4 NGrid=           0.
 Petite list used in FoFCou.
 Requested convergence on RMS density matrix=1.00D-08 within 128 cycles.
 Requested convergence on MAX density matrix=1.00D-06.
 Requested convergence on             energy=1.00D-06.
 No special actions if energy rises.
 Keep R1 ints in memory in canonical form, NReq=3551380.
 Integral accuracy reduced to 1.0D-05 until final iterations.
 Initial convergence to 1.0D-05 achieved.  Increase integral accuracy.
 SCF Done:  E(RM062X) =  -226.602102740     A.U. after   20 cycles
             Convg  =    0.3609D-08             -V/T =  2.0081
 Calling FoFJK, ICntrl=      2127 FMM=F ISym2X=0 I1Cent= 0 IOpClX= 0 NMat=1 NMatS=1 NMatT=0.
 ***** Axes restored to original set *****
 -------------------------------------------------------------------
 Center     Atomic                   Forces (Hartrees/Bohr)
 Number     Number              X              Y              Z
 -------------------------------------------------------------------
      1        8          -0.000283314   -0.000539943   -0.000036413
      2        8           0.000558612    0.000273489   -0.000207043
      3        1          -0.000310887    0.000419094    0.000595030
      4        8           0.000178819   -0.000345727    0.000041927
      5        1          -0.000143230    0.000193087   -0.000393501
 -------------------------------------------------------------------
 Cartesian Forces:  Max     0.000595030 RMS     0.000345938

 GradGradGradGradGradGradGradGradGradGradGradGradGradGradGradGradGradGrad
 Berny optimization.
 Internal  Forces:  Max     0.000522111 RMS     0.000365965
 Search for a saddle point.
 Step number   8 out of a maximum of  100
 All quantities printed in internal units (Hartrees-Bohrs-Radians)
 Swaping is turned off.
 Update second derivatives using D2CorX and points    1    3    5    6    7
                                                      8
 The second derivative matrix:
                          R1        R2        R3        R4        A1
           R1           0.76910
           R2          -0.01388   0.03921
           R3           0.02884  -0.00716   0.53632
           R4          -0.00484   0.01725  -0.01224   0.69765
           A1           0.00759   0.00846  -0.00281   0.00210   0.02360
           A2           0.00025   0.03277   0.06873   0.03638   0.00182
           A3           0.01484  -0.01433   0.06277   0.01439  -0.01016
           A4          -0.00552   0.01246  -0.00740   0.00388   0.00391
           D1           0.00265  -0.01060   0.00040  -0.00519  -0.00190
                          A2        A3        A4        D1
           A2           0.27198
           A3           0.17885   0.17917
           A4          -0.00291  -0.02347   0.00653
           D1          -0.01541   0.00177  -0.00337   0.00289
     Eigenvalues ---   -0.00128  -0.00007   0.00865   0.02042   0.08183
     Eigenvalues ---    0.35820   0.58077   0.70308   0.77485
 Eigenvectors required to have negative eigenvalues:
                          A4        D1        A3        A2        R2
   1                    0.75087  -0.53935   0.30290  -0.20901  -0.09837
                          A1        R4        R3        R1
   1                    0.01359  -0.00113   0.00086  -0.00048
 RFO step:  Lambda0=1.375704598D-07 Lambda=-1.21669789D-04.
 Linear search not attempted -- option 19 set.
 Maximum step size (   0.300) exceeded in Quadratic search.
    -- Step size scaled by   0.194
 Iteration  1 RMS(Cart)=  0.02194358 RMS(Int)=  0.01744988
 Iteration  2 RMS(Cart)=  0.01352967 RMS(Int)=  0.00026188
 Iteration  3 RMS(Cart)=  0.00021489 RMS(Int)=  0.00000008
 Iteration  4 RMS(Cart)=  0.00000006 RMS(Int)=  0.00000000
 Variable       Old X    -DE/DX   Delta X   Delta X   Delta X     New X
                                 (Linear)    (Quad)   (Total)
    R1        2.26004   0.00052   0.00000   0.00056   0.00056   2.26060
    R2        4.25197  -0.00041   0.00000   0.02734   0.02734   4.27931
    R3        1.81955   0.00027   0.00000   0.00009   0.00009   1.81964
    R4        1.81764  -0.00046   0.00000  -0.00015  -0.00015   1.81749
    A1        1.79031  -0.00041   0.00000  -0.00938  -0.00938   1.78092
[...]
                 (A) (A) (A) (A) (A) (A) (A) (A) (A) (A) (A) (A)
                 (A) (A) (A) (A) (A) (A) (A) (A) (A) (A) (A) (A)
                 (A) (A) (A) (A) (A) (A) (A) (A) (A) (A) (A) (A)
                 (A) (A) (A) (A) (A) (A)
 The electronic state is 1-A.
 Alpha  occ. eigenvalues --  -19.83182 -19.83015 -19.64226  -1.45310  -1.12764
 Alpha  occ. eigenvalues --   -0.93333  -0.64886  -0.64177  -0.61943  -0.60055
 Alpha  occ. eigenvalues --   -0.46160  -0.39023  -0.35836
 Alpha virt. eigenvalues --   -0.13453   0.06014   0.09851   0.11264   0.13054
 Alpha virt. eigenvalues --    0.17081   0.18001   0.20306   0.20414   0.21912
 Alpha virt. eigenvalues --    0.22838   0.28379   0.30007   0.31013   0.33765
 Alpha virt. eigenvalues --    0.38090   1.01641   1.02552   1.07609   1.10768
 Alpha virt. eigenvalues --    1.11511   1.14756   1.15832   1.17798   1.20537
 Alpha virt. eigenvalues --    1.21654   1.22866   1.32766   1.38717   1.53857
 Alpha virt. eigenvalues --    1.56265   1.56454   1.57284   1.61424   1.63888
 Alpha virt. eigenvalues --    1.67848   1.69846   1.97039   1.99081   2.29409
 Alpha virt. eigenvalues --    2.33059   2.55010   2.57481   2.60919   2.65581
 Alpha virt. eigenvalues --    2.68459   2.68705   2.95286   3.07986   3.44055
 Alpha virt. eigenvalues --    3.60389   3.72675   3.99847   4.11886
          Condensed to atoms (all electrons):
              1          2          3          4          5
     1  O    7.632076   0.337445  -0.001610   0.006297   0.000278
     2  O    0.337445   7.676661   0.006127  -0.003197  -0.000864
     3  H   -0.001610   0.006127   0.363817   0.275864  -0.022385
     4  O    0.006297  -0.003197   0.275864   8.194040   0.283204
     5  H    0.000278  -0.000864  -0.022385   0.283204   0.371091
 Mulliken atomic charges:
              1
     1  O    0.025515
     2  O   -0.016172
     3  H    0.378187
     4  O   -0.756206
     5  H    0.368677
 Sum of Mulliken atomic charges =   0.00000
 Mulliken charges with hydrogens summed into heavy atoms:
              1
     1  O    0.025515
     2  O   -0.016172
     4  O   -0.009343
 Sum of Mulliken charges with hydrogens summed into heavy atoms =   0.00000
 APT atomic charges:
              1
     1  O    0.033911
     2  O   -0.044223
     3  H    0.344514
     4  O   -0.632977
     5  H    0.298775
 Sum of APT charges=   0.00000
 APT Atomic charges with hydrogens summed into heavy atoms:
              1
     1  O    0.033911
     2  O   -0.044223
     3  H    0.000000
     4  O    0.010312
     5  H    0.000000
 Sum of APT charges=   0.00000
 Electronic spatial extent (au):  <R**2>=            281.7989
 Charge=              0.0000 electrons
 Dipole moment (field-independent basis, Debye):
    X=             -0.4600    Y=              2.0696    Z=              0.0001  Tot=              2.1201
 Quadrupole moment (field-independent basis, Debye-Ang):
   XX=            -16.1099   YY=            -17.3652   ZZ=            -17.0086
   XY=              4.7428   XZ=             -0.0031   YZ=              0.0003
 Traceless Quadrupole moment (field-independent basis, Debye-Ang):
   XX=              0.7180   YY=             -0.5373   ZZ=             -0.1807
   XY=              4.7428   XZ=             -0.0031   YZ=              0.0003
 Octapole moment (field-independent basis, Debye-Ang**2):
  XXX=             10.9896  YYY=              1.3866  ZZZ=             -0.0001  XYY=             -0.0847
  XXY=              9.9056  XXZ=             -0.0051  XZZ=             -4.0581  YZZ=              0.5162
  YYZ=             -0.0001  XYZ=             -0.0012
 Hexadecapole moment (field-independent basis, Debye-Ang**3):
 XXXX=           -220.4907 YYYY=            -35.5574 ZZZZ=            -13.7774 XXXY=             26.6598
 XXXZ=             -0.0315 YYYX=              4.6318 YYYZ=              0.0008 ZZZX=             -0.0019
 ZZZY=              0.0002 XXYY=            -49.1946 XXZZ=            -48.1802 YYZZ=             -7.9409
 XXYZ=             -0.0020 YYXZ=             -0.0017 ZZXY=              1.2737
 N-N= 6.427097468221D+01 E-N=-6.629969345489D+02  KE= 2.247831470209D+02
  Exact polarizability:  16.809   2.325  17.991   0.000   0.000  11.601
 Approx polarizability:  16.307   3.992  23.652  -0.002   0.000  12.195
 Calling FoFJK, ICntrl=    100127 FMM=F ISym2X=0 I1Cent= 0 IOpClX= 0 NMat=1 NMatS=1 NMatT=0.
 Full mass-weighted force constant matrix:
 Low frequencies ---  -37.4825    0.0015    0.0016    0.0017   17.5851   56.2939
 Low frequencies ---   75.8454  176.6079  181.6658
 Diagonal vibrational polarizability:
      154.9805418       0.9741918     260.4422966
 Harmonic frequencies (cm**-1), IR intensities (KM/Mole), Raman scattering
 activities (A**4/AMU), depolarization ratios for plane and unpolarized
 incident light, reduced masses (AMU), force constants (mDyne/A),
 and normal coordinates:
                     1                      2                      3
                     A                      A                      A
 Frequencies --    72.4704               175.1548               176.4974
 Red. masses --     7.3017                12.2146                 1.1202
 Frc consts  --     0.0226                 0.2208                 0.0206
 IR Inten    --    13.3254                 0.9620               266.0852
  Atom  AN      X      Y      Z        X      Y      Z        X      Y      Z
     1   8     0.42  -0.05   0.00    -0.38   0.06   0.00     0.00   0.00  -0.03
     2   8     0.07   0.07   0.00     0.64  -0.29   0.00    -0.01   0.00   0.04
     3   1    -0.13   0.54   0.01    -0.08   0.48  -0.09     0.00   0.00  -0.92
     4   8    -0.48  -0.02   0.00    -0.26   0.20   0.01     0.00   0.00   0.07
     5   1    -0.03  -0.52  -0.01    -0.01  -0.07  -0.05     0.00   0.00  -0.38
                     4                      5                      6
                     A                      A                      A
 Frequencies --   195.6907               198.6718              1598.7382
 Red. masses --     1.0761                 1.0571                 1.0824
 Frc consts  --     0.0243                 0.0246                 1.6300
 IR Inten    --   116.1371                50.7035                84.0655
  Atom  AN      X      Y      Z        X      Y      Z        X      Y      Z
     1   8     0.04   0.01   0.01    -0.01   0.00   0.03     0.00   0.00   0.00
     2   8     0.04   0.01   0.00    -0.01   0.00  -0.01     0.00   0.00   0.00
     3   1    -0.37  -0.57  -0.13     0.11   0.17  -0.43     0.38   0.61   0.00
     4   8    -0.03  -0.01  -0.01     0.01   0.00  -0.04     0.01  -0.07   0.00
     5   1    -0.48   0.48   0.25     0.14  -0.14   0.86    -0.47   0.52   0.00
                     7                      8                      9
                     A                      A                      A
 Frequencies --  1771.6911              3876.7953              4001.1972
 Red. masses --    15.8855                 1.0448                 1.0829
 Frc consts  --    29.3782                 9.2520                10.2147
 IR Inten    --     0.1140                45.0022               152.1108
  Atom  AN      X      Y      Z        X      Y      Z        X      Y      Z
     1   8     0.23   0.67   0.00     0.00   0.00   0.00     0.00   0.00   0.00
     2   8    -0.23  -0.67   0.00     0.00   0.00   0.00     0.00   0.00   0.00
     3   1    -0.04  -0.05   0.00     0.69  -0.37   0.00    -0.52   0.33   0.00
     4   8     0.00   0.00   0.00    -0.01   0.05   0.00     0.07   0.01   0.00
     5   1     0.04  -0.04   0.00    -0.49  -0.39   0.00    -0.59  -0.52   0.00

 -------------------
 - Thermochemistry -
 -------------------
 Temperature   298.150 Kelvin.  Pressure   1.00000 Atm.
 Atom     1 has atomic number  8 and mass  15.99491
 Atom     2 has atomic number  8 and mass  15.99491
 Atom     3 has atomic number  1 and mass   1.00783
 Atom     4 has atomic number  8 and mass  15.99491
 Atom     5 has atomic number  1 and mass   1.00783
 Molecular mass:    50.00039 amu.
 Principal axes and moments of inertia in atomic units:
                           1         2         3
     Eigenvalues --    39.55672 417.05025 456.60697
           X            0.99987   0.01587   0.00000
           Y           -0.01587   0.99987   0.00000
           Z            0.00000   0.00000   1.00000
 This molecule is an asymmetric top.
 Rotational symmetry number  1.
 Rotational temperatures (Kelvin)      2.18961     0.20768     0.18969
 Rotational constants (GHZ):          45.62414     4.32740     3.95250
 Zero-point vibrational energy      72176.1 (Joules/Mol)
                                   17.25051 (Kcal/Mol)
 Warning -- explicit consideration of   5 degrees of freedom as
           vibrations may cause significant error
 Vibrational temperatures:    104.27   252.01   253.94   281.55   285.84
          (Kelvin)           2300.22  2549.07  5577.84  5756.82
 
 Zero-point correction=                           0.027490 (Hartree/Particle)
 Thermal correction to Energy=                    0.033446
 Thermal correction to Enthalpy=                  0.034390
 Thermal correction to Gibbs Free Energy=        -0.000935
 Sum of electronic and zero-point Energies=           -226.574883
 Sum of electronic and thermal Energies=              -226.568927
 Sum of electronic and thermal Enthalpies=            -226.567983
 Sum of electronic and thermal Free Energies=         -226.603308
 
                     E (Thermal)             CV                S
                      KCal/Mol        Cal/Mol-Kelvin    Cal/Mol-Kelvin
 Total                   20.988             15.442             74.348
 Electronic               0.000              0.000              0.000
 Translational            0.889              2.981             37.652
 Rotational               0.889              2.981             23.536
 Vibrational             19.210              9.480             13.160
 Vibration     1          0.599              1.967              4.085
 Vibration     2          0.627              1.873              2.379
 Vibration     3          0.628              1.871              2.365
 Vibration     4          0.636              1.846              2.173
 Vibration     5          0.637              1.842              2.145
                       Q            Log10(Q)             Ln(Q)
 Total Bot       0.269178D+01          0.430040          0.990203
 Total V=0       0.118778D+14         13.074736         30.105692
 Vib (Bot)       0.623451D-11        -11.205198        -25.800921
 Vib (Bot)    1  0.284492D+01          0.454071          1.045536
 Vib (Bot)    2  0.114860D+01          0.060168          0.138542
 Vib (Bot)    3  0.113934D+01          0.056655          0.130453
 Vib (Bot)    4  0.102059D+01          0.008853          0.020384
 Vib (Bot)    5  0.100415D+01          0.001799          0.004141
 Vib (V=0)       0.275105D+02          1.439499          3.314568
 Vib (V=0)    1  0.338853D+01          0.530011          1.220395
 Vib (V=0)    2  0.175271D+01          0.243710          0.561162
 Vib (V=0)    3  0.174423D+01          0.241604          0.556313
 Vib (V=0)    4  0.163649D+01          0.213913          0.492554
 Vib (V=0)    5  0.162175D+01          0.209983          0.483504
 Electronic      0.100000D+01          0.000000          0.000000
 Translational   0.138968D+08          7.142915         16.447170
 Rotational      0.310686D+05          4.492322         10.343954
 ***** Axes restored to original set *****
 -------------------------------------------------------------------
 Center     Atomic                   Forces (Hartrees/Bohr)
 Number     Number              X              Y              Z
 -------------------------------------------------------------------
      1        8          -0.000001801    0.000007498   -0.000013322
      2        8           0.000007249    0.000005162   -0.000022651
      3        1           0.000017333   -0.000001810   -0.000016762
      4        8           0.000001559   -0.000023493    0.000045720
      5        1          -0.000024340    0.000012643    0.000007014
 -------------------------------------------------------------------
 Cartesian Forces:  Max     0.000045720 RMS     0.000018000

 GradGradGradGradGradGradGradGradGradGradGradGradGradGradGradGradGradGrad
 Berny optimization.
 Internal  Forces:  Max     0.000075473 RMS     0.000031811
 Search for a saddle point.
 Step number   1 out of a maximum of    2
 All quantities printed in internal units (Hartrees-Bohrs-Radians)
 Swaping is turned off.
 Second derivative matrix not updated -- analytic derivatives used.
 The second derivative matrix:
                          R1        R2        R3        R4        A1
           R1           0.95201
           R2          -0.00084   0.00602
           R3           0.00009   0.00145   0.56161
           R4           0.00017  -0.00152  -0.00436   0.56162
           A1           0.01218  -0.00099  -0.00261   0.00073   0.02679
           A2          -0.00132  -0.00694   0.05912   0.04039  -0.00142
           A3          -0.00179  -0.00497   0.04213   0.02829  -0.00467
           A4           0.00000   0.00000   0.00003   0.00000   0.00001
           D1           0.00000   0.00000   0.00001   0.00002   0.00000
                          A2        A3        A4        D1
           A2           0.29578
           A3           0.20872   0.14941
           A4           0.00011   0.00006   0.00242
           D1           0.00003   0.00003  -0.00214   0.00230
     Eigenvalues ---    0.00022   0.00106   0.00450   0.00579   0.02699
     Eigenvalues ---    0.39624   0.56564   0.60534   0.95218
 Eigenvectors required to have negative eigenvalues:
                          D1        A4        A3        A2        A1
   1                    0.71672   0.69735   0.00310  -0.00251   0.00023
                          R2        R3        R4        R1
   1                    0.00022  -0.00001   0.00000   0.00000
 Eigenvalue     1 is   2.18D-04 should be less than     0.000000 Eigenvector:
                          D1        A4        A3        A2        A1
   1                    0.71672   0.69735   0.00310  -0.00251   0.00023
                          R2        R3        R4        R1
   1                    0.00022  -0.00001   0.00000   0.00000
 Angle between quadratic step and forces=  84.17 degrees.
 Linear search not attempted -- option 19 set.
 Iteration  1 RMS(Cart)=  0.00084567 RMS(Int)=  0.00000110
 Iteration  2 RMS(Cart)=  0.00000081 RMS(Int)=  0.00000000
 Variable       Old X    -DE/DX   Delta X   Delta X   Delta X     New X
                                 (Linear)    (Quad)   (Total)
    R1        2.26026   0.00000   0.00000   0.00001   0.00001   2.26027
    R2        4.08353   0.00000   0.00000  -0.00026  -0.00026   4.08327
    R3        1.82055  -0.00001   0.00000   0.00002   0.00002   1.82056
    R4        1.81676  -0.00001   0.00000  -0.00001  -0.00001   1.81675
    A1        1.77145  -0.00001   0.00000  -0.00060  -0.00060   1.77085
    A2        2.71709  -0.00008   0.00000   0.00124   0.00124   2.71833
    A3        2.44555  -0.00006   0.00000  -0.00214  -0.00214   2.44341
    A4        0.00249   0.00000   0.00000  -0.00150  -0.00150   0.00100
    D1        0.00193   0.00000   0.00000  -0.00082  -0.00082   0.00112
         Item               Value     Threshold  Converged?
 Maximum Force            0.000075     0.000450     YES
 RMS     Force            0.000032     0.000300     YES
 Maximum Displacement     0.001296     0.001800     YES
 RMS     Displacement     0.000846     0.001200     YES
 Predicted change in Energy=-1.431437D-08
 Optimization completed.
    -- Stationary point found.
                           ----------------------------
                           !   Optimized Parameters   !
                           ! (Angstroms and Degrees)  !
 --------------------------                            --------------------------
 ! Name  Definition              Value          Derivative Info.                !
 --------------------------------------------------------------------------------
 ! R1    R(1,2)                  1.1961         -DE/DX =    0.0                 !
 ! R2    R(2,3)                  2.1609         -DE/DX =    0.0                 !
 ! R3    R(3,4)                  0.9634         -DE/DX =    0.0                 !
 ! R4    R(4,5)                  0.9614         -DE/DX =    0.0                 !
 ! A1    A(1,2,3)              101.4966         -DE/DX =    0.0                 !
 ! A2    A(2,3,4)              155.6775         -DE/DX =   -0.0001              !
 ! A3    L(3,4,5,2,-1)         140.1196         -DE/DX =   -0.0001              !
 ! A4    L(3,4,5,2,-2)           0.1429         -DE/DX =    0.0                 !
 ! D1    D(1,2,3,4)              0.1108         -DE/DX =    0.0                 !
 --------------------------------------------------------------------------------
 GradGradGradGradGradGradGradGradGradGradGradGradGradGradGradGradGradGrad

 1|1|UNPC-DESKTOP-319GPER|Freq|RM062X|6-31+G(d,p)|H2O3|SAGAD|09-Feb-202
 1|0||#N Geom=AllCheck Guess=TCheck SCRF=Check GenChk RM062X/6-31+G(d,p
 ) Freq||ts OOH vs OH||0,1|O,-2.260895895,1.1740730082,0.7058048296|O,-
 1.7653348178,1.3434818778,-0.3695207996|H,0.0483769865,0.1816758825,-0
 .1957662007|O,0.68481029,-0.39167356,0.2450820761|H,1.3942626163,-0.54
 39301285,-0.3855999055||Version=IA32W-G09RevA.02|State=1-A|HF=-226.602
 373|RMSD=3.680e-011|RMSF=1.800e-005|ZeroPoint=0.0274904|Thermal=0.0334
 46|Dipole=-0.0382662,0.3508107,-0.7557942|DipoleDeriv=0.0213825,0.0060
 941,-0.0109359,0.0001392,0.0264077,-0.0066155,0.0028029,-0.0148163,0.0
 539433,-0.0757147,0.0327119,0.0262654,0.0454098,-0.0276356,-0.0039197,
 -0.0031189,0.0136567,-0.0293198,0.4447939,-0.0272046,-0.0298094,-0.036
 1532,0.3629843,0.0838114,-0.0090458,0.0713812,0.225764,-0.6937145,-0.0
 35053,-0.0583081,-0.0250439,-0.7335439,-0.1049036,-0.0813837,-0.091064
 2,-0.4716726,0.3032529,0.0234517,0.0727879,0.0156481,0.3717876,0.03162
 74,0.0907455,0.0208425,0.2212852|Polar=16.2069924,-1.4904225,12.818894
 4,-2.9295133,-0.748167,17.3746076|PG=C01 [X(H2O3)]|NImag=0||0.17058331
 ,0.05299689,0.02130758,-0.35572323,-0.11875453,0.76687621,-0.17071333,
 -0.05313529,0.35584613,0.17512799,-0.05243607,-0.02163747,0.11811411,0
 .05029029,0.02427647,0.35423761,0.11907582,-0.76583726,-0.35389585,-0.
 11873477,0.76565576,-0.00043521,0.00062646,-0.00013005,-0.00190131,-0.
 00010354,0.00048610,0.26904882,-0.00050654,0.00028938,0.00122334,0.001
 14651,-0.00182503,-0.00135036,-0.22193763,0.19672455,0.00247694,-0.000
 33509,-0.00213032,-0.00239292,0.00037137,0.00072391,0.14084287,-0.1436
 0232,0.13727003,0.00016626,-0.00039867,0.00020347,-0.00199529,0.001915
 70,-0.00076009,-0.24663127,0.22085859,-0.16747212,0.55536176,0.0002753
 4,-0.00016811,-0.00080422,0.00100406,-0.00033865,0.00089483,0.20054151
 ,-0.19128823,0.16383091,-0.28622499,0.22032659,-0.00134733,0.00012338,
 0.00122306,0.00134159,-0.00036269,-0.00036266,-0.12065329,0.13572345,-
 0.14567626,-0.10753911,-0.10985468,0.40281264,0.00039897,-0.00008938,-
 0.00019632,-0.00051806,0.00033362,-0.00006777,-0.02008102,0.00043906,0
 .02654523,-0.30690146,0.08440407,0.22819814,0.32710157,-0.00032962,0.0
 0020862,0.00022130,0.00069444,-0.00047532,0.00011449,0.02087320,-0.003
 90067,-0.02026486,0.06384936,-0.02853159,-0.02562946,-0.08508738,0.032
 69896,0.00035601,-0.00010958,-0.00013170,-0.00089895,0.00061198,-0.000
 17975,-0.02054563,0.00800590,0.00981264,0.27556785,-0.05406684,-0.2579
 9678,-0.25447928,0.04555854,0.24849559||0.00000180,-0.00000750,0.00001
 332,-0.00000725,-0.00000516,0.00002265,-0.00001733,0.00000181,0.000016
 76,-0.00000156,0.00002349,-0.00004572,0.00002434,-0.00001264,-0.000007
 01|||@


 I WANT IT ALL - RICH, THIN, AND CHOCOLATE.
 Job cpu time:  0 days  0 hours  0 minutes 12.0 seconds.
 File lengths (MBytes):  RWF=      6 Int=      0 D2E=      0 Chk=      1 Scr=      1
 Normal termination of Gaussian 09 at Tue Feb 09 14:04:14 2021.
