 Entering Link 1 = C:\G09W\l1.exe PID=     13660.
  
 Copyright (c) 1988,1990,1992,1993,1995,1998,2003,2009, Gaussian, Inc.
                  All Rights Reserved.
  
 This is part of the Gaussian(R) 09 program.  It is based on
 the Gaussian(R) 03 system (copyright 2003, Gaussian, Inc.),
 the Gaussian(R) 98 system (copyright 1998, Gaussian, Inc.),
 the Gaussian(R) 94 system (copyright 1995, Gaussian, Inc.),
 the Gaussian 92(TM) system (copyright 1992, Gaussian, Inc.),
 the Gaussian 90(TM) system (copyright 1990, Gaussian, Inc.),
 the Gaussian 88(TM) system (copyright 1988, Gaussian, Inc.),
 the Gaussian 86(TM) system (copyright 1986, Carnegie Mellon
 University), and the Gaussian 82(TM) system (copyright 1983,
 Carnegie Mellon University). Gaussian is a federally registered
 trademark of Gaussian, Inc.
  
 This software contains proprietary and confidential information,
 including trade secrets, belonging to Gaussian, Inc.
  
 This software is provided under written license and may be
 used, copied, transmitted, or stored only in accord with that
 written license.
  
 The following legend is applicable only to US Government
 contracts under FAR:
  
                    RESTRICTED RIGHTS LEGEND
  
 Use, reproduction and disclosure by the US Government is
 subject to restrictions as set forth in subparagraphs (a)
 and (c) of the Commercial Computer Software - Restricted
 Rights clause in FAR 52.227-19.
  
 Gaussian, Inc.
 340 Quinnipiac St., Bldg. 40, Wallingford CT 06492
  
  
 ---------------------------------------------------------------
 Warning -- This program may not be used in any manner that
 competes with the business of Gaussian, Inc. or will provide
 assistance to any competitor of Gaussian, Inc.  The licensee
 of this program is prohibited from giving any competitor of
 Gaussian, Inc. access to this program.  By using this program,
 the user acknowledges that Gaussian, Inc. is engaged in the
 business of creating and licensing software in the field of
 computational chemistry and represents and warrants to the
 licensee that it is not a competitor of Gaussian, Inc. and that
 it will not use this program in any manner prohibited above.
 ---------------------------------------------------------------
  

 Cite this work as:
 Gaussian 09, Revision A.02,
 M. J. Frisch, G. W. Trucks, H. B. Schlegel, G. E. Scuseria, 
 M. A. Robb, J. R. Cheeseman, G. Scalmani, V. Barone, B. Mennucci, 
 G. A. Petersson, H. Nakatsuji, M. Caricato, X. Li, H. P. Hratchian, 
 A. F. Izmaylov, J. Bloino, G. Zheng, J. L. Sonnenberg, M. Hada, 
 M. Ehara, K. Toyota, R. Fukuda, J. Hasegawa, M. Ishida, T. Nakajima, 
 Y. Honda, O. Kitao, H. Nakai, T. Vreven, J. A. Montgomery, Jr., 
 J. E. Peralta, F. Ogliaro, M. Bearpark, J. J. Heyd, E. Brothers, 
 K. N. Kudin, V. N. Staroverov, R. Kobayashi, J. Normand, 
 K. Raghavachari, A. Rendell, J. C. Burant, S. S. Iyengar, J. Tomasi, 
 M. Cossi, N. Rega, J. M. Millam, M. Klene, J. E. Knox, J. B. Cross, 
 V. Bakken, C. Adamo, J. Jaramillo, R. Gomperts, R. E. Stratmann, 
 O. Yazyev, A. J. Austin, R. Cammi, C. Pomelli, J. W. Ochterski, 
 R. L. Martin, K. Morokuma, V. G. Zakrzewski, G. A. Voth, 
 P. Salvador, J. J. Dannenberg, S. Dapprich, A. D. Daniels, 
 O. Farkas, J. B. Foresman, J. V. Ortiz, J. Cioslowski, 
 and D. J. Fox, Gaussian, Inc., Wallingford CT, 2009.
 
 ******************************************
 Gaussian 09:  IA32W-G09RevA.02 11-Jun-2009
                09-Oct-2020 
 ******************************************
 %chk=C:\Users\sagad\Documents\rayGit\FQ\quimicaComputacional\class4Metilo\produc
 tos\methylRadicalM062XTwo.chk
 %nprocshared=4
 Will use up to    4 processors via shared memory.
 %mem=1500MB
 -----------------------------
 #opt freq M062X/6-311++g(d,p)
 -----------------------------
 1/14=-1,18=20,19=15,26=3,38=1/1,3;
 2/9=110,12=2,17=6,18=5,40=1/2;
 3/5=4,6=6,7=1111,11=2,16=1,25=1,30=1,71=1,74=-55/1,2,3;
 4//1;
 5/5=2,38=5/2;
 6/7=2,8=2,9=2,10=2,28=1/1;
 7//1,2,3,16;
 1/14=-1,18=20,19=15/3(2);
 2/9=110/2;
 99//99;
 2/9=110/2;
 3/5=4,6=6,7=1111,11=2,16=1,25=1,30=1,71=1,74=-55/1,2,3;
 4/5=5,16=3/1;
 5/5=2,38=5/2;
 7//1,2,3,16;
 1/14=-1,18=20,19=15/3(-5);
 2/9=110/2;
 6/7=2,8=2,9=2,10=2,19=2,28=1/1;
 99/9=1/99;
 -----------------------------------------------------------
 Calculation of methyl radical with M062X with 6-311++g(d,p)
 -----------------------------------------------------------
 Symbolic Z-matrix:
 Charge =  0 Multiplicity = 2
 C                    -2.25517  -0.05327  -0.87365 
 H                    -1.89851  -1.06208  -0.87365 
 H                    -1.8985    0.45113   0. 
 H                    -1.8985    0.45113  -1.7473 
 

 GradGradGradGradGradGradGradGradGradGradGradGradGradGradGradGradGradGrad
 Berny optimization.
 Initialization pass.
                           ----------------------------
                           !    Initial Parameters    !
                           ! (Angstroms and Degrees)  !
 --------------------------                            --------------------------
 ! Name  Definition              Value          Derivative Info.                !
 --------------------------------------------------------------------------------
 ! R1    R(1,2)                  1.07           estimate D2E/DX2                !
 ! R2    R(1,3)                  1.07           estimate D2E/DX2                !
 ! R3    R(1,4)                  1.07           estimate D2E/DX2                !
 ! A1    A(2,1,3)              109.4712         estimate D2E/DX2                !
 ! A2    A(2,1,4)              109.4712         estimate D2E/DX2                !
 ! A3    A(3,1,4)              109.4713         estimate D2E/DX2                !
 ! D1    D(2,1,4,3)           -120.0            estimate D2E/DX2                !
 --------------------------------------------------------------------------------
 Trust Radius=3.00D-01 FncErr=1.00D-07 GrdErr=1.00D-06
 Number of steps in this run=  20 maximum allowed number of steps= 100.
 GradGradGradGradGradGradGradGradGradGradGradGradGradGradGradGradGradGrad

                          Input orientation:                          
 ---------------------------------------------------------------------
 Center     Atomic      Atomic             Coordinates (Angstroms)
 Number     Number       Type             X           Y           Z
 ---------------------------------------------------------------------
      1          6           0       -2.255169   -0.053270   -0.873652
      2          1           0       -1.898515   -1.062080   -0.873652
      3          1           0       -1.898496    0.451128    0.000000
      4          1           0       -1.898496    0.451128   -1.747303
 ---------------------------------------------------------------------
                    Distance matrix (angstroms):
                    1          2          3          4
     1  C    0.000000
     2  H    1.070000   0.000000
     3  H    1.070000   1.747302   0.000000
     4  H    1.070000   1.747302   1.747303   0.000000
 Stoichiometry    CH3(2)
 Framework group  C3V[C3(C),3SGV(H)]
 Deg. of freedom     2
 Full point group                 C3V     NOp   6
 Largest Abelian subgroup         CS      NOp   2
 Largest concise Abelian subgroup CS      NOp   2
                         Standard orientation:                         
 ---------------------------------------------------------------------
 Center     Atomic      Atomic             Coordinates (Angstroms)
 Number     Number       Type             X           Y           Z
 ---------------------------------------------------------------------
      1          6           0        0.000000    0.000000    0.118889
      2          1           0        0.000000    1.008806   -0.237778
      3          1           0       -0.873651   -0.504403   -0.237778
      4          1           0        0.873651   -0.504403   -0.237778
 ---------------------------------------------------------------------
 Rotational constants (GHZ):    273.8152949    273.8152949    164.2463825
 Standard basis: 6-311++G(d,p) (5D, 7F)
 There are    29 symmetry adapted basis functions of A'  symmetry.
 There are    14 symmetry adapted basis functions of A"  symmetry.
 Integral buffers will be    262144 words long.
 Raffenetti 2 integral format.
 Two-electron integral symmetry is turned on.
    43 basis functions,    63 primitive gaussians,    44 cartesian basis functions
     5 alpha electrons        4 beta electrons
       nuclear repulsion energy         9.8106085219 Hartrees.
 NAtoms=    4 NActive=    4 NUniq=    2 SFac= 3.00D+00 NAtFMM=   80 NAOKFM=F Big=F
 One-electron integrals computed using PRISM.
 NBasis=    43 RedAO= T  NBF=    29    14
 NBsUse=    43 1.00D-06 NBFU=    29    14
 Harris functional with IExCor= 1009 diagonalized for initial guess.
 ExpMin= 3.60D-02 ExpMax= 4.56D+03 ExpMxC= 6.82D+02 IAcc=3 IRadAn=         0 AccDes= 0.00D+00
 HarFok:  IExCor= 1009 AccDes= 0.00D+00 IRadAn=         0 IDoV= 1
 ScaDFX=  1.000000  1.000000  1.000000  1.000000
 FoFCou: FMM=F IPFlag=           0 FMFlag=      100000 FMFlg1=           0
         NFxFlg=           0 DoJE=T BraDBF=F KetDBF=T FulRan=T
         Omega=  0.000000  0.000000  1.000000  0.000000  0.000000 ICntrl=     500 IOpCl=  0
         NMat0=    1 NMatS0=    1 NMatT0=    0 NMatD0=    1 NMtDS0=    0 NMtDT0=    0
         I1Cent=           4 NGrid=           0.
 Petite list used in FoFCou.
 Initial guess orbital symmetries:
 Alpha Orbitals:
       Occupied  (A1) (A1) (E) (E) (A1)
       Virtual   (A1) (E) (E) (A1) (E) (E) (A1) (E) (E) (A1) (E)
                 (E) (A1) (A1) (E) (E) (A1) (E) (E) (A1) (A2) (E)
                 (E) (E) (E) (A1) (E) (E) (A1) (E) (E) (E) (E)
                 (A1) (A1) (E) (E) (A1)
 Beta  Orbitals:
       Occupied  (A1) (A1) (E) (E)
       Virtual   (A1) (A1) (E) (E) (A1) (E) (E) (A1) (E) (E) (A1)
                 (E) (E) (A1) (A1) (E) (E) (A1) (E) (E) (A1) (A2)
                 (E) (E) (E) (E) (A1) (E) (E) (A1) (E) (E) (E)
                 (E) (A1) (A1) (E) (E) (A1)
 The electronic state of the initial guess is 2-A1.
 Initial guess <Sx>= 0.0000 <Sy>= 0.0000 <Sz>= 0.5000 <S**2>= 0.7500 S= 0.5000
 Requested convergence on RMS density matrix=1.00D-08 within 128 cycles.
 Requested convergence on MAX density matrix=1.00D-06.
 Requested convergence on             energy=1.00D-06.
 No special actions if energy rises.
 Keep R1 and R2 ints in memory in canonical form, NReq=1899870.
 SCF Done:  E(UM062X) =  -39.8104209314     A.U. after   10 cycles
             Convg  =    0.2801D-08             -V/T =  2.0026
 <Sx>= 0.0000 <Sy>= 0.0000 <Sz>= 0.5000 <S**2>= 0.7536 S= 0.5018
 <L.S>= 0.000000000000E+00
 Annihilation of the first spin contaminant:
 S**2 before annihilation     0.7536,   after     0.7500

 **********************************************************************

            Population analysis using the SCF density.

 **********************************************************************

 Orbital symmetries:
 Alpha Orbitals:
       Occupied  (A1) (A1) (E) (E) (A1)
       Virtual   (A1) (E) (E) (A1) (E) (E) (A1) (E) (E) (A1) (E)
                 (E) (A1) (A1) (E) (E) (A1) (E) (E) (A1) (A2) (E)
                 (E) (E) (E) (A1) (E) (E) (A1) (E) (E) (E) (E)
                 (A1) (A1) (E) (E) (A1)
 Beta  Orbitals:
       Occupied  (A1) (A1) (E) (E)
       Virtual   (A1) (A1) (E) (E) (E) (E) (A1) (A1) (E) (E) (A1)
                 (E) (E) (A1) (A1) (E) (E) (A1) (E) (E) (A1) (A2)
                 (E) (E) (E) (E) (A1) (E) (E) (A1) (E) (E) (E)
                 (E) (A1) (A1) (E) (E) (A1)
 The electronic state is 2-A1.
 Alpha  occ. eigenvalues --  -10.54670  -0.78929  -0.47918  -0.47918  -0.32205
 Alpha virt. eigenvalues --    0.00365   0.03735   0.03735   0.08254   0.10755
 Alpha virt. eigenvalues --    0.10755   0.15202   0.22551   0.22551   0.22799
 Alpha virt. eigenvalues --    0.44984   0.44984   0.54430   0.64902   0.70566
 Alpha virt. eigenvalues --    0.70566   0.81224   1.05902   1.05902   1.37844
 Alpha virt. eigenvalues --    1.50988   1.57199   1.57199   1.72318   1.72318
 Alpha virt. eigenvalues --    1.99466   2.20134   2.20134   2.43143   2.47982
 Alpha virt. eigenvalues --    2.47982   2.60880   2.60880   2.75665   2.94215
 Alpha virt. eigenvalues --    3.80480   3.80480  24.03109
  Beta  occ. eigenvalues --  -10.53776  -0.74770  -0.46390  -0.46390
  Beta virt. eigenvalues --   -0.06231   0.00885   0.04291   0.04291   0.10357
  Beta virt. eigenvalues --    0.10357   0.10944   0.12987   0.23326   0.23326
  Beta virt. eigenvalues --    0.23571   0.44967   0.44967   0.56279   0.65633
  Beta virt. eigenvalues --    0.71850   0.71850   0.82296   1.08837   1.08837
  Beta virt. eigenvalues --    1.43232   1.51591   1.58001   1.58001   1.74464
  Beta virt. eigenvalues --    1.74464   2.01499   2.21973   2.21973   2.44858
  Beta virt. eigenvalues --    2.48383   2.48383   2.63204   2.63204   2.77827
  Beta virt. eigenvalues --    2.97554   3.82494   3.82494  24.04417
          Condensed to atoms (all electrons):
              1          2          3          4
     1  C    5.230376   0.398269   0.398269   0.398269
     2  H    0.398269   0.548664  -0.044331  -0.044331
     3  H    0.398269  -0.044331   0.548664  -0.044331
     4  H    0.398269  -0.044331  -0.044331   0.548664
 Mulliken atomic charges:
              1
     1  C   -0.425184
     2  H    0.141728
     3  H    0.141728
     4  H    0.141728
 Sum of Mulliken atomic charges =   0.00000
 Mulliken charges with hydrogens summed into heavy atoms:
              1
     1  C    0.000000
 Sum of Mulliken charges with hydrogens summed into heavy atoms =   0.00000
          Atomic-Atomic Spin Densities.
              1          2          3          4
     1  C    1.117524  -0.005340  -0.005340  -0.005340
     2  H   -0.005340  -0.032009   0.001757   0.001757
     3  H   -0.005340   0.001757  -0.032009   0.001757
     4  H   -0.005340   0.001757   0.001757  -0.032009
 Mulliken atomic spin densities:
              1
     1  C    1.101504
     2  H   -0.033835
     3  H   -0.033835
     4  H   -0.033835
 Sum of Mulliken atomic spin densities =   1.00000
 Electronic spatial extent (au):  <R**2>=             29.5595
 Charge=              0.0000 electrons
 Dipole moment (field-independent basis, Debye):
    X=              0.0000    Y=              0.0000    Z=             -0.6751  Tot=              0.6751
 Quadrupole moment (field-independent basis, Debye-Ang):
   XX=             -7.6059   YY=             -7.6059   ZZ=             -8.6602
   XY=              0.0000   XZ=              0.0000   YZ=              0.0000
 Traceless Quadrupole moment (field-independent basis, Debye-Ang):
   XX=              0.3514   YY=              0.3514   ZZ=             -0.7028
   XY=              0.0000   XZ=              0.0000   YZ=              0.0000
 Octapole moment (field-independent basis, Debye-Ang**2):
  XXX=              0.0000  YYY=              0.6126  ZZZ=             -1.1747  XYY=              0.0000
  XXY=             -0.6126  XXZ=             -0.7303  XZZ=              0.0000  YZZ=              0.0000
  YYZ=             -0.7303  XYZ=              0.0000
 Hexadecapole moment (field-independent basis, Debye-Ang**3):
 XXXX=            -15.0789 YYYY=            -15.0789 ZZZZ=            -12.3438 XXXY=              0.0000
 XXXZ=              0.0000 YYYX=              0.0000 YYYZ=             -0.2987 ZZZX=              0.0000
 ZZZY=              0.0000 XXYY=             -5.0263 XXZZ=             -4.6596 YYZZ=             -4.6596
 XXYZ=              0.2987 YYXZ=              0.0000 ZZXY=              0.0000
 N-N= 9.810608521898D+00 E-N=-1.643417188553D+02  KE= 5.891446946127D+01
 Symmetry A'   KE= 5.592906175019D+01
 Symmetry A"   KE= 2.985407711075D+00
                          Isotropic Fermi Contact Couplings
        Atom                 a.u.       MegaHertz       Gauss      10(-4) cm-1
     1  C(13)              0.40336     453.45857     161.80529     151.25750
     2  H(1)              -0.00688     -30.76839     -10.97893     -10.26323
     3  H(1)              -0.00688     -30.76839     -10.97893     -10.26323
     4  H(1)              -0.00688     -30.76839     -10.97893     -10.26323
 --------------------------------------------------------
       Center         ----  Spin Dipole Couplings  ----
                      3XX-RR        3YY-RR        3ZZ-RR
 --------------------------------------------------------
     1   Atom       -0.492913     -0.492913      0.985826
     2   Atom       -0.066711      0.063239      0.003472
     3   Atom        0.030752     -0.034223      0.003472
     4   Atom        0.030752     -0.034223      0.003472
 --------------------------------------------------------
                        XY            XZ            YZ
 --------------------------------------------------------
     1   Atom        0.000000      0.000000      0.000000
     2   Atom        0.000000      0.000000     -0.034572
     3   Atom        0.056270      0.029940      0.017286
     4   Atom       -0.056270     -0.029940      0.017286
 --------------------------------------------------------


 ---------------------------------------------------------------------------------
              Anisotropic Spin Dipole Couplings in Principal Axis System
 ---------------------------------------------------------------------------------

       Atom             a.u.   MegaHertz   Gauss  10(-4) cm-1        Axes

              Baa    -0.4929   -66.144   -23.602   -22.063  0.7193  0.6947  0.0000
     1 C(13)  Bbb    -0.4929   -66.144   -23.602   -22.063 -0.6947  0.7193  0.0000
              Bcc     0.9858   132.288    47.204    44.127  0.0000  0.0000  1.0000
 
              Baa    -0.0667   -35.594   -12.701   -11.873  1.0000  0.0000  0.0000
     2 H(1)   Bbb    -0.0123    -6.585    -2.350    -2.197  0.0000  0.4160  0.9094
              Bcc     0.0791    42.179    15.050    14.069  0.0000  0.9094 -0.4160
 
              Baa    -0.0667   -35.594   -12.701   -11.873 -0.5000  0.8660  0.0000
     3 H(1)   Bbb    -0.0123    -6.585    -2.350    -2.197 -0.3602 -0.2080  0.9094
              Bcc     0.0791    42.179    15.050    14.069  0.7875  0.4547  0.4160
 
              Baa    -0.0667   -35.594   -12.701   -11.873  0.5000  0.8660  0.0000
     4 H(1)   Bbb    -0.0123    -6.585    -2.350    -2.197  0.3602 -0.2080  0.9094
              Bcc     0.0791    42.179    15.050    14.069  0.7875 -0.4547 -0.4160
 

 ---------------------------------------------------------------------------------

 Calling FoFJK, ICntrl=      2127 FMM=F ISym2X=1 I1Cent= 0 IOpClX= 1 NMat=1 NMatS=1 NMatT=0.
 ***** Axes restored to original set *****
 -------------------------------------------------------------------
 Center     Atomic                   Forces (Hartrees/Bohr)
 Number     Number              X              Y              Z
 -------------------------------------------------------------------
      1        6           0.029087325   -0.000000351    0.000000000
      2        1          -0.009695982   -0.017144302   -0.000000002
      3        1          -0.009695672    0.008572325    0.014847503
      4        1          -0.009695672    0.008572328   -0.014847501
 -------------------------------------------------------------------
 Cartesian Forces:  Max     0.029087325 RMS     0.012941825

 GradGradGradGradGradGradGradGradGradGradGradGradGradGradGradGradGradGrad
 Berny optimization.
 Internal  Forces:  Max     0.022640127 RMS     0.014846247
 Search for a local minimum.
 Step number   1 out of a maximum of   20
 All quantities printed in internal units (Hartrees-Bohrs-Radians)
 Mixed Optimization -- RFO/linear search
 Second derivative matrix not updated -- first step.
 The second derivative matrix:
                          R1        R2        R3        A1        A2
           R1           0.37230
           R2           0.00000   0.37230
           R3           0.00000   0.00000   0.37230
           A1           0.00000   0.00000   0.00000   0.16000
           A2           0.00000   0.00000   0.00000   0.00000   0.16000
           A3           0.00000   0.00000   0.00000   0.00000   0.00000
           D1           0.00000   0.00000   0.00000   0.00000   0.00000
                          A3        D1
           A3           0.16000
           D1           0.00000   0.00499
     Eigenvalues ---    0.05269   0.16000   0.16000   0.37230   0.37230
     Eigenvalues ---    0.372301000.00000
 RFO step:  Lambda=-1.41098910D-02 EMin= 5.26880928D-02
 Linear search not attempted -- first point.
 Maximum step size (   0.300) exceeded in Quadratic search.
    -- Step size scaled by   0.709
 Iteration  1 RMS(Cart)=  0.07516237 RMS(Int)=  0.01699084
 Iteration  2 RMS(Cart)=  0.00737429 RMS(Int)=  0.01054844
 Iteration  3 RMS(Cart)=  0.00022587 RMS(Int)=  0.01054524
 Iteration  4 RMS(Cart)=  0.00000441 RMS(Int)=  0.01054524
 Iteration  5 RMS(Cart)=  0.00000010 RMS(Int)=  0.01054524
 ClnCor:  largest displacement from symmetrization is 1.07D-02 for atom     4.
 Variable       Old X    -DE/DX   Delta X   Delta X   Delta X     New X
                                 (Linear)    (Quad)   (Total)
    R1        2.02201   0.01293   0.00000   0.02372   0.02049   2.04250
    R2        2.02201   0.01293   0.00000   0.02372   0.02049   2.04250
    R3        2.02201   0.01293   0.00000   0.02372   0.02049   2.04250
    A1        1.91063   0.00231   0.00000   0.08999   0.08568   1.99631
    A2        1.91063   0.01617   0.00000   0.10613   0.08568   1.99631
    A3        1.91063   0.01617   0.00000   0.10613   0.08568   1.99631
    D1       -2.09440  -0.02264   0.00000  -0.24019  -0.25596  -2.35036
         Item               Value     Threshold  Converged?
 Maximum Force            0.022640     0.000450     NO 
 RMS     Force            0.014846     0.000300     NO 
 Maximum Displacement     0.136747     0.001800     NO 
 RMS     Displacement     0.077440     0.001200     NO 
 Predicted change in Energy=-7.399813D-03
 GradGradGradGradGradGradGradGradGradGradGradGradGradGradGradGradGradGrad

                          Input orientation:                          
 ---------------------------------------------------------------------
 Center     Atomic      Atomic             Coordinates (Angstroms)
 Number     Number       Type             X           Y           Z
 ---------------------------------------------------------------------
      1          6           0       -2.182806   -0.053271   -0.873652
      2          1           0       -1.922202   -1.102228   -0.873652
      3          1           0       -1.922183    0.471202    0.034769
      4          1           0       -1.922183    0.471202   -1.782072
 ---------------------------------------------------------------------
                    Distance matrix (angstroms):
                    1          2          3          4
     1  C    0.000000
     2  H    1.080844   0.000000
     3  H    1.080844   1.816841   0.000000
     4  H    1.080844   1.816841   1.816841   0.000000
 Stoichiometry    CH3(2)
 Framework group  C3V[C3(C),3SGV(H)]
 Deg. of freedom     2
 Full point group                 C3V     NOp   6
 Largest Abelian subgroup         CS      NOp   2
 Largest concise Abelian subgroup CS      NOp   2
                         Standard orientation:                         
 ---------------------------------------------------------------------
 Center     Atomic      Atomic             Coordinates (Angstroms)
 Number     Number       Type             X           Y           Z
 ---------------------------------------------------------------------
      1          6           0        0.000000    0.000000    0.086872
      2          1           0        0.000000    1.048954   -0.173744
      3          1           0       -0.908420   -0.524477   -0.173744
      4          1           0        0.908420   -0.524477   -0.173744
 ---------------------------------------------------------------------
 Rotational constants (GHZ):    276.5564676    276.5564676    151.9141606
 Standard basis: 6-311++G(d,p) (5D, 7F)
 There are    29 symmetry adapted basis functions of A'  symmetry.
 There are    14 symmetry adapted basis functions of A"  symmetry.
 Integral buffers will be    262144 words long.
 Raffenetti 2 integral format.
 Two-electron integral symmetry is turned on.
    43 basis functions,    63 primitive gaussians,    44 cartesian basis functions
     5 alpha electrons        4 beta electrons
       nuclear repulsion energy         9.6865176232 Hartrees.
 NAtoms=    4 NActive=    4 NUniq=    2 SFac= 3.00D+00 NAtFMM=   80 NAOKFM=F Big=F
 One-electron integrals computed using PRISM.
 NBasis=    43 RedAO= T  NBF=    29    14
 NBsUse=    43 1.00D-06 NBFU=    29    14
 Initial guess read from the read-write file.
 B after Tr=     0.000000    0.000000    0.000000
         Rot=    1.000000    0.000000    0.000000    0.000000 Ang=   0.00 deg.
 Initial guess orbital symmetries:
 Alpha Orbitals:
       Occupied  (A1) (A1) (E) (E) (A1)
       Virtual   (A1) (E) (E) (A1) (E) (E) (A1) (E) (E) (A1) (E)
                 (E) (A1) (A1) (E) (E) (A1) (E) (E) (A1) (A2) (E)
                 (E) (E) (E) (A1) (E) (E) (A1) (E) (E) (E) (E)
                 (A1) (A1) (E) (E) (A1)
 Beta  Orbitals:
       Occupied  (A1) (A1) (E) (E)
       Virtual   (A1) (A1) (E) (E) (E) (E) (A1) (A1) (E) (E) (A1)
                 (E) (E) (A1) (A1) (E) (E) (A1) (E) (E) (A1) (A2)
                 (E) (E) (E) (E) (A1) (E) (E) (A1) (E) (E) (E)
                 (E) (A1) (A1) (E) (E) (A1)
 Initial guess <Sx>= 0.0000 <Sy>= 0.0000 <Sz>= 0.5000 <S**2>= 0.7538 S= 0.5019
 Harris functional with IExCor= 1009 diagonalized for initial guess.
 ExpMin= 3.60D-02 ExpMax= 4.56D+03 ExpMxC= 6.82D+02 IAcc=3 IRadAn=         0 AccDes= 0.00D+00
 HarFok:  IExCor= 1009 AccDes= 0.00D+00 IRadAn=         0 IDoV= 1
 ScaDFX=  1.000000  1.000000  1.000000  1.000000
 FoFCou: FMM=F IPFlag=           0 FMFlag=      100000 FMFlg1=           0
         NFxFlg=           0 DoJE=T BraDBF=F KetDBF=T FulRan=T
         Omega=  0.000000  0.000000  1.000000  0.000000  0.000000 ICntrl=     500 IOpCl=  0
         NMat0=    1 NMatS0=    1 NMatT0=    0 NMatD0=    1 NMtDS0=    0 NMtDT0=    0
         I1Cent=           4 NGrid=           0.
 Petite list used in FoFCou.
 Requested convergence on RMS density matrix=1.00D-08 within 128 cycles.
 Requested convergence on MAX density matrix=1.00D-06.
 Requested convergence on             energy=1.00D-06.
 No special actions if energy rises.
 Keep R1 and R2 ints in memory in canonical form, NReq=1899870.
 SCF Done:  E(UM062X) =  -39.8171818763     A.U. after   10 cycles
             Convg  =    0.2160D-08             -V/T =  2.0042
 <Sx>= 0.0000 <Sy>= 0.0000 <Sz>= 0.5000 <S**2>= 0.7540 S= 0.5020
 <L.S>= 0.000000000000E+00
 Annihilation of the first spin contaminant:
 S**2 before annihilation     0.7540,   after     0.7500
 Calling FoFJK, ICntrl=      2127 FMM=F ISym2X=1 I1Cent= 0 IOpClX= 1 NMat=1 NMatS=1 NMatT=0.
 ***** Axes restored to original set *****
 -------------------------------------------------------------------
 Center     Atomic                   Forces (Hartrees/Bohr)
 Number     Number              X              Y              Z
 -------------------------------------------------------------------
      1        6           0.019045934   -0.000000230    0.000000000
      2        1          -0.006348692   -0.003899271    0.000000000
      3        1          -0.006348621    0.001949750    0.003376934
      4        1          -0.006348621    0.001949750   -0.003376933
 -------------------------------------------------------------------
 Cartesian Forces:  Max     0.019045934 RMS     0.006641274

 GradGradGradGradGradGradGradGradGradGradGradGradGradGradGradGradGradGrad
 Berny optimization.
 Using GEDIIS/GDIIS optimizer.
 Internal  Forces:  Max     0.012180675 RMS     0.005686419
 Search for a local minimum.
 Step number   2 out of a maximum of   20
 All quantities printed in internal units (Hartrees-Bohrs-Radians)
 Mixed Optimization -- RFO/linear search
 Update second derivatives using D2CorX and points    1    2
 DE= -6.76D-03 DEPred=-7.40D-03 R= 9.14D-01
 SS=  1.41D+00  RLast= 2.98D-01 DXNew= 5.0454D-01 8.9397D-01
 Trust test= 9.14D-01 RLast= 2.98D-01 DXMaxT set to 5.05D-01
 The second derivative matrix:
                          R1        R2        R3        A1        A2
           R1           0.38017
           R2           0.00787   0.38017
           R3           0.00787   0.00787   0.38017
           A1          -0.01962  -0.01962  -0.01962   0.11748
           A2          -0.00308  -0.00308  -0.00308  -0.03896   0.13743
           A3          -0.00308  -0.00308  -0.00308  -0.03896  -0.02257
           D1          -0.01865  -0.01865  -0.01865  -0.00044  -0.01665
                          A3        D1
           A3           0.13743
           D1          -0.01665   0.02509
 Use linear search instead of GDIIS.
     Eigenvalues ---    0.04199   0.16000   0.17099   0.37230   0.37230
     Eigenvalues ---    0.398381000.00000
 RFO step:  Lambda=-9.90448675D-04 EMin= 4.19876908D-02
 Quartic linear search produced a step of  1.09200.
 Iteration  1 RMS(Cart)=  0.05788666 RMS(Int)=  0.05772795
 Iteration  2 RMS(Cart)=  0.02782244 RMS(Int)=  0.02693004
 Iteration  3 RMS(Cart)=  0.00187361 RMS(Int)=  0.02682884
 Iteration  4 RMS(Cart)=  0.00005802 RMS(Int)=  0.02682869
 Iteration  5 RMS(Cart)=  0.00000257 RMS(Int)=  0.02682869
 Iteration  6 RMS(Cart)=  0.00000011 RMS(Int)=  0.02682869
 ClnCor:  largest displacement from symmetrization is 1.51D-02 for atom     4.
 Variable       Old X    -DE/DX   Delta X   Delta X   Delta X     New X
                                 (Linear)    (Quad)   (Total)
    R1        2.04250   0.00225   0.02238  -0.02424   0.00290   2.04540
    R2        2.04250   0.00225   0.02238  -0.02424   0.00290   2.04540
    R3        2.04250   0.00225   0.02238  -0.02424   0.00290   2.04540
    A1        1.99631   0.00002   0.09356   0.04256   0.07189   2.06820
    A2        1.99631   0.00560   0.09356   0.00571   0.07189   2.06820
    A3        1.99631   0.00560   0.09356   0.00571   0.07189   2.06820
    D1       -2.35036  -0.01218  -0.27951  -0.07811  -0.36999  -2.72035
         Item               Value     Threshold  Converged?
 Maximum Force            0.012181     0.000450     NO 
 RMS     Force            0.005686     0.000300     NO 
 Maximum Displacement     0.179442     0.001800     NO 
 RMS     Displacement     0.084502     0.001200     NO 
 Predicted change in Energy=-2.174760D-03
 GradGradGradGradGradGradGradGradGradGradGradGradGradGradGradGradGradGrad

                          Input orientation:                          
 ---------------------------------------------------------------------
 Center     Atomic      Atomic             Coordinates (Angstroms)
 Number     Number       Type             X           Y           Z
 ---------------------------------------------------------------------
      1          6           0       -2.087849   -0.053272   -0.873652
      2          1           0       -1.954260   -1.127374   -0.873652
      3          1           0       -1.954241    0.483776    0.056547
      4          1           0       -1.954241    0.483776   -1.803850
 ---------------------------------------------------------------------
                    Distance matrix (angstroms):
                    1          2          3          4
     1  C    0.000000
     2  H    1.082377   0.000000
     3  H    1.082377   1.860396   0.000000
     4  H    1.082377   1.860396   1.860396   0.000000
 Stoichiometry    CH3(2)
 Framework group  C3V[C3(C),3SGV(H)]
 Deg. of freedom     2
 Full point group                 C3V     NOp   6
 Largest Abelian subgroup         CS      NOp   2
 Largest concise Abelian subgroup CS      NOp   2
                         Standard orientation:                         
 ---------------------------------------------------------------------
 Center     Atomic      Atomic             Coordinates (Angstroms)
 Number     Number       Type             X           Y           Z
 ---------------------------------------------------------------------
      1          6           0        0.000000    0.000000    0.044534
      2          1           0        0.000000    1.074100   -0.089068
      3          1           0       -0.930198   -0.537050   -0.089068
      4          1           0        0.930198   -0.537050   -0.089068
 ---------------------------------------------------------------------
 Rotational constants (GHZ):    282.7793313    282.7793313    144.8842145
 Standard basis: 6-311++G(d,p) (5D, 7F)
 There are    29 symmetry adapted basis functions of A'  symmetry.
 There are    14 symmetry adapted basis functions of A"  symmetry.
 Integral buffers will be    262144 words long.
 Raffenetti 2 integral format.
 Two-electron integral symmetry is turned on.
    43 basis functions,    63 primitive gaussians,    44 cartesian basis functions
     5 alpha electrons        4 beta electrons
       nuclear repulsion energy         9.6535775673 Hartrees.
 NAtoms=    4 NActive=    4 NUniq=    2 SFac= 3.00D+00 NAtFMM=   80 NAOKFM=F Big=F
 One-electron integrals computed using PRISM.
 NBasis=    43 RedAO= T  NBF=    29    14
 NBsUse=    43 1.00D-06 NBFU=    29    14
 Initial guess read from the read-write file.
 B after Tr=     0.000000    0.000000    0.000000
         Rot=    1.000000    0.000000    0.000000    0.000000 Ang=   0.00 deg.
 Initial guess orbital symmetries:
 Alpha Orbitals:
       Occupied  (A1) (A1) (E) (E) (A1)
       Virtual   (A1) (E) (E) (A1) (E) (E) (A1) (A1) (E) (E) (E)
                 (E) (A1) (A1) (E) (E) (A1) (E) (E) (A1) (A2) (E)
                 (E) (E) (E) (A1) (E) (E) (A1) (E) (E) (E) (E)
                 (A1) (A1) (E) (E) (A1)
 Beta  Orbitals:
       Occupied  (A1) (A1) (E) (E)
       Virtual   (A1) (A1) (E) (E) (E) (E) (A1) (A1) (A1) (E) (E)
                 (E) (E) (A1) (A1) (E) (E) (A1) (E) (E) (A2) (A1)
                 (E) (E) (E) (E) (A1) (E) (E) (A1) (E) (E) (E)
                 (E) (A1) (A1) (E) (E) (A1)
 Initial guess <Sx>= 0.0000 <Sy>= 0.0000 <Sz>= 0.5000 <S**2>= 0.7542 S= 0.5021
 Harris functional with IExCor= 1009 diagonalized for initial guess.
 ExpMin= 3.60D-02 ExpMax= 4.56D+03 ExpMxC= 6.82D+02 IAcc=3 IRadAn=         0 AccDes= 0.00D+00
 HarFok:  IExCor= 1009 AccDes= 0.00D+00 IRadAn=         0 IDoV= 1
 ScaDFX=  1.000000  1.000000  1.000000  1.000000
 FoFCou: FMM=F IPFlag=           0 FMFlag=      100000 FMFlg1=           0
         NFxFlg=           0 DoJE=T BraDBF=F KetDBF=T FulRan=T
         Omega=  0.000000  0.000000  1.000000  0.000000  0.000000 ICntrl=     500 IOpCl=  0
         NMat0=    1 NMatS0=    1 NMatT0=    0 NMatD0=    1 NMtDS0=    0 NMtDT0=    0
         I1Cent=           4 NGrid=           0.
 Petite list used in FoFCou.
 Requested convergence on RMS density matrix=1.00D-08 within 128 cycles.
 Requested convergence on MAX density matrix=1.00D-06.
 Requested convergence on             energy=1.00D-06.
 No special actions if energy rises.
 Keep R1 and R2 ints in memory in canonical form, NReq=1899870.
 SCF Done:  E(UM062X) =  -39.8202630389     A.U. after   11 cycles
             Convg  =    0.2181D-08             -V/T =  2.0047
 <Sx>= 0.0000 <Sy>= 0.0000 <Sz>= 0.5000 <S**2>= 0.7545 S= 0.5022
 <L.S>= 0.000000000000E+00
 Annihilation of the first spin contaminant:
 S**2 before annihilation     0.7545,   after     0.7500
 Calling FoFJK, ICntrl=      2127 FMM=F ISym2X=1 I1Cent= 0 IOpClX= 1 NMat=1 NMatS=1 NMatT=0.
 ***** Axes restored to original set *****
 -------------------------------------------------------------------
 Center     Atomic                   Forces (Hartrees/Bohr)
 Number     Number              X              Y              Z
 -------------------------------------------------------------------
      1        6           0.006411668   -0.000000077    0.000000000
      2        1          -0.002137209    0.001151773    0.000000000
      3        1          -0.002137230   -0.000575848   -0.000997442
      4        1          -0.002137230   -0.000575848    0.000997442
 -------------------------------------------------------------------
 Cartesian Forces:  Max     0.006411668 RMS     0.002213448

 GradGradGradGradGradGradGradGradGradGradGradGradGradGradGradGradGradGrad
 Berny optimization.
 Using GEDIIS/GDIIS optimizer.
 Internal  Forces:  Max     0.003516088 RMS     0.001666294
 Search for a local minimum.
 Step number   3 out of a maximum of   20
 All quantities printed in internal units (Hartrees-Bohrs-Radians)
 Mixed Optimization -- RFO/linear search
 Update second derivatives using D2CorX and points    2    3
 DE= -3.08D-03 DEPred=-2.17D-03 R= 1.42D+00
 SS=  1.41D+00  RLast= 3.90D-01 DXNew= 8.4853D-01 1.1712D+00
 Trust test= 1.42D+00 RLast= 3.90D-01 DXMaxT set to 8.49D-01
 The second derivative matrix:
                          R1        R2        R3        A1        A2
           R1           0.37749
           R2           0.00519   0.37749
           R3           0.00519   0.00519   0.37749
           A1          -0.02229  -0.02229  -0.02229   0.11621
           A2          -0.00994  -0.00994  -0.00994  -0.04401   0.12213
           A3          -0.00994  -0.00994  -0.00994  -0.04401  -0.03787
           D1          -0.01505  -0.01505  -0.01505   0.00463  -0.00552
                          A3        D1
           A3           0.12213
           D1          -0.00552   0.02182
 Use linear search instead of GDIIS.
     Eigenvalues ---    0.02275   0.16000   0.16377   0.37230   0.37230
     Eigenvalues ---    0.389731000.00000
 RFO step:  Lambda=-3.95059651D-04 EMin= 2.27468706D-02
 Quartic linear search produced a step of  1.20711.
 Iteration  1 RMS(Cart)=  0.04544042 RMS(Int)=  0.11142263
 Iteration  2 RMS(Cart)=  0.04117909 RMS(Int)=  0.04827686
 Iteration  3 RMS(Cart)=  0.01112136 RMS(Int)=  0.04371113
 Iteration  4 RMS(Cart)=  0.00066907 RMS(Int)=  0.04369369
 Iteration  5 RMS(Cart)=  0.00003902 RMS(Int)=  0.04369363
 Iteration  6 RMS(Cart)=  0.00000232 RMS(Int)=  0.04369363
 Iteration  7 RMS(Cart)=  0.00000014 RMS(Int)=  0.04369363
 ClnCor:  largest displacement from symmetrization is 1.36D-02 for atom     4.
 Variable       Old X    -DE/DX   Delta X   Delta X   Delta X     New X
                                 (Linear)    (Quad)   (Total)
    R1        2.04540  -0.00141   0.00350  -0.01544  -0.00751   2.03788
    R2        2.04540  -0.00141   0.00350  -0.01544  -0.00751   2.03788
    R3        2.04540  -0.00141   0.00350  -0.01544  -0.00751   2.03788
    A1        2.06820  -0.00011   0.08678   0.02601   0.02548   2.09368
    A2        2.06820   0.00075   0.08678  -0.00488   0.02548   2.09368
    A3        2.06820   0.00075   0.08678  -0.00488   0.02548   2.09368
    D1       -2.72035  -0.00352  -0.44662  -0.04760  -0.49169   3.07115
         Item               Value     Threshold  Converged?
 Maximum Force            0.003516     0.000450     NO 
 RMS     Force            0.001666     0.000300     NO 
 Maximum Displacement     0.220050     0.001800     NO 
 RMS     Displacement     0.096343     0.001200     NO 
 Predicted change in Energy=-8.471429D-04
 GradGradGradGradGradGradGradGradGradGradGradGradGradGradGradGradGradGrad

                          Input orientation:                          
 ---------------------------------------------------------------------
 Center     Atomic      Atomic             Coordinates (Angstroms)
 Number     Number       Type             X           Y           Z
 ---------------------------------------------------------------------
      1          6           0       -1.971403   -0.053274   -0.873652
      2          1           0       -1.993355   -1.131451   -0.873652
      3          1           0       -1.993336    0.485815    0.060078
      4          1           0       -1.993336    0.485815   -1.807381
 ---------------------------------------------------------------------
                    Distance matrix (angstroms):
                    1          2          3          4
     1  C    0.000000
     2  H    1.078401   0.000000
     3  H    1.078401   1.867458   0.000000
     4  H    1.078401   1.867458   1.867458   0.000000
 Stoichiometry    CH3(2)
 Framework group  C3V[C3(C),3SGV(H)]
 Deg. of freedom     2
 Full point group                 C3V     NOp   6
 Largest Abelian subgroup         CS      NOp   2
 Largest concise Abelian subgroup CS      NOp   2
                         Standard orientation:                         
 ---------------------------------------------------------------------
 Center     Atomic      Atomic             Coordinates (Angstroms)
 Number     Number       Type             X           Y           Z
 ---------------------------------------------------------------------
      1          6           0        0.000000    0.000000    0.007313
      2          1           0        0.000000    1.078177   -0.014626
      3          1           0        0.933729   -0.539089   -0.014626
      4          1           0       -0.933729   -0.539089   -0.014626
 ---------------------------------------------------------------------
 Rotational constants (GHZ):    287.3909586    287.3909586    143.7905251
 Standard basis: 6-311++G(d,p) (5D, 7F)
 There are    29 symmetry adapted basis functions of A'  symmetry.
 There are    14 symmetry adapted basis functions of A"  symmetry.
 Integral buffers will be    262144 words long.
 Raffenetti 2 integral format.
 Two-electron integral symmetry is turned on.
    43 basis functions,    63 primitive gaussians,    44 cartesian basis functions
     5 alpha electrons        4 beta electrons
       nuclear repulsion energy         9.6828029230 Hartrees.
 NAtoms=    4 NActive=    4 NUniq=    2 SFac= 3.00D+00 NAtFMM=   80 NAOKFM=F Big=F
 One-electron integrals computed using PRISM.
 NBasis=    43 RedAO= T  NBF=    29    14
 NBsUse=    43 1.00D-06 NBFU=    29    14
 Initial guess read from the read-write file.
 B after Tr=     0.000000    0.000000    0.000000
         Rot=    1.000000    0.000000    0.000000    0.000000 Ang=   0.00 deg.
 Initial guess orbital symmetries:
 Alpha Orbitals:
       Occupied  (A1) (?A) (?A) (?A) (A1)
       Virtual   (?A) (?A) (?A) (?A) (?A) (?A) (?A) (?A) (?A) (?A)
                 (?A) (?A) (?A) (?A) (?A) (?A) (?A) (?A) (?A) (?A)
                 (?A) (?A) (?A) (?A) (?A) (?A) (?A) (?A) (?A) (?A)
                 (?A) (?A) (?A) (?A) (?A) (?A) (?A) (?A)
 Beta  Orbitals:
       Occupied  (A1) (?A) (?A) (?A)
       Virtual   (?A) (?A) (?A) (?A) (?A) (?A) (?A) (?A) (?A) (?A)
                 (?A) (?A) (?A) (?A) (?A) (?A) (?A) (?A) (?A) (?A)
                 (?A) (?A) (?A) (?A) (?A) (?A) (?A) (?A) (?A) (?A)
                 (?A) (?A) (?A) (?A) (?A) (?A) (?A) (?A) (?A)
 Initial guess <Sx>= 0.0000 <Sy>= 0.0000 <Sz>= 0.5000 <S**2>= 0.7721 S= 0.5110
 Harris functional with IExCor= 1009 diagonalized for initial guess.
 ExpMin= 3.60D-02 ExpMax= 4.56D+03 ExpMxC= 6.82D+02 IAcc=3 IRadAn=         0 AccDes= 0.00D+00
 HarFok:  IExCor= 1009 AccDes= 0.00D+00 IRadAn=         0 IDoV= 1
 ScaDFX=  1.000000  1.000000  1.000000  1.000000
 FoFCou: FMM=F IPFlag=           0 FMFlag=      100000 FMFlg1=           0
         NFxFlg=           0 DoJE=T BraDBF=F KetDBF=T FulRan=T
         Omega=  0.000000  0.000000  1.000000  0.000000  0.000000 ICntrl=     500 IOpCl=  0
         NMat0=    1 NMatS0=    1 NMatT0=    0 NMatD0=    1 NMtDS0=    0 NMtDT0=    0
         I1Cent=           4 NGrid=           0.
 Petite list used in FoFCou.
 Requested convergence on RMS density matrix=1.00D-08 within 128 cycles.
 Requested convergence on MAX density matrix=1.00D-06.
 Requested convergence on             energy=1.00D-06.
 No special actions if energy rises.
 Keep R1 and R2 ints in memory in canonical form, NReq=1899870.
 Density matrix breaks symmetry, PCut= 1.00D-04
 Density has only Abelian symmetry.
 Density matrix breaks symmetry, PCut= 1.00D-04
 Density has only Abelian symmetry.
 Density matrix breaks symmetry, PCut= 1.00D-04
 Density has only Abelian symmetry.
 SCF Done:  E(UM062X) =  -39.8208967572     A.U. after   12 cycles
             Convg  =    0.8401D-09             -V/T =  2.0045
 <Sx>= 0.0000 <Sy>= 0.0000 <Sz>= 0.5000 <S**2>= 0.7546 S= 0.5023
 <L.S>= 0.000000000000E+00
 Annihilation of the first spin contaminant:
 S**2 before annihilation     0.7546,   after     0.7500
 Calling FoFJK, ICntrl=      2127 FMM=F ISym2X=1 I1Cent= 0 IOpClX= 1 NMat=1 NMatS=1 NMatT=0.
 ***** Axes restored to original set *****
 -------------------------------------------------------------------
 Center     Atomic                   Forces (Hartrees/Bohr)
 Number     Number              X              Y              Z
 -------------------------------------------------------------------
      1        6          -0.000681340    0.000000008    0.000000000
      2        1           0.000227109   -0.000371525    0.000000000
      3        1           0.000227115    0.000185758    0.000321748
      4        1           0.000227115    0.000185758   -0.000321748
 -------------------------------------------------------------------
 Cartesian Forces:  Max     0.000681340 RMS     0.000293407

 GradGradGradGradGradGradGradGradGradGradGradGradGradGradGradGradGradGrad
 Berny optimization.
 Using GEDIIS/GDIIS optimizer.
 Internal  Forces:  Max     0.000414163 RMS     0.000286759
 Search for a local minimum.
 Step number   4 out of a maximum of   20
 All quantities printed in internal units (Hartrees-Bohrs-Radians)
 Mixed Optimization -- En-DIIS/RFO-DIIS
 Update second derivatives using D2CorX and points    3    4
 DE= -6.34D-04 DEPred=-8.47D-04 R= 7.48D-01
 SS=  1.41D+00  RLast= 4.94D-01 DXNew= 1.4270D+00 1.4815D+00
 Trust test= 7.48D-01 RLast= 4.94D-01 DXMaxT set to 1.43D+00
 The second derivative matrix:
                          R1        R2        R3        A1        A2
           R1           0.37686
           R2           0.00456   0.37686
           R3           0.00456   0.00456   0.37686
           A1          -0.02152  -0.02152  -0.02152   0.11601
           A2          -0.01315  -0.01315  -0.01315  -0.04326   0.11943
           A3          -0.01315  -0.01315  -0.01315  -0.04326  -0.04057
           D1          -0.00477  -0.00477  -0.00477   0.00272   0.00095
                          A3        D1
           A3           0.11943
           D1           0.00095   0.00845
 Use linear search instead of GDIIS.
     Eigenvalues ---    0.00840   0.16000   0.16070   0.37230   0.37230
     Eigenvalues ---    0.386861000.00000
 RFO step:  Lambda=-1.69902364D-07 EMin= 8.40225373D-03
 Quartic linear search produced a step of -0.16799.
 Iteration  1 RMS(Cart)=  0.01629508 RMS(Int)=  0.00325433
 Iteration  2 RMS(Cart)=  0.00040326 RMS(Int)=  0.00322610
 Iteration  3 RMS(Cart)=  0.00000034 RMS(Int)=  0.00322610
 ClnCor:  largest displacement from symmetrization is 4.27D-04 for atom     4.
 Variable       Old X    -DE/DX   Delta X   Delta X   Delta X     New X
                                 (Linear)    (Quad)   (Total)
    R1        2.03788   0.00037   0.00126   0.00020   0.00132   2.03921
    R2        2.03788   0.00037   0.00126   0.00020   0.00132   2.03921
    R3        2.03788   0.00037   0.00126   0.00020   0.00132   2.03921
    A1        2.09368   0.00000  -0.00428  -0.00060   0.00069   2.09437
    A2        2.09368   0.00001  -0.00428   0.00036   0.00069   2.09437
    A3        2.09368   0.00001  -0.00428   0.00036   0.00069   2.09437
    D1        3.07115   0.00041   0.08260   0.00194   0.08459  -3.12745
         Item               Value     Threshold  Converged?
 Maximum Force            0.000414     0.000450     YES
 RMS     Force            0.000287     0.000300     YES
 Maximum Displacement     0.037341     0.001800     NO 
 RMS     Displacement     0.016335     0.001200     NO 
 Predicted change in Energy=-6.695706D-06
 GradGradGradGradGradGradGradGradGradGradGradGradGradGradGradGradGradGrad

                          Input orientation:                          
 ---------------------------------------------------------------------
 Center     Atomic      Atomic             Coordinates (Angstroms)
 Number     Number       Type             X           Y           Z
 ---------------------------------------------------------------------
      1          6           0       -1.991163   -0.053274   -0.873652
      2          1           0       -1.986770   -1.132366   -0.873652
      3          1           0       -1.986750    0.486272    0.060870
      4          1           0       -1.986750    0.486272   -1.808173
 ---------------------------------------------------------------------
                    Distance matrix (angstroms):
                    1          2          3          4
     1  C    0.000000
     2  H    1.079101   0.000000
     3  H    1.079101   1.869042   0.000000
     4  H    1.079101   1.869042   1.869042   0.000000
 Stoichiometry    CH3(2)
 Framework group  C3V[C3(C),3SGV(H)]
 Deg. of freedom     2
 Full point group                 C3V     NOp   6
 Largest Abelian subgroup         CS      NOp   2
 Largest concise Abelian subgroup CS      NOp   2
                         Standard orientation:                         
 ---------------------------------------------------------------------
 Center     Atomic      Atomic             Coordinates (Angstroms)
 Number     Number       Type             X           Y           Z
 ---------------------------------------------------------------------
      1          6           0        0.000000    0.000000    0.001469
      2          1           0        0.000000    1.079092   -0.002938
      3          1           0       -0.934521   -0.539546   -0.002938
      4          1           0        0.934521   -0.539546   -0.002938
 ---------------------------------------------------------------------
 Rotational constants (GHZ):    287.0861428    287.0861428    143.5468951
 Standard basis: 6-311++G(d,p) (5D, 7F)
 There are    29 symmetry adapted basis functions of A'  symmetry.
 There are    14 symmetry adapted basis functions of A"  symmetry.
 Integral buffers will be    262144 words long.
 Raffenetti 2 integral format.
 Two-electron integral symmetry is turned on.
    43 basis functions,    63 primitive gaussians,    44 cartesian basis functions
     5 alpha electrons        4 beta electrons
       nuclear repulsion energy         9.6763497090 Hartrees.
 NAtoms=    4 NActive=    4 NUniq=    2 SFac= 3.00D+00 NAtFMM=   80 NAOKFM=F Big=F
 One-electron integrals computed using PRISM.
 NBasis=    43 RedAO= T  NBF=    29    14
 NBsUse=    43 1.00D-06 NBFU=    29    14
 Initial guess read from the read-write file.
 B after Tr=     0.000000    0.000000    0.000000
         Rot=    1.000000    0.000000    0.000000    0.000000 Ang=   0.00 deg.
 Initial guess orbital symmetries:
 Alpha Orbitals:
       Occupied  (A1) (?A) (?A) (?A) (A1)
       Virtual   (?A) (?A) (?A) (A1) (?A) (?A) (?A) (?A) (?A) (?A)
                 (?A) (?A) (?A) (A1) (?A) (?A) (?A) (?A) (?A) (?A)
                 (?A) (?A) (?A) (?A) (?A) (?A) (?A) (?A) (?A) (?A)
                 (?A) (?A) (?A) (?A) (?A) (?A) (?A) (?A)
 Beta  Orbitals:
       Occupied  (A1) (?A) (?A) (?A)
       Virtual   (?A) (?A) (?A) (?A) (?A) (?A) (?A) (?A) (?A) (?A)
                 (?A) (?A) (?A) (?A) (A1) (?A) (?A) (?A) (?A) (?A)
                 (?A) (?A) (?A) (?A) (?A) (?A) (?A) (?A) (?A) (?A)
                 (?A) (?A) (?A) (?A) (?A) (?A) (?A) (?A) (?A)
 Initial guess <Sx>= 0.0000 <Sy>= 0.0000 <Sz>= 0.5000 <S**2>= 0.7728 S= 0.5113
 Harris functional with IExCor= 1009 diagonalized for initial guess.
 ExpMin= 3.60D-02 ExpMax= 4.56D+03 ExpMxC= 6.82D+02 IAcc=3 IRadAn=         0 AccDes= 0.00D+00
 HarFok:  IExCor= 1009 AccDes= 0.00D+00 IRadAn=         0 IDoV= 1
 ScaDFX=  1.000000  1.000000  1.000000  1.000000
 FoFCou: FMM=F IPFlag=           0 FMFlag=      100000 FMFlg1=           0
         NFxFlg=           0 DoJE=T BraDBF=F KetDBF=T FulRan=T
         Omega=  0.000000  0.000000  1.000000  0.000000  0.000000 ICntrl=     500 IOpCl=  0
         NMat0=    1 NMatS0=    1 NMatT0=    0 NMatD0=    1 NMtDS0=    0 NMtDT0=    0
         I1Cent=           4 NGrid=           0.
 Petite list used in FoFCou.
 Requested convergence on RMS density matrix=1.00D-08 within 128 cycles.
 Requested convergence on MAX density matrix=1.00D-06.
 Requested convergence on             energy=1.00D-06.
 No special actions if energy rises.
 Keep R1 and R2 ints in memory in canonical form, NReq=1899870.
 Density matrix breaks symmetry, PCut= 1.00D-04
 Density has only Abelian symmetry.
 Density matrix breaks symmetry, PCut= 1.00D-04
 Density has only Abelian symmetry.
 Density matrix breaks symmetry, PCut= 1.00D-04
 Density has only Abelian symmetry.
 SCF Done:  E(UM062X) =  -39.8209110652     A.U. after   12 cycles
             Convg  =    0.5047D-09             -V/T =  2.0045
 <Sx>= 0.0000 <Sy>= 0.0000 <Sz>= 0.5000 <S**2>= 0.7546 S= 0.5023
 <L.S>= 0.000000000000E+00
 Annihilation of the first spin contaminant:
 S**2 before annihilation     0.7546,   after     0.7500
 Calling FoFJK, ICntrl=      2127 FMM=F ISym2X=1 I1Cent= 0 IOpClX= 1 NMat=1 NMatS=1 NMatT=0.
 ***** Axes restored to original set *****
 -------------------------------------------------------------------
 Center     Atomic                   Forces (Hartrees/Bohr)
 Number     Number              X              Y              Z
 -------------------------------------------------------------------
      1        6           0.000140863   -0.000000002    0.000000000
      2        1          -0.000046952    0.000157114    0.000000000
      3        1          -0.000046955   -0.000078556   -0.000136065
      4        1          -0.000046955   -0.000078556    0.000136065
 -------------------------------------------------------------------
 Cartesian Forces:  Max     0.000157114 RMS     0.000091520

 GradGradGradGradGradGradGradGradGradGradGradGradGradGradGradGradGradGrad
 Berny optimization.
 Using GEDIIS/GDIIS optimizer.
 Internal  Forces:  Max     0.000157304 RMS     0.000107520
 Search for a local minimum.
 Step number   5 out of a maximum of   20
 All quantities printed in internal units (Hartrees-Bohrs-Radians)
 Mixed Optimization -- En-DIIS/RFO-DIIS
 Swaping is turned off.
 Update second derivatives using D2CorX and points    3    4    5
 DE= -1.43D-05 DEPred=-6.70D-06 R= 2.14D+00
 SS=  1.41D+00  RLast= 8.46D-02 DXNew= 2.4000D+00 2.5389D-01
 Trust test= 2.14D+00 RLast= 8.46D-02 DXMaxT set to 1.43D+00
 The second derivative matrix:
                          R1        R2        R3        A1        A2
           R1           0.38209
           R2           0.00979   0.38209
           R3           0.00979   0.00979   0.38209
           A1          -0.02134  -0.02134  -0.02134   0.11539
           A2          -0.01265  -0.01265  -0.01265  -0.04354   0.11931
           A3          -0.01265  -0.01265  -0.01265  -0.04354  -0.04069
           D1           0.00029   0.00029   0.00029   0.00074   0.00047
                          A3        D1
           A3           0.11931
           D1           0.00047   0.00584
     Eigenvalues ---    0.00582   0.16000   0.16056   0.37230   0.37230
     Eigenvalues ---    0.402291000.00000
 En-DIIS/RFO-DIIS IScMMF=        0 using points:     5    4
 RFO step:  Lambda=-2.03806495D-07.
 DIIS coeffs:      0.82924      0.17076
 Iteration  1 RMS(Cart)=  0.00269001 RMS(Int)=  0.00009783
 Iteration  2 RMS(Cart)=  0.00001079 RMS(Int)=  0.00009723
 Iteration  3 RMS(Cart)=  0.00000000 RMS(Int)=  0.00009723
 ClnCor:  largest displacement from symmetrization is 2.20D-05 for atom     4.
 Variable       Old X    -DE/DX   Delta X   Delta X   Delta X     New X
                                  (DIIS)     (GDIIS)  (Total)
    R1        2.03921  -0.00016  -0.00023  -0.00017  -0.00040   2.03880
    R2        2.03921  -0.00016  -0.00023  -0.00017  -0.00040   2.03880
    R3        2.03921  -0.00016  -0.00023  -0.00017  -0.00040   2.03880
    A1        2.09437   0.00000  -0.00012  -0.00004   0.00003   2.09440
    A2        2.09437   0.00000  -0.00012   0.00001   0.00003   2.09440
    A3        2.09437   0.00000  -0.00012   0.00001   0.00003   2.09440
    D1       -3.12745  -0.00008  -0.01444   0.00054  -0.01391  -3.14135
         Item               Value     Threshold  Converged?
 Maximum Force            0.000157     0.000450     YES
 RMS     Force            0.000108     0.000300     YES
 Maximum Displacement     0.006140     0.001800     NO 
 RMS     Displacement     0.002692     0.001200     NO 
 Predicted change in Energy=-6.595585D-07
 GradGradGradGradGradGradGradGradGradGradGradGradGradGradGradGradGradGrad

                          Input orientation:                          
 ---------------------------------------------------------------------
 Center     Atomic      Atomic             Coordinates (Angstroms)
 Number     Number       Type             X           Y           Z
 ---------------------------------------------------------------------
      1          6           0       -1.987914   -0.053274   -0.873652
      2          1           0       -1.987853   -1.132161   -0.873652
      3          1           0       -1.987833    0.486170    0.060693
      4          1           0       -1.987833    0.486170   -1.807995
 ---------------------------------------------------------------------
                    Distance matrix (angstroms):
                    1          2          3          4
     1  C    0.000000
     2  H    1.078888   0.000000
     3  H    1.078888   1.868688   0.000000
     4  H    1.078888   1.868688   1.868688   0.000000
 Stoichiometry    CH3(2)
 Framework group  C3V[C3(C),3SGV(H)]
 Deg. of freedom     2
 Full point group                 C3V     NOp   6
 Largest Abelian subgroup         CS      NOp   2
 Largest concise Abelian subgroup CS      NOp   2
                         Standard orientation:                         
 ---------------------------------------------------------------------
 Center     Atomic      Atomic             Coordinates (Angstroms)
 Number     Number       Type             X           Y           Z
 ---------------------------------------------------------------------
      1          6           0        0.000000    0.000000    0.000025
      2          1           0        0.000000    1.078888   -0.000050
      3          1           0       -0.934344   -0.539444   -0.000050
      4          1           0        0.934344   -0.539444   -0.000050
 ---------------------------------------------------------------------
 Rotational constants (GHZ):    287.2026508    287.2026508    143.6013265
 Standard basis: 6-311++G(d,p) (5D, 7F)
 There are    29 symmetry adapted basis functions of A'  symmetry.
 There are    14 symmetry adapted basis functions of A"  symmetry.
 Integral buffers will be    262144 words long.
 Raffenetti 2 integral format.
 Two-electron integral symmetry is turned on.
    43 basis functions,    63 primitive gaussians,    44 cartesian basis functions
     5 alpha electrons        4 beta electrons
       nuclear repulsion energy         9.6782577034 Hartrees.
 NAtoms=    4 NActive=    4 NUniq=    2 SFac= 3.00D+00 NAtFMM=   80 NAOKFM=F Big=F
 One-electron integrals computed using PRISM.
 NBasis=    43 RedAO= T  NBF=    29    14
 NBsUse=    43 1.00D-06 NBFU=    29    14
 Initial guess read from the read-write file.
 B after Tr=     0.000000    0.000000    0.000000
         Rot=    1.000000    0.000000    0.000000    0.000000 Ang=   0.00 deg.
 Initial guess orbital symmetries:
 Alpha Orbitals:
       Occupied  (A1) (A1) (E) (E) (A1)
       Virtual   (A1) (E) (E) (A1) (E) (E) (A1) (A1) (E) (E) (E)
                 (E) (A1) (A1) (E) (E) (A1) (E) (E) (A2) (E) (E)
                 (A1) (A1) (E) (E) (E) (E) (A1) (E) (E) (E) (E)
                 (A1) (A1) (E) (E) (A1)
 Beta  Orbitals:
       Occupied  (A1) (A1) (E) (E)
       Virtual   (A1) (A1) (E) (E) (E) (E) (A1) (A1) (A1) (E) (E)
                 (E) (E) (A1) (A1) (E) (E) (A1) (E) (E) (A2) (E)
                 (E) (A1) (A1) (E) (E) (E) (E) (A1) (E) (E) (E)
                 (E) (A1) (A1) (E) (E) (A1)
 Initial guess <Sx>= 0.0000 <Sy>= 0.0000 <Sz>= 0.5000 <S**2>= 0.7546 S= 0.5023
 Requested convergence on RMS density matrix=1.00D-08 within 128 cycles.
 Requested convergence on MAX density matrix=1.00D-06.
 Requested convergence on             energy=1.00D-06.
 No special actions if energy rises.
 Keep R1 and R2 ints in memory in canonical form, NReq=1899870.
 SCF Done:  E(UM062X) =  -39.8209117442     A.U. after    8 cycles
             Convg  =    0.7741D-08             -V/T =  2.0045
 <Sx>= 0.0000 <Sy>= 0.0000 <Sz>= 0.5000 <S**2>= 0.7546 S= 0.5023
 <L.S>= 0.000000000000E+00
 Annihilation of the first spin contaminant:
 S**2 before annihilation     0.7546,   after     0.7500
 Calling FoFJK, ICntrl=      2127 FMM=F ISym2X=1 I1Cent= 0 IOpClX= 1 NMat=1 NMatS=1 NMatT=0.
 ***** Axes restored to original set *****
 -------------------------------------------------------------------
 Center     Atomic                   Forces (Hartrees/Bohr)
 Number     Number              X              Y              Z
 -------------------------------------------------------------------
      1        6           0.000002354    0.000000000    0.000000000
      2        1          -0.000000785    0.000007903    0.000000000
      3        1          -0.000000785   -0.000003952   -0.000006844
      4        1          -0.000000785   -0.000003952    0.000006844
 -------------------------------------------------------------------
 Cartesian Forces:  Max     0.000007903 RMS     0.000004029

 GradGradGradGradGradGradGradGradGradGradGradGradGradGradGradGradGradGrad
 Berny optimization.
 Using GEDIIS/GDIIS optimizer.
 Internal  Forces:  Max     0.000007903 RMS     0.000005200
 Search for a local minimum.
 Step number   6 out of a maximum of   20
 All quantities printed in internal units (Hartrees-Bohrs-Radians)
 Mixed Optimization -- En-DIIS/RFO-DIIS
 Swaping is turned off.
 Update second derivatives using D2CorX and points    3    4    5    6
 DE= -6.79D-07 DEPred=-6.60D-07 R= 1.03D+00
 Trust test= 1.03D+00 RLast= 1.39D-02 DXMaxT set to 1.43D+00
 The second derivative matrix:
                          R1        R2        R3        A1        A2
           R1           0.37138
           R2          -0.00092   0.37138
           R3          -0.00092  -0.00092   0.37138
           A1          -0.01617  -0.01617  -0.01617   0.11396
           A2          -0.00872  -0.00872  -0.00872  -0.04461   0.11875
           A3          -0.00872  -0.00872  -0.00872  -0.04461  -0.04125
           D1          -0.00005  -0.00005  -0.00005   0.00147   0.00079
                          A3        D1
           A3           0.11875
           D1           0.00079   0.00579
     Eigenvalues ---    0.00579   0.16000   0.16075   0.37007   0.37230
     Eigenvalues ---    0.372301000.00000
 En-DIIS/RFO-DIIS IScMMF=        0 using points:     6    5    4
 RFO step:  Lambda= 0.00000000D+00.
 DIIS coeffs:      1.09969     -0.08632     -0.01337
 Iteration  1 RMS(Cart)=  0.00005138 RMS(Int)=  0.00000790
 Iteration  2 RMS(Cart)=  0.00000000 RMS(Int)=  0.00000790
 ClnCor:  largest displacement from symmetrization is 7.72D-07 for atom     4.
 Variable       Old X    -DE/DX   Delta X   Delta X   Delta X     New X
                                  (DIIS)     (GDIIS)  (Total)
    R1        2.03880  -0.00001  -0.00002   0.00000  -0.00002   2.03878
    R2        2.03880  -0.00001  -0.00002   0.00000  -0.00002   2.03878
    R3        2.03880  -0.00001  -0.00002   0.00000  -0.00002   2.03878
    A1        2.09440   0.00000   0.00001   0.00000   0.00000   2.09440
    A2        2.09440   0.00000   0.00001   0.00000   0.00000   2.09440
    A3        2.09440   0.00000   0.00001   0.00000   0.00000   2.09440
    D1       -3.14135   0.00000  -0.00026   0.00000  -0.00026   3.14158
         Item               Value     Threshold  Converged?
 Maximum Force            0.000008     0.000450     YES
 RMS     Force            0.000005     0.000300     YES
 Maximum Displacement     0.000113     0.001800     YES
 RMS     Displacement     0.000051     0.001200     YES
 Predicted change in Energy=-4.185568D-10
 Optimization completed.
    -- Stationary point found.
                           ----------------------------
                           !   Optimized Parameters   !
                           ! (Angstroms and Degrees)  !
 --------------------------                            --------------------------
 ! Name  Definition              Value          Derivative Info.                !
 --------------------------------------------------------------------------------
 ! R1    R(1,2)                  1.0789         -DE/DX =    0.0                 !
 ! R2    R(1,3)                  1.0789         -DE/DX =    0.0                 !
 ! R3    R(1,4)                  1.0789         -DE/DX =    0.0                 !
 ! A1    A(2,1,3)              120.0            -DE/DX =    0.0                 !
 ! A2    A(2,1,4)              120.0            -DE/DX =    0.0                 !
 ! A3    A(3,1,4)              120.0            -DE/DX =    0.0                 !
 ! D1    D(2,1,4,3)            180.0137         -DE/DX =    0.0                 !
 --------------------------------------------------------------------------------
 GradGradGradGradGradGradGradGradGradGradGradGradGradGradGradGradGradGrad

                          Input orientation:                          
 ---------------------------------------------------------------------
 Center     Atomic      Atomic             Coordinates (Angstroms)
 Number     Number       Type             X           Y           Z
 ---------------------------------------------------------------------
      1          6           0       -1.987914   -0.053274   -0.873652
      2          1           0       -1.987853   -1.132161   -0.873652
      3          1           0       -1.987833    0.486170    0.060693
      4          1           0       -1.987833    0.486170   -1.807995
 ---------------------------------------------------------------------
                    Distance matrix (angstroms):
                    1          2          3          4
     1  C    0.000000
     2  H    1.078888   0.000000
     3  H    1.078888   1.868688   0.000000
     4  H    1.078888   1.868688   1.868688   0.000000
 Stoichiometry    CH3(2)
 Framework group  C3V[C3(C),3SGV(H)]
 Deg. of freedom     2
 Full point group                 C3V     NOp   6
 Largest Abelian subgroup         CS      NOp   2
 Largest concise Abelian subgroup CS      NOp   2
                         Standard orientation:                         
 ---------------------------------------------------------------------
 Center     Atomic      Atomic             Coordinates (Angstroms)
 Number     Number       Type             X           Y           Z
 ---------------------------------------------------------------------
      1          6           0        0.000000    0.000000    0.000025
      2          1           0        0.000000    1.078888   -0.000050
      3          1           0       -0.934344   -0.539444   -0.000050
      4          1           0        0.934344   -0.539444   -0.000050
 ---------------------------------------------------------------------
 Rotational constants (GHZ):    287.2026508    287.2026508    143.6013265

 **********************************************************************

            Population analysis using the SCF density.

 **********************************************************************

 Orbital symmetries:
 Alpha Orbitals:
       Occupied  (A1) (A1) (E) (E) (A1)
       Virtual   (A1) (E) (E) (A1) (E) (E) (A1) (A1) (E) (E) (E)
                 (E) (A1) (A1) (E) (E) (A1) (E) (E) (A2) (E) (E)
                 (A1) (A1) (E) (E) (E) (E) (A1) (E) (E) (E) (E)
                 (A1) (A1) (E) (E) (A1)
 Beta  Orbitals:
       Occupied  (A1) (A1) (E) (E)
       Virtual   (A1) (A1) (E) (E) (E) (E) (A1) (A1) (A1) (E) (E)
                 (E) (E) (A1) (A1) (E) (E) (A1) (E) (E) (A2) (E)
                 (E) (A1) (A1) (E) (E) (E) (E) (A1) (E) (E) (E)
                 (E) (A1) (A1) (E) (E) (A1)
 The electronic state is 2-A1.
 Alpha  occ. eigenvalues --  -10.54494  -0.77832  -0.49108  -0.49108  -0.28689
 Alpha virt. eigenvalues --    0.00411   0.03520   0.03520   0.09085   0.10749
 Alpha virt. eigenvalues --    0.10749   0.15311   0.18973   0.22559   0.22559
 Alpha virt. eigenvalues --    0.46238   0.46238   0.53723   0.57581   0.70343
 Alpha virt. eigenvalues --    0.70343   0.80742   1.09621   1.09621   1.44388
 Alpha virt. eigenvalues --    1.48400   1.48400   1.57057   1.69358   1.95641
 Alpha virt. eigenvalues --    1.95641   1.97643   1.97643   2.43622   2.49440
 Alpha virt. eigenvalues --    2.49440   2.68300   2.68300   2.78978   2.80829
 Alpha virt. eigenvalues --    3.77890   3.77890  24.00127
  Beta  occ. eigenvalues --  -10.53802  -0.73019  -0.47827  -0.47827
  Beta virt. eigenvalues --   -0.04249   0.01232   0.04410   0.04410   0.10256
  Beta virt. eigenvalues --    0.10256   0.11100   0.12632   0.20770   0.23235
  Beta virt. eigenvalues --    0.23235   0.45947   0.45947   0.55744   0.59750
  Beta virt. eigenvalues --    0.72352   0.72352   0.82361   1.13492   1.13492
  Beta virt. eigenvalues --    1.45434   1.49838   1.49838   1.64083   1.70399
  Beta virt. eigenvalues --    1.96762   1.96762   2.00737   2.00737   2.46682
  Beta virt. eigenvalues --    2.50636   2.50636   2.70906   2.70906   2.81244
  Beta virt. eigenvalues --    2.85495   3.81516   3.81516  24.01393
          Condensed to atoms (all electrons):
              1          2          3          4
     1  C    5.241555   0.401377   0.401377   0.401377
     2  H    0.401377   0.515217  -0.032578  -0.032578
     3  H    0.401377  -0.032578   0.515217  -0.032578
     4  H    0.401377  -0.032578  -0.032578   0.515217
 Mulliken atomic charges:
              1
     1  C   -0.445686
     2  H    0.148562
     3  H    0.148562
     4  H    0.148562
 Sum of Mulliken atomic charges =   0.00000
 Mulliken charges with hydrogens summed into heavy atoms:
              1
     1  C    0.000000
 Sum of Mulliken charges with hydrogens summed into heavy atoms =   0.00000
          Atomic-Atomic Spin Densities.
              1          2          3          4
     1  C    1.157043  -0.004428  -0.004428  -0.004428
     2  H   -0.004428  -0.043743   0.000126   0.000126
     3  H   -0.004428   0.000126  -0.043743   0.000126
     4  H   -0.004428   0.000126   0.000126  -0.043743
 Mulliken atomic spin densities:
              1
     1  C    1.143758
     2  H   -0.047919
     3  H   -0.047919
     4  H   -0.047919
 Sum of Mulliken atomic spin densities =   1.00000
 Electronic spatial extent (au):  <R**2>=             30.1465
 Charge=              0.0000 electrons
 Dipole moment (field-independent basis, Debye):
    X=              0.0000    Y=              0.0000    Z=             -0.0002  Tot=              0.0002
 Quadrupole moment (field-independent basis, Debye-Ang):
   XX=             -7.2581   YY=             -7.2581   ZZ=             -9.2592
   XY=              0.0000   XZ=              0.0000   YZ=              0.0000
 Traceless Quadrupole moment (field-independent basis, Debye-Ang):
   XX=              0.6670   YY=              0.6670   ZZ=             -1.3341
   XY=              0.0000   XZ=              0.0000   YZ=              0.0000
 Octapole moment (field-independent basis, Debye-Ang**2):
  XXX=              0.0000  YYY=              0.9528  ZZZ=             -0.0003  XYY=              0.0000
  XXY=             -0.9528  XXZ=             -0.0002  XZZ=              0.0000  YZZ=              0.0000
  YYZ=             -0.0002  XYZ=              0.0000
 Hexadecapole moment (field-independent basis, Debye-Ang**3):
 XXXX=            -15.0619 YYYY=            -15.0619 ZZZZ=            -12.4850 XXXY=              0.0000
 XXXZ=              0.0000 YYYX=              0.0000 YYYZ=             -0.0001 ZZZX=              0.0000
 ZZZY=              0.0000 XXYY=             -5.0206 XXZZ=             -4.9914 YYZZ=             -4.9914
 XXYZ=              0.0001 YYXZ=              0.0000 ZZXY=              0.0000
 N-N= 9.678257703411D+00 E-N=-1.639434696363D+02  KE= 5.884444681081D+01
 Symmetry A'   KE= 5.588637861636D+01
 Symmetry A"   KE= 2.958068194443D+00
                          Isotropic Fermi Contact Couplings
        Atom                 a.u.       MegaHertz       Gauss      10(-4) cm-1
     1  C(13)              0.17707     199.05818      71.02891      66.39866
     2  H(1)              -0.01640     -73.32619     -26.16461     -24.45899
     3  H(1)              -0.01640     -73.32619     -26.16461     -24.45899
     4  H(1)              -0.01640     -73.32619     -26.16461     -24.45899
 --------------------------------------------------------
       Center         ----  Spin Dipole Couplings  ----
                      3XX-RR        3YY-RR        3ZZ-RR
 --------------------------------------------------------
     1   Atom       -0.550363     -0.550363      1.100727
     2   Atom       -0.074837      0.080180     -0.005343
     3   Atom        0.041426     -0.036083     -0.005343
     4   Atom        0.041426     -0.036083     -0.005343
 --------------------------------------------------------
                        XY            XZ            YZ
 --------------------------------------------------------
     1   Atom        0.000000      0.000000      0.000000
     2   Atom        0.000000      0.000000     -0.000009
     3   Atom        0.067124      0.000008      0.000004
     4   Atom       -0.067124     -0.000008      0.000004
 --------------------------------------------------------


 ---------------------------------------------------------------------------------
              Anisotropic Spin Dipole Couplings in Principal Axis System
 ---------------------------------------------------------------------------------

       Atom             a.u.   MegaHertz   Gauss  10(-4) cm-1        Axes

              Baa    -0.5504   -73.854   -26.353   -24.635 -0.1199  0.9928  0.0000
     1 C(13)  Bbb    -0.5504   -73.854   -26.353   -24.635  0.9928  0.1199  0.0000
              Bcc     1.1007   147.707    52.706    49.270  0.0000  0.0000  1.0000
 
              Baa    -0.0748   -39.929   -14.248   -13.319  1.0000  0.0000  0.0000
     2 H(1)   Bbb    -0.0053    -2.851    -1.017    -0.951  0.0000  0.0001  1.0000
              Bcc     0.0802    42.780    15.265    14.270  0.0000  1.0000 -0.0001
 
              Baa    -0.0748   -39.929   -14.248   -13.319 -0.5000  0.8660  0.0000
     3 H(1)   Bbb    -0.0053    -2.851    -1.017    -0.951 -0.0001 -0.0001  1.0000
              Bcc     0.0802    42.780    15.265    14.270  0.8660  0.5000  0.0001
 
              Baa    -0.0748   -39.929   -14.248   -13.319  0.5000  0.8660  0.0000
     4 H(1)   Bbb    -0.0053    -2.851    -1.017    -0.951  0.0001 -0.0001  1.0000
              Bcc     0.0802    42.780    15.265    14.270  0.8660 -0.5000 -0.0001
 

 ---------------------------------------------------------------------------------

 1|1|UNPC-DESKTOP-319GPER|FOpt|UM062X|6-311++G(d,p)|C1H3(2)|SAGAD|09-Oc
 t-2020|0||#opt freq M062X/6-311++g(d,p)||Calculation of methyl radical
  with M062X with 6-311++g(d,p)||0,2|C,-1.9879142261,-0.0532736829,-0.8
 736515008|H,-1.9878527872,-1.1321612132,-0.8736516101|H,-1.9878332693,
 0.4861699863,0.0606925622|H,-1.9878332658,0.4861701756,-1.8079954546||
 Version=IA32W-G09RevA.02|State=2-A1|HF=-39.8209117|S2=0.754646|S2-1=0.
 |S2A=0.750015|RMSD=7.741e-009|RMSF=4.029e-006|Dipole=0.000067,0.,0.|Qu
 adrupole=-0.9918426,0.4959213,0.4959213,0.0000179,0.,0.|PG=C03V [C3(C1
 ),3SGV(H1)]||@


 I MET A TRAVELLER FROM AN ANTIQUE LAND
 WHO SAID... TWO VAST AND TRUNKLESS LEGS OF STONE
 STAND IN THE DESERT..... NEAR THEM,  ON THE SAND,
 HALF SUNK,  A SHATTERED VISAGE LIES,  WHOSE FROWN,
 AND WRINKLED LIP,  AND SNEER OF COLD COMMAND
 TELL THAT ITS SCULPTOR WELL THOSE PASSIONS READ
 WHICH YET SURVIVE,  STAMPED ON THESE LIFELESS THINGS
 THE HAND THAT MOCKED THEM,  AND THE HEART THAT FED-
 AND ON THE PEDESTAL THESE WORDS APPEAR 
 MY NAME IS OZYMANDIAS, KING OF KINGS--   
 LOOK ON MY WORKS YE MIGHTY AND DESPAIR. 
 NOTHING BESIDE REMAINS,  ROUND THE DECAY 
 OF THAT COLOSSAL WRECK,  BOUNDLESS AND BARE
 THE LONE AND LEVEL SANDS STRETCH FAR AWAY.
                                    SHELLEY
 Job cpu time:  0 days  0 hours  0 minutes 21.0 seconds.
 File lengths (MBytes):  RWF=      5 Int=      0 D2E=      0 Chk=      1 Scr=      1
 Normal termination of Gaussian 09 at Fri Oct 09 00:01:23 2020.
 Link1:  Proceeding to internal job step number  2.
 ----------------------------------------------------------------------
 #N Geom=AllCheck Guess=TCheck SCRF=Check GenChk UM062X/6-311++G(d,p) F
 req
 ----------------------------------------------------------------------
 1/10=4,29=7,30=1,38=1,40=1/1,3;
 2/12=2,40=1/2;
 3/5=4,6=6,7=1111,11=2,14=-4,16=1,25=1,30=1,70=2,71=2,74=-55,116=2/1,2,3;
 4/5=101/1;
 5/5=2,98=1/2;
 8/6=4,10=90,11=11/1;
 11/6=1,8=1,9=11,15=111,16=1/1,2,10;
 10/6=1/2;
 6/7=2,8=2,9=2,10=2,18=1,28=1/1;
 7/8=1,10=1,25=1/1,2,3,16;
 1/10=4,30=1/3;
 99//99;
 -----------------------------------------------------------
 Calculation of methyl radical with M062X with 6-311++g(d,p)
 -----------------------------------------------------------
 Redundant internal coordinates taken from checkpoint file:
 C:\Users\sagad\Documents\rayGit\FQ\quimicaComputacional\class4Metilo\productos\methylRadicalM062XTwo.chk
 Charge =  0 Multiplicity = 2
 C,0,-1.9879142261,-0.0532736829,-0.8736515008
 H,0,-1.9878527872,-1.1321612132,-0.8736516101
 H,0,-1.9878332693,0.4861699863,0.0606925622
 H,0,-1.9878332658,0.4861701756,-1.8079954546
 Recover connectivity data from disk.

 GradGradGradGradGradGradGradGradGradGradGradGradGradGradGradGradGradGrad
 Berny optimization.
 Initialization pass.
                           ----------------------------
                           !    Initial Parameters    !
                           ! (Angstroms and Degrees)  !
 --------------------------                            --------------------------
 ! Name  Definition              Value          Derivative Info.                !
 --------------------------------------------------------------------------------
 ! R1    R(1,2)                  1.0789         calculate D2E/DX2 analytically  !
 ! R2    R(1,3)                  1.0789         calculate D2E/DX2 analytically  !
 ! R3    R(1,4)                  1.0789         calculate D2E/DX2 analytically  !
 ! A1    A(2,1,3)              120.0            calculate D2E/DX2 analytically  !
 ! A2    A(2,1,4)              120.0            calculate D2E/DX2 analytically  !
 ! A3    A(3,1,4)              120.0            calculate D2E/DX2 analytically  !
 ! D1    D(2,1,4,3)           -179.9863         calculate D2E/DX2 analytically  !
 --------------------------------------------------------------------------------
 Trust Radius=3.00D-01 FncErr=1.00D-07 GrdErr=1.00D-07
 Number of steps in this run=   2 maximum allowed number of steps=   2.
 GradGradGradGradGradGradGradGradGradGradGradGradGradGradGradGradGradGrad

                          Input orientation:                          
 ---------------------------------------------------------------------
 Center     Atomic      Atomic             Coordinates (Angstroms)
 Number     Number       Type             X           Y           Z
 ---------------------------------------------------------------------
      1          6           0       -1.987914   -0.053274   -0.873652
      2          1           0       -1.987853   -1.132161   -0.873652
      3          1           0       -1.987833    0.486170    0.060693
      4          1           0       -1.987833    0.486170   -1.807995
 ---------------------------------------------------------------------
[...]
                 (E) (A1) (A1) (E) (E) (E) (E) (A1) (E) (E) (E)
                 (E) (A1) (A1) (E) (E) (A1)
 The electronic state is 2-A1.
 Alpha  occ. eigenvalues --  -10.54494  -0.77832  -0.49108  -0.49108  -0.28689
 Alpha virt. eigenvalues --    0.00411   0.03520   0.03520   0.09085   0.10749
 Alpha virt. eigenvalues --    0.10749   0.15311   0.18973   0.22559   0.22559
 Alpha virt. eigenvalues --    0.46238   0.46238   0.53723   0.57581   0.70343
 Alpha virt. eigenvalues --    0.70343   0.80742   1.09621   1.09621   1.44388
 Alpha virt. eigenvalues --    1.48400   1.48400   1.57057   1.69358   1.95641
 Alpha virt. eigenvalues --    1.95641   1.97643   1.97643   2.43622   2.49440
 Alpha virt. eigenvalues --    2.49440   2.68300   2.68300   2.78978   2.80829
 Alpha virt. eigenvalues --    3.77890   3.77890  24.00127
  Beta  occ. eigenvalues --  -10.53802  -0.73019  -0.47827  -0.47827
  Beta virt. eigenvalues --   -0.04249   0.01232   0.04410   0.04410   0.10256
  Beta virt. eigenvalues --    0.10256   0.11100   0.12632   0.20770   0.23235
  Beta virt. eigenvalues --    0.23235   0.45947   0.45947   0.55744   0.59750
  Beta virt. eigenvalues --    0.72352   0.72352   0.82361   1.13492   1.13492
  Beta virt. eigenvalues --    1.45434   1.49838   1.49838   1.64083   1.70399
  Beta virt. eigenvalues --    1.96762   1.96762   2.00737   2.00737   2.46682
  Beta virt. eigenvalues --    2.50636   2.50636   2.70906   2.70906   2.81244
  Beta virt. eigenvalues --    2.85495   3.81516   3.81516  24.01393
          Condensed to atoms (all electrons):
              1          2          3          4
     1  C    5.241555   0.401377   0.401377   0.401377
     2  H    0.401377   0.515217  -0.032578  -0.032578
     3  H    0.401377  -0.032578   0.515217  -0.032578
     4  H    0.401377  -0.032578  -0.032578   0.515217
 Mulliken atomic charges:
              1
     1  C   -0.445686
     2  H    0.148562
     3  H    0.148562
     4  H    0.148562
 Sum of Mulliken atomic charges =   0.00000
 Mulliken charges with hydrogens summed into heavy atoms:
              1
     1  C    0.000000
 Sum of Mulliken charges with hydrogens summed into heavy atoms =   0.00000
          Atomic-Atomic Spin Densities.
              1          2          3          4
     1  C    1.157043  -0.004428  -0.004428  -0.004428
     2  H   -0.004428  -0.043743   0.000126   0.000126
     3  H   -0.004428   0.000126  -0.043743   0.000126
     4  H   -0.004428   0.000126   0.000126  -0.043743
 Mulliken atomic spin densities:
              1
     1  C    1.143758
     2  H   -0.047919
     3  H   -0.047919
     4  H   -0.047919
 Sum of Mulliken atomic spin densities =   1.00000
 APT atomic charges:
              1
     1  C   -0.185784
     2  H    0.063924
     3  H    0.062427
     4  H    0.062427
 Sum of APT charges=   0.00299
 APT Atomic charges with hydrogens summed into heavy atoms:
              1
     1  C    0.002994
     2  H    0.000000
     3  H    0.000000
     4  H    0.000000
 Sum of APT charges=   0.00299
 Electronic spatial extent (au):  <R**2>=             30.1465
 Charge=              0.0000 electrons
 Dipole moment (field-independent basis, Debye):
    X=              0.0000    Y=              0.0000    Z=             -0.0002  Tot=              0.0002
 Quadrupole moment (field-independent basis, Debye-Ang):
   XX=             -7.2581   YY=             -7.2581   ZZ=             -9.2592
   XY=              0.0000   XZ=              0.0000   YZ=              0.0000
 Traceless Quadrupole moment (field-independent basis, Debye-Ang):
   XX=              0.6670   YY=              0.6670   ZZ=             -1.3341
   XY=              0.0000   XZ=              0.0000   YZ=              0.0000
 Octapole moment (field-independent basis, Debye-Ang**2):
  XXX=              0.0000  YYY=              0.9528  ZZZ=             -0.0003  XYY=              0.0000
  XXY=             -0.9528  XXZ=             -0.0002  XZZ=              0.0000  YZZ=              0.0000
  YYZ=             -0.0002  XYZ=              0.0000
 Hexadecapole moment (field-independent basis, Debye-Ang**3):
 XXXX=            -15.0619 YYYY=            -15.0619 ZZZZ=            -12.4850 XXXY=              0.0000
 XXXZ=              0.0000 YYYX=              0.0000 YYYZ=             -0.0001 ZZZX=              0.0000
 ZZZY=              0.0000 XXYY=             -5.0206 XXZZ=             -4.9914 YYZZ=             -4.9914
 XXYZ=              0.0001 YYXZ=              0.0000 ZZXY=              0.0000
 N-N= 9.678257703411D+00 E-N=-1.639434696645D+02  KE= 5.884444682288D+01
 Symmetry A'   KE= 5.588637862561D+01
 Symmetry A"   KE= 2.958068197267D+00
  Exact polarizability:  13.060   0.000  13.071   0.000   0.000  12.313
 Approx polarizability:  13.153   0.000  13.153   0.000   0.000  11.147
                          Isotropic Fermi Contact Couplings
        Atom                 a.u.       MegaHertz       Gauss      10(-4) cm-1
     1  C(13)              0.17707     199.05819      71.02891      66.39866
     2  H(1)              -0.01640     -73.32620     -26.16461     -24.45899
     3  H(1)              -0.01640     -73.32620     -26.16461     -24.45899
     4  H(1)              -0.01640     -73.32620     -26.16461     -24.45899
 --------------------------------------------------------
       Center         ----  Spin Dipole Couplings  ----
                      3XX-RR        3YY-RR        3ZZ-RR
 --------------------------------------------------------
     1   Atom       -0.550363     -0.550363      1.100727
     2   Atom       -0.074837      0.080180     -0.005343
     3   Atom        0.041426     -0.036083     -0.005343
     4   Atom        0.041426     -0.036083     -0.005343
 --------------------------------------------------------
                        XY            XZ            YZ
 --------------------------------------------------------
     1   Atom        0.000000      0.000000      0.000000
     2   Atom        0.000000      0.000000     -0.000009
     3   Atom        0.067124      0.000008      0.000004
     4   Atom       -0.067124     -0.000008      0.000004
 --------------------------------------------------------


 ---------------------------------------------------------------------------------
              Anisotropic Spin Dipole Couplings in Principal Axis System
 ---------------------------------------------------------------------------------

       Atom             a.u.   MegaHertz   Gauss  10(-4) cm-1        Axes

              Baa    -0.5504   -73.854   -26.353   -24.635  0.9994 -0.0346  0.0000
     1 C(13)  Bbb    -0.5504   -73.854   -26.353   -24.635  0.0346  0.9994  0.0000
              Bcc     1.1007   147.707    52.706    49.270  0.0000  0.0000  1.0000
 
              Baa    -0.0748   -39.929   -14.248   -13.319  1.0000  0.0000  0.0000
     2 H(1)   Bbb    -0.0053    -2.851    -1.017    -0.951  0.0000  0.0001  1.0000
              Bcc     0.0802    42.780    15.265    14.270  0.0000  1.0000 -0.0001
 
              Baa    -0.0748   -39.929   -14.248   -13.319 -0.5000  0.8660  0.0000
     3 H(1)   Bbb    -0.0053    -2.851    -1.017    -0.951 -0.0001 -0.0001  1.0000
              Bcc     0.0802    42.780    15.265    14.270  0.8660  0.5000  0.0001
 
              Baa    -0.0748   -39.929   -14.248   -13.319  0.5000  0.8660  0.0000
     4 H(1)   Bbb    -0.0053    -2.851    -1.017    -0.951  0.0001 -0.0001  1.0000
              Bcc     0.0802    42.780    15.265    14.270  0.8660 -0.5000 -0.0001
 

 ---------------------------------------------------------------------------------

 Calling FoFJK, ICntrl=    100127 FMM=F ISym2X=1 I1Cent= 0 IOpClX= 1 NMat=1 NMatS=1 NMatT=0.
 Full mass-weighted force constant matrix:
 Low frequencies ---  -68.6931  -34.4333   -0.6542   19.3394  247.5712  248.9518
 Low frequencies ---  495.6525 1412.5036 1412.5662
 Diagonal vibrational polarizability:
        0.0780120       0.0791569      10.8731355
 Harmonic frequencies (cm**-1), IR intensities (KM/Mole), Raman scattering
 activities (A**4/AMU), depolarization ratios for plane and unpolarized
 incident light, reduced masses (AMU), force constants (mDyne/A),
 and normal coordinates:
                     1                      2                      3
                    A1                      E                      E
 Frequencies --   495.1477              1412.5036              1412.5662
 Red. masses --     1.2356                 1.1017                 1.1016
 Frc consts  --     0.1785                 1.2950                 1.2951
 IR Inten    --    99.0584                 5.5042                 5.5932
  Atom  AN      X      Y      Z        X      Y      Z        X      Y      Z
     1   6     0.00   0.00   0.14    -0.09   0.00   0.00     0.00   0.09   0.00
     2   1     0.00   0.00  -0.57     0.81   0.00   0.00     0.00   0.08   0.00
     3   1     0.00   0.00  -0.57     0.15  -0.38   0.00     0.38  -0.59   0.00
     4   1     0.00   0.00  -0.57     0.15   0.38   0.00    -0.38  -0.59   0.00
                     4                      5                      6
                    A1                      E                      E
 Frequencies --  3132.6431              3313.4897              3313.6172
 Red. masses --     1.0078                 1.1188                 1.1188
 Frc consts  --     5.8272                 7.2371                 7.2378
 IR Inten    --     0.0026                 1.5382                 1.5154
  Atom  AN      X      Y      Z        X      Y      Z        X      Y      Z
     1   6     0.00   0.00   0.00     0.10   0.00   0.00     0.00   0.10   0.00
     2   1     0.00  -0.58   0.00     0.01   0.00   0.00     0.00  -0.81   0.00
     3   1     0.50   0.29   0.00    -0.61  -0.36   0.00    -0.36  -0.19   0.00
     4   1    -0.50   0.29   0.00    -0.61   0.36   0.00     0.36  -0.19   0.00

 -------------------
 - Thermochemistry -
 -------------------
 Temperature   298.150 Kelvin.  Pressure   1.00000 Atm.
 Atom     1 has atomic number  6 and mass  12.00000
 Atom     2 has atomic number  1 and mass   1.00783
 Atom     3 has atomic number  1 and mass   1.00783
 Atom     4 has atomic number  1 and mass   1.00783
 Molecular mass:    15.02348 amu.
 Principal axes and moments of inertia in atomic units:
                           1         2         3
     Eigenvalues --     6.28386   6.28386  12.56772
           X           -0.09249   0.99571   0.00000
           Y            0.99571   0.09249   0.00000
           Z            0.00000   0.00000   1.00000
 This molecule is an oblate symmetric top.
 Rotational symmetry number  3.
 Rotational temperatures (Kelvin)     13.78354    13.78354     6.89177
 Rotational constants (GHZ):         287.20265   287.20265   143.60133
 Zero-point vibrational energy      78235.6 (Joules/Mol)
                                   18.69875 (Kcal/Mol)
 Warning -- explicit consideration of   1 degrees of freedom as
           vibrations may cause significant error
 Vibrational temperatures:    712.41  2032.28  2032.37  4507.17  4767.37
          (Kelvin)           4767.55
 
 Zero-point correction=                           0.029798 (Hartree/Particle)
 Thermal correction to Energy=                    0.032873
 Thermal correction to Enthalpy=                  0.033817
 Thermal correction to Gibbs Free Energy=         0.011041
 Sum of electronic and zero-point Energies=            -39.791113
 Sum of electronic and thermal Energies=               -39.788039
 Sum of electronic and thermal Enthalpies=             -39.787095
 Sum of electronic and thermal Free Energies=          -39.809871
 
                     E (Thermal)             CV                S
                      KCal/Mol        Cal/Mol-Kelvin    Cal/Mol-Kelvin
 Total                   20.628              7.425             47.937
 Electronic               0.000              0.000              1.377
 Translational            0.889              2.981             34.068
 Rotational               0.889              2.981             11.787
 Vibrational             18.851              1.464              0.704
 Vibration     1          0.851              1.261              0.670
                       Q            Log10(Q)             Ln(Q)
 Total Bot       0.834971D-05         -5.078329        -11.693284
 Total V=0       0.424556D+09          8.627935         19.866556
 Vib (Bot)       0.216995D-13        -13.663549        -31.461485
 Vib (Bot)    1  0.333354D+00         -0.477094         -1.098550
 Vib (V=0)       0.110335D+01          0.042715          0.098354
 Vib (V=0)    1  0.110094D+01          0.041762          0.096161
 Electronic      0.200000D+01          0.301030          0.693147
 Translational   0.228882D+07          6.359611         14.643545
 Rotational      0.840582D+02          1.924580          4.431509
 ***** Axes restored to original set *****
 -------------------------------------------------------------------
 Center     Atomic                   Forces (Hartrees/Bohr)
 Number     Number              X              Y              Z
 -------------------------------------------------------------------
      1        6           0.000002354    0.000000000    0.000000000
      2        1          -0.000000785    0.000007903    0.000000000
      3        1          -0.000000785   -0.000003951   -0.000006844
      4        1          -0.000000785   -0.000003951    0.000006844
 -------------------------------------------------------------------
 Cartesian Forces:  Max     0.000007903 RMS     0.000004029

 GradGradGradGradGradGradGradGradGradGradGradGradGradGradGradGradGradGrad
 Berny optimization.
 Internal  Forces:  Max     0.000007903 RMS     0.000005200
 Search for a local minimum.
 Step number   1 out of a maximum of    2
 All quantities printed in internal units (Hartrees-Bohrs-Radians)
 Second derivative matrix not updated -- analytic derivatives used.
 The second derivative matrix:
                          R1        R2        R3        A1        A2
           R1           0.37401
           R2           0.00017   0.37389
           R3           0.00017   0.00018   0.37389
           A1           0.00517   0.00521  -0.01042   0.06331
           A2           0.00517  -0.01042   0.00521  -0.03165   0.06331
           A3          -0.01035   0.00522   0.00522  -0.03166  -0.03166
           D1           0.00000   0.00000   0.00000   0.00000   0.00000
                          A3        D1
           A3           0.06332
           D1           0.00000   0.00685
     Eigenvalues ---    0.00685   0.09408   0.09412   0.37428   0.37458
     Eigenvalues ---    0.374671000.00000
 Angle between quadratic step and forces=  73.97 degrees.
 Linear search not attempted -- first point.
 Iteration  1 RMS(Cart)=  0.00004135 RMS(Int)=  0.00000000
 Iteration  2 RMS(Cart)=  0.00000000 RMS(Int)=  0.00000000
 ClnCor:  largest displacement from symmetrization is 1.29D-08 for atom     4.
 Variable       Old X    -DE/DX   Delta X   Delta X   Delta X     New X
                                 (Linear)    (Quad)   (Total)
    R1        2.03880  -0.00001   0.00000  -0.00002  -0.00002   2.03878
    R2        2.03880  -0.00001   0.00000  -0.00002  -0.00002   2.03878
    R3        2.03880  -0.00001   0.00000  -0.00002  -0.00002   2.03878
    A1        2.09440   0.00000   0.00000   0.00000   0.00000   2.09440
    A2        2.09440   0.00000   0.00000   0.00000   0.00000   2.09440
    A3        2.09440   0.00000   0.00000   0.00000   0.00000   2.09440
    D1       -3.14135   0.00000   0.00000  -0.00020  -0.00020  -3.14156
         Item               Value     Threshold  Converged?
 Maximum Force            0.000008     0.000450     YES
 RMS     Force            0.000005     0.000300     YES
 Maximum Displacement     0.000089     0.001800     YES
 RMS     Displacement     0.000041     0.001200     YES
 Predicted change in Energy=-3.903554D-10
 Optimization completed.
    -- Stationary point found.
                           ----------------------------
                           !   Optimized Parameters   !
                           ! (Angstroms and Degrees)  !
 --------------------------                            --------------------------
 ! Name  Definition              Value          Derivative Info.                !
 --------------------------------------------------------------------------------
 ! R1    R(1,2)                  1.0789         -DE/DX =    0.0                 !
 ! R2    R(1,3)                  1.0789         -DE/DX =    0.0                 !
 ! R3    R(1,4)                  1.0789         -DE/DX =    0.0                 !
 ! A1    A(2,1,3)              120.0            -DE/DX =    0.0                 !
 ! A2    A(2,1,4)              120.0            -DE/DX =    0.0                 !
 ! A3    A(3,1,4)              120.0            -DE/DX =    0.0                 !
 ! D1    D(2,1,4,3)           -179.9863         -DE/DX =    0.0                 !
 --------------------------------------------------------------------------------
 GradGradGradGradGradGradGradGradGradGradGradGradGradGradGradGradGradGrad

 1|1|UNPC-DESKTOP-319GPER|Freq|UM062X|6-311++G(d,p)|C1H3(2)|SAGAD|09-Oc
 t-2020|0||#N Geom=AllCheck Guess=TCheck SCRF=Check GenChk UM062X/6-311
 ++G(d,p) Freq||Calculation of methyl radical with M062X with 6-311++g(
 d,p)||0,2|C,-1.9879142261,-0.0532736829,-0.8736515008|H,-1.9878527872,
 -1.1321612132,-0.8736516101|H,-1.9878332693,0.4861699863,0.0606925622|
 H,-1.9878332658,0.4861701756,-1.8079954546||Version=IA32W-G09RevA.02|S
 tate=2-A1|HF=-39.8209117|S2=0.754646|S2-1=0.|S2A=0.750015|RMSD=9.108e-
 010|RMSF=4.029e-006|ZeroPoint=0.0297984|Thermal=0.0328728|Dipole=0.000
 067,0.,0.|DipoleDeriv=-0.4866401,0.0000067,0.,0.0000042,-0.0361629,0.,
 0.,0.,-0.0345487,0.1694986,0.0000133,0.,0.0000088,-0.0370918,0.,0.,0.,
 0.0593648,0.1640347,-0.0000098,-0.0000158,-0.0000069,0.035939,-0.04083
 09,-0.0000092,-0.0405139,-0.0126928,0.1640347,-0.0000098,0.0000158,-0.
 0000069,0.035939,0.0408309,0.0000092,0.0405139,-0.0126928|Polar=12.312
 7499,0.0000008,13.0714617,0.,0.,13.0600153|PG=C03V [C3(C1),3SGV(H1)]|N
 Imag=0||0.01857941,0.00000753,0.62373609,0.,0.,0.62327218,-0.00779035,
 0.00002325,0.,0.00415521,0.00001523,-0.36068697,-0.00000003,-0.0000180
 4,0.37406320,0.,-0.00000003,-0.05549412,0.,0.00000003,0.04563704,-0.00
 659244,-0.00001532,-0.00002539,0.00181757,0.00000142,0.00000177,0.0041
 5521,-0.00001131,-0.13165842,-0.13220390,-0.00000264,-0.00663242,-0.02
 363087,0.00001274,0.12774355,-0.00001865,-0.13206915,-0.28413892,-0.00
 000025,0.00370316,0.00487285,0.00002120,0.14221268,0.29195669,-0.00659
 244,-0.00001532,0.00002540,0.00181757,0.00000142,-0.00000177,0.0018175
 7,0.00000112,-0.00000251,0.00415521,-0.00001131,-0.13165848,0.13220393
 ,-0.00000264,-0.00663242,0.02363087,0.00000113,0.01062548,-0.01366701,
 0.00001274,0.12774361,0.00001865,0.13206918,-0.28413887,0.00000025,-0.
 00370317,0.00487285,0.00000251,0.01366702,-0.01238505,-0.00002120,-0.1
 4221272,0.29195663||-0.00000235,0.,0.,0.00000078,-0.00000790,0.,0.0000
 0078,0.00000395,0.00000684,0.00000078,0.00000395,-0.00000684|||@


 I MET A TRAVELLER FROM AN ANTIQUE LAND
 WHO SAID... TWO VAST AND TRUNKLESS LEGS OF STONE
 STAND IN THE DESERT..... NEAR THEM,  ON THE SAND,
 HALF SUNK,  A SHATTERED VISAGE LIES,  WHOSE FROWN,
 AND WRINKLED LIP,  AND SNEER OF COLD COMMAND
 TELL THAT ITS SCULPTOR WELL THOSE PASSIONS READ
 WHICH YET SURVIVE,  STAMPED ON THESE LIFELESS THINGS
 THE HAND THAT MOCKED THEM,  AND THE HEART THAT FED-
 AND ON THE PEDESTAL THESE WORDS APPEAR 
 MY NAME IS OZYMANDIAS, KING OF KINGS--   
 LOOK ON MY WORKS YE MIGHTY AND DESPAIR. 
 NOTHING BESIDE REMAINS,  ROUND THE DECAY 
 OF THAT COLOSSAL WRECK,  BOUNDLESS AND BARE
 THE LONE AND LEVEL SANDS STRETCH FAR AWAY.
                                    SHELLEY
 Job cpu time:  0 days  0 hours  0 minutes 11.0 seconds.
 File lengths (MBytes):  RWF=      5 Int=      0 D2E=      0 Chk=      1 Scr=      1
 Normal termination of Gaussian 09 at Fri Oct 09 00:01:35 2020.
