 Entering Link 1 = C:\G09W\l1.exe PID=       172.
  
 Copyright (c) 1988,1990,1992,1993,1995,1998,2003,2009, Gaussian, Inc.
                  All Rights Reserved.
  
 This is part of the Gaussian(R) 09 program.  It is based on
 the Gaussian(R) 03 system (copyright 2003, Gaussian, Inc.),
 the Gaussian(R) 98 system (copyright 1998, Gaussian, Inc.),
 the Gaussian(R) 94 system (copyright 1995, Gaussian, Inc.),
 the Gaussian 92(TM) system (copyright 1992, Gaussian, Inc.),
 the Gaussian 90(TM) system (copyright 1990, Gaussian, Inc.),
 the Gaussian 88(TM) system (copyright 1988, Gaussian, Inc.),
 the Gaussian 86(TM) system (copyright 1986, Carnegie Mellon
 University), and the Gaussian 82(TM) system (copyright 1983,
 Carnegie Mellon University). Gaussian is a federally registered
 trademark of Gaussian, Inc.
  
 This software contains proprietary and confidential information,
 including trade secrets, belonging to Gaussian, Inc.
  
 This software is provided under written license and may be
 used, copied, transmitted, or stored only in accord with that
 written license.
  
 The following legend is applicable only to US Government
 contracts under FAR:
  
                    RESTRICTED RIGHTS LEGEND
  
 Use, reproduction and disclosure by the US Government is
 subject to restrictions as set forth in subparagraphs (a)
 and (c) of the Commercial Computer Software - Restricted
 Rights clause in FAR 52.227-19.
  
 Gaussian, Inc.
 340 Quinnipiac St., Bldg. 40, Wallingford CT 06492
  
  
 ---------------------------------------------------------------
 Warning -- This program may not be used in any manner that
 competes with the business of Gaussian, Inc. or will provide
 assistance to any competitor of Gaussian, Inc.  The licensee
 of this program is prohibited from giving any competitor of
 Gaussian, Inc. access to this program.  By using this program,
 the user acknowledges that Gaussian, Inc. is engaged in the
 business of creating and licensing software in the field of
 computational chemistry and represents and warrants to the
 licensee that it is not a competitor of Gaussian, Inc. and that
 it will not use this program in any manner prohibited above.
 ---------------------------------------------------------------
  

 Cite this work as:
 Gaussian 09, Revision A.02,
 M. J. Frisch, G. W. Trucks, H. B. Schlegel, G. E. Scuseria, 
 M. A. Robb, J. R. Cheeseman, G. Scalmani, V. Barone, B. Mennucci, 
 G. A. Petersson, H. Nakatsuji, M. Caricato, X. Li, H. P. Hratchian, 
 A. F. Izmaylov, J. Bloino, G. Zheng, J. L. Sonnenberg, M. Hada, 
 M. Ehara, K. Toyota, R. Fukuda, J. Hasegawa, M. Ishida, T. Nakajima, 
 Y. Honda, O. Kitao, H. Nakai, T. Vreven, J. A. Montgomery, Jr., 
 J. E. Peralta, F. Ogliaro, M. Bearpark, J. J. Heyd, E. Brothers, 
 K. N. Kudin, V. N. Staroverov, R. Kobayashi, J. Normand, 
 K. Raghavachari, A. Rendell, J. C. Burant, S. S. Iyengar, J. Tomasi, 
 M. Cossi, N. Rega, J. M. Millam, M. Klene, J. E. Knox, J. B. Cross, 
 V. Bakken, C. Adamo, J. Jaramillo, R. Gomperts, R. E. Stratmann, 
 O. Yazyev, A. J. Austin, R. Cammi, C. Pomelli, J. W. Ochterski, 
 R. L. Martin, K. Morokuma, V. G. Zakrzewski, G. A. Voth, 
 P. Salvador, J. J. Dannenberg, S. Dapprich, A. D. Daniels, 
 O. Farkas, J. B. Foresman, J. V. Ortiz, J. Cioslowski, 
 and D. J. Fox, Gaussian, Inc., Wallingford CT, 2009.
 
 ******************************************
 Gaussian 09:  IA32W-G09RevA.02 11-Jun-2009
                08-Oct-2020 
 ******************************************
 %chk=C:\Users\sagad\Documents\rayGit\FQ\quimicaComputacional\class4Metilo\produc
 tos\waterHF.chk
 %nprocshared=4
 Will use up to    4 processors via shared memory.
 %mem=1500MB
 ------------------------
 #opt freq HF/6-31+g(d,p)
 ------------------------
 1/18=20,19=15,38=1/1,3;
 2/9=110,12=2,17=6,18=5,40=1/2;
 3/5=1,6=6,7=111,11=9,16=1,25=1,30=1,71=1/1,2,3;
 4//1;
 5/5=2,38=5/2;
 6/7=2,8=2,9=2,10=2,28=1/1;
 7//1,2,3,16;
 1/18=20,19=15/3(2);
 2/9=110/2;
 99//99;
 2/9=110/2;
 3/5=1,6=6,7=111,11=9,16=1,25=1,30=1,71=1/1,2,3;
 4/5=5,16=3/1;
 5/5=2,38=5/2;
 7//1,2,3,16;
 1/18=20,19=15/3(-5);
 2/9=110/2;
 6/7=2,8=2,9=2,10=2,19=2,28=1/1;
 99/9=1/99;
 -----------------------
 Calculation of water HF
 -----------------------
 Symbolic Z-matrix:
 Charge =  0 Multiplicity = 1
 O                    -0.18932  -0.56391   0. 
 H                     0.77068  -0.56391   0. 
 H                    -0.50978   0.34103   0. 
 

 GradGradGradGradGradGradGradGradGradGradGradGradGradGradGradGradGradGrad
 Berny optimization.
 Initialization pass.
                           ----------------------------
                           !    Initial Parameters    !
                           ! (Angstroms and Degrees)  !
 --------------------------                            --------------------------
 ! Name  Definition              Value          Derivative Info.                !
 --------------------------------------------------------------------------------
 ! R1    R(1,2)                  0.96           estimate D2E/DX2                !
 ! R2    R(1,3)                  0.96           estimate D2E/DX2                !
 ! A1    A(2,1,3)              109.5            estimate D2E/DX2                !
 --------------------------------------------------------------------------------
 Trust Radius=3.00D-01 FncErr=1.00D-07 GrdErr=1.00D-07
 Number of steps in this run=  20 maximum allowed number of steps= 100.
 GradGradGradGradGradGradGradGradGradGradGradGradGradGradGradGradGradGrad

                          Input orientation:                          
 ---------------------------------------------------------------------
 Center     Atomic      Atomic             Coordinates (Angstroms)
 Number     Number       Type             X           Y           Z
 ---------------------------------------------------------------------
      1          8           0       -0.189323   -0.563910    0.000000
      2          1           0        0.770677   -0.563910    0.000000
      3          1           0       -0.509778    0.341026    0.000000
 ---------------------------------------------------------------------
                    Distance matrix (angstroms):
                    1          2          3
     1  O    0.000000
     2  H    0.960000   0.000000
     3  H    0.960000   1.567952   0.000000
 Stoichiometry    H2O
 Framework group  C2V[C2(O),SGV(H2)]
 Deg. of freedom     2
 Full point group                 C2V     NOp   4
 Largest Abelian subgroup         C2V     NOp   4
 Largest concise Abelian subgroup C2      NOp   2
                         Standard orientation:                         
 ---------------------------------------------------------------------
 Center     Atomic      Atomic             Coordinates (Angstroms)
 Number     Number       Type             X           Y           Z
 ---------------------------------------------------------------------
      1          8           0        0.000000    0.000000    0.110812
      2          1           0        0.000000   -0.783976   -0.443248
      3          1           0        0.000000    0.783976   -0.443248
 ---------------------------------------------------------------------
 Rotational constants (GHZ):    919.6759295    407.9403325    282.5913747
 Standard basis: 6-31+G(d,p) (6D, 7F)
 There are    14 symmetry adapted basis functions of A1  symmetry.
 There are     2 symmetry adapted basis functions of A2  symmetry.
 There are     5 symmetry adapted basis functions of B1  symmetry.
 There are     8 symmetry adapted basis functions of B2  symmetry.
 Integral buffers will be    262144 words long.
 Raffenetti 1 integral format.
 Two-electron integral symmetry is turned on.
    29 basis functions,    46 primitive gaussians,    29 cartesian basis functions
     5 alpha electrons        5 beta electrons
       nuclear repulsion energy         9.1571159776 Hartrees.
 NAtoms=    3 NActive=    3 NUniq=    2 SFac= 1.69D+00 NAtFMM=   80 NAOKFM=F Big=F
 One-electron integrals computed using PRISM.
 NBasis=    29 RedAO= T  NBF=    14     2     5     8
 NBsUse=    29 1.00D-06 NBFU=    14     2     5     8
 Harris functional with IExCor=  205 diagonalized for initial guess.
 ExpMin= 8.45D-02 ExpMax= 5.48D+03 ExpMxC= 8.25D+02 IAcc=2 IRadAn=         0 AccDes= 0.00D+00
 HarFok:  IExCor=  205 AccDes= 0.00D+00 IRadAn=         0 IDoV= 1
 ScaDFX=  1.000000  1.000000  1.000000  1.000000
 FoFCou: FMM=F IPFlag=           0 FMFlag=      100000 FMFlg1=           0
         NFxFlg=           0 DoJE=T BraDBF=F KetDBF=T FulRan=T
         Omega=  0.000000  0.000000  1.000000  0.000000  0.000000 ICntrl=     500 IOpCl=  0
         NMat0=    1 NMatS0=    1 NMatT0=    0 NMatD0=    1 NMtDS0=    0 NMtDT0=    0
         I1Cent=           4 NGrid=           0.
 Petite list used in FoFCou.
 Initial guess orbital symmetries:
       Occupied  (A1) (A1) (B2) (A1) (B1)
       Virtual   (A1) (B2) (A1) (B1) (B2) (A1) (B2) (A1) (B1) (B2)
                 (A1) (A1) (A2) (A1) (B1) (A1) (B2) (B2) (B1) (A2)
                 (A1) (A1) (B2) (A1)
 The electronic state of the initial guess is 1-A1.
 Requested convergence on RMS density matrix=1.00D-08 within 128 cycles.
 Requested convergence on MAX density matrix=1.00D-06.
 Requested convergence on             energy=1.00D-06.
 No special actions if energy rises.
 Keep R1 ints in memory in canonical form, NReq=935890.
 SCF Done:  E(RHF) =  -76.0303940647     A.U. after   10 cycles
             Convg  =    0.8602D-08             -V/T =  2.0040

 **********************************************************************

            Population analysis using the SCF density.

 **********************************************************************

 Orbital symmetries:
       Occupied  (A1) (A1) (B2) (A1) (B1)
       Virtual   (A1) (B2) (A1) (B1) (B2) (A1) (B2) (A1) (B2) (A1)
                 (B1) (A1) (A2) (A1) (B1) (B2) (A1) (B2) (B1) (A2)
                 (A1) (A1) (B2) (A1)
 The electronic state is 1-A1.
 Alpha  occ. eigenvalues --  -20.58070  -1.35154  -0.72784  -0.57336  -0.50757
 Alpha virt. eigenvalues --    0.14750   0.21809   0.25020   0.25260   0.35926
 Alpha virt. eigenvalues --    0.37840   1.18764   1.25733   1.34485   1.38675
 Alpha virt. eigenvalues --    1.40565   1.45603   1.77835   1.84532   1.93020
 Alpha virt. eigenvalues --    2.52933   2.56541   2.87184   2.94942   2.99461
 Alpha virt. eigenvalues --    3.37436   3.72279   3.89471   4.34538
          Condensed to atoms (all electrons):
              1          2          3
     1  O    8.144173   0.300438   0.300438
     2  H    0.300438   0.351128  -0.024090
     3  H    0.300438  -0.024090   0.351128
 Mulliken atomic charges:
              1
     1  O   -0.745049
     2  H    0.372524
     3  H    0.372524
 Sum of Mulliken atomic charges =   0.00000
 Mulliken charges with hydrogens summed into heavy atoms:
              1
     1  O    0.000000
 Sum of Mulliken charges with hydrogens summed into heavy atoms =   0.00000
 Electronic spatial extent (au):  <R**2>=             19.5556
 Charge=              0.0000 electrons
 Dipole moment (field-independent basis, Debye):
    X=              0.0000    Y=              0.0000    Z=             -2.2058  Tot=              2.2058
 Quadrupole moment (field-independent basis, Debye-Ang):
   XX=             -7.6391   YY=             -3.9785   ZZ=             -6.4219
   XY=              0.0000   XZ=              0.0000   YZ=              0.0000
 Traceless Quadrupole moment (field-independent basis, Debye-Ang):
   XX=             -1.6260   YY=              2.0347   ZZ=             -0.4087
   XY=              0.0000   XZ=              0.0000   YZ=              0.0000
 Octapole moment (field-independent basis, Debye-Ang**2):
  XXX=              0.0000  YYY=              0.0000  ZZZ=             -1.5667  XYY=              0.0000
  XXY=              0.0000  XXZ=             -0.4463  XZZ=              0.0000  YZZ=              0.0000
  YYZ=             -1.5162  XYZ=              0.0000
 Hexadecapole moment (field-independent basis, Debye-Ang**3):
 XXXX=             -6.8021 YYYY=             -5.5639 ZZZZ=             -7.2105 XXXY=              0.0000
 XXXZ=              0.0000 YYYX=              0.0000 YYYZ=              0.0000 ZZZX=              0.0000
 ZZZY=              0.0000 XXYY=             -2.4050 XXZZ=             -2.3815 YYZZ=             -1.8335
 XXYZ=              0.0000 YYXZ=              0.0000 ZZXY=              0.0000
 N-N= 9.157115977618D+00 E-N=-1.986174492096D+02  KE= 7.572445168041D+01
 Symmetry A1   KE= 6.774301942718D+01
 Symmetry A2   KE= 1.249782345508D-36
 Symmetry B1   KE= 4.450025824016D+00
 Symmetry B2   KE= 3.531406429208D+00
 Calling FoFJK, ICntrl=      2127 FMM=F ISym2X=1 I1Cent= 0 IOpClX= 0 NMat=1 NMatS=1 NMatT=0.
 ***** Axes restored to original set *****
 -------------------------------------------------------------------
 Center     Atomic                   Forces (Hartrees/Bohr)
 Number     Number              X              Y              Z
 -------------------------------------------------------------------
      1        8           0.008939021    0.012648422    0.000000000
      2        1          -0.020111703    0.004730598    0.000000000
      3        1           0.011172682   -0.017379020    0.000000000
 -------------------------------------------------------------------
 Cartesian Forces:  Max     0.020111703 RMS     0.011023243

 GradGradGradGradGradGradGradGradGradGradGradGradGradGradGradGradGradGrad
 Berny optimization.
 Internal  Forces:  Max     0.020111703 RMS     0.017152368
 Search for a local minimum.
 Step number   1 out of a maximum of   20
 All quantities printed in internal units (Hartrees-Bohrs-Radians)
 Mixed Optimization -- RFO/linear search
 Second derivative matrix not updated -- first step.
 The second derivative matrix:
                          R1        R2        A1
           R1           0.55473
           R2           0.00000   0.55473
           A1           0.00000   0.00000   0.16000
     Eigenvalues ---    0.16000   0.55473   0.55473
 RFO step:  Lambda=-1.90817494D-03 EMin= 1.60000000D-01
 Linear search not attempted -- first point.
 Iteration  1 RMS(Cart)=  0.04744709 RMS(Int)=  0.00080511
 Iteration  2 RMS(Cart)=  0.00052594 RMS(Int)=  0.00000027
 Iteration  3 RMS(Cart)=  0.00000031 RMS(Int)=  0.00000000
 ClnCor:  largest displacement from symmetrization is 1.12D-15 for atom     3.
 Variable       Old X    -DE/DX   Delta X   Delta X   Delta X     New X
                                 (Linear)    (Quad)   (Total)
    R1        1.81414  -0.02011   0.00000  -0.03613  -0.03613   1.77801
    R2        1.81414  -0.02011   0.00000  -0.03613  -0.03613   1.77801
    A1        1.91114  -0.00858   0.00000  -0.05301  -0.05301   1.85813
         Item               Value     Threshold  Converged?
 Maximum Force            0.020112     0.000450     NO 
 RMS     Force            0.017152     0.000300     NO 
 Maximum Displacement     0.050040     0.001800     NO 
 RMS     Displacement     0.047414     0.001200     NO 
 Predicted change in Energy=-9.592588D-04
 GradGradGradGradGradGradGradGradGradGradGradGradGradGradGradGradGradGrad

                          Input orientation:                          
 ---------------------------------------------------------------------
 Center     Atomic      Atomic             Coordinates (Angstroms)
 Number     Number       Type             X           Y           Z
 ---------------------------------------------------------------------
      1          8           0       -0.192838   -0.568884    0.000000
      2          1           0        0.747712   -0.543951    0.000000
      3          1           0       -0.483298    0.326041    0.000000
 ---------------------------------------------------------------------
                    Distance matrix (angstroms):
                    1          2          3
     1  O    0.000000
     2  H    0.940881   0.000000
     3  H    0.940881   1.507405   0.000000
 Stoichiometry    H2O
 Framework group  C2V[C2(O),SGV(H2)]
 Deg. of freedom     2
 Full point group                 C2V     NOp   4
 Largest Abelian subgroup         C2V     NOp   4
 Largest concise Abelian subgroup C2      NOp   2
                         Standard orientation:                         
 ---------------------------------------------------------------------
 Center     Atomic      Atomic             Coordinates (Angstroms)
 Number     Number       Type             X           Y           Z
 ---------------------------------------------------------------------
      1          8           0        0.000000    0.000000    0.112639
      2          1           0        0.000000    0.753703   -0.450556
      3          1           0        0.000000   -0.753703   -0.450556
 ---------------------------------------------------------------------
 Rotational constants (GHZ):    890.0810889    441.3692855    295.0575266
 Standard basis: 6-31+G(d,p) (6D, 7F)
 There are    14 symmetry adapted basis functions of A1  symmetry.
 There are     2 symmetry adapted basis functions of A2  symmetry.
 There are     5 symmetry adapted basis functions of B1  symmetry.
 There are     8 symmetry adapted basis functions of B2  symmetry.
 Integral buffers will be    262144 words long.
 Raffenetti 1 integral format.
 Two-electron integral symmetry is turned on.
    29 basis functions,    46 primitive gaussians,    29 cartesian basis functions
     5 alpha electrons        5 beta electrons
       nuclear repulsion energy         9.3498930264 Hartrees.
 NAtoms=    3 NActive=    3 NUniq=    2 SFac= 1.69D+00 NAtFMM=   80 NAOKFM=F Big=F
 One-electron integrals computed using PRISM.
 NBasis=    29 RedAO= T  NBF=    14     2     5     8
 NBsUse=    29 1.00D-06 NBFU=    14     2     5     8
 Initial guess read from the read-write file.
 B after Tr=     0.000000    0.000000    0.000000
         Rot=    1.000000    0.000000    0.000000    0.000000 Ang=   0.00 deg.
 Initial guess orbital symmetries:
       Occupied  (A1) (A1) (B2) (A1) (B1)
       Virtual   (A1) (B2) (A1) (B1) (B2) (A1) (B2) (A1) (B2) (A1)
                 (B1) (A1) (A2) (A1) (B1) (B2) (A1) (B2) (B1) (A2)
                 (A1) (A1) (B2) (A1)
 Harris functional with IExCor=  205 diagonalized for initial guess.
 ExpMin= 8.45D-02 ExpMax= 5.48D+03 ExpMxC= 8.25D+02 IAcc=2 IRadAn=         0 AccDes= 0.00D+00
 HarFok:  IExCor=  205 AccDes= 0.00D+00 IRadAn=         0 IDoV= 1
 ScaDFX=  1.000000  1.000000  1.000000  1.000000
 FoFCou: FMM=F IPFlag=           0 FMFlag=      100000 FMFlg1=           0
         NFxFlg=           0 DoJE=T BraDBF=F KetDBF=T FulRan=T
         Omega=  0.000000  0.000000  1.000000  0.000000  0.000000 ICntrl=     500 IOpCl=  0
         NMat0=    1 NMatS0=    1 NMatT0=    0 NMatD0=    1 NMtDS0=    0 NMtDT0=    0
         I1Cent=           4 NGrid=           0.
 Petite list used in FoFCou.
 Requested convergence on RMS density matrix=1.00D-08 within 128 cycles.
 Requested convergence on MAX density matrix=1.00D-06.
 Requested convergence on             energy=1.00D-06.
 No special actions if energy rises.
 Keep R1 ints in memory in canonical form, NReq=935890.
 SCF Done:  E(RHF) =  -76.0312058340     A.U. after   11 cycles
             Convg  =    0.6325D-08             -V/T =  2.0029
 Calling FoFJK, ICntrl=      2127 FMM=F ISym2X=1 I1Cent= 0 IOpClX= 0 NMat=1 NMatS=1 NMatT=0.
 ***** Axes restored to original set *****
 -------------------------------------------------------------------
 Center     Atomic                   Forces (Hartrees/Bohr)
 Number     Number              X              Y              Z
 -------------------------------------------------------------------
      1        8          -0.000898490   -0.001271333    0.000000000
      2        1           0.002984414   -0.001156014    0.000000000
      3        1          -0.002085924    0.002427347    0.000000000
 -------------------------------------------------------------------
 Cartesian Forces:  Max     0.002984414 RMS     0.001595471

 GradGradGradGradGradGradGradGradGradGradGradGradGradGradGradGradGradGrad
 Berny optimization.
 Using GEDIIS/GDIIS optimizer.
 Internal  Forces:  Max     0.002952732 RMS     0.002723757
 Search for a local minimum.
 Step number   2 out of a maximum of   20
 All quantities printed in internal units (Hartrees-Bohrs-Radians)
 Mixed Optimization -- RFO/linear search
 Update second derivatives using D2CorX and points    1    2
 DE= -8.12D-04 DEPred=-9.59D-04 R= 8.46D-01
 SS=  1.41D+00  RLast= 7.36D-02 DXNew= 5.0454D-01 2.2087D-01
 Trust test= 8.46D-01 RLast= 7.36D-02 DXMaxT set to 3.00D-01
 The second derivative matrix:
                          R1        R2        A1
           R1           0.58077
           R2           0.02604   0.58077
           A1           0.02151   0.02151   0.17400
 Use linear search instead of GDIIS.
     Eigenvalues ---    0.17188   0.55473   0.60894
 RFO step:  Lambda=-2.26566086D-06 EMin= 1.71875501D-01
 Quartic linear search produced a step of -0.14001.
 Iteration  1 RMS(Cart)=  0.00779981 RMS(Int)=  0.00002530
 Iteration  2 RMS(Cart)=  0.00001660 RMS(Int)=  0.00000000
 Iteration  3 RMS(Cart)=  0.00000000 RMS(Int)=  0.00000000
 ClnCor:  largest displacement from symmetrization is 2.83D-15 for atom     3.
 Variable       Old X    -DE/DX   Delta X   Delta X   Delta X     New X
                                 (Linear)    (Quad)   (Total)
    R1        1.77801   0.00295   0.00506  -0.00075   0.00431   1.78232
    R2        1.77801   0.00295   0.00506  -0.00075   0.00431   1.78232
    A1        1.85813   0.00220   0.00742   0.00321   0.01063   1.86876
         Item               Value     Threshold  Converged?
 Maximum Force            0.002953     0.000450     NO 
 RMS     Force            0.002724     0.000300     NO 
 Maximum Displacement     0.008399     0.001800     NO 
 RMS     Displacement     0.007800     0.001200     NO 
 Predicted change in Energy=-2.571422D-05
 GradGradGradGradGradGradGradGradGradGradGradGradGradGradGradGradGradGrad

                          Input orientation:                          
 ---------------------------------------------------------------------
 Center     Atomic      Atomic             Coordinates (Angstroms)
 Number     Number       Type             X           Y           Z
 ---------------------------------------------------------------------
      1          8           0       -0.191816   -0.567436    0.000000
      2          1           0        0.751134   -0.547454    0.000000
      3          1           0       -0.487742    0.328097    0.000000
 ---------------------------------------------------------------------
                    Distance matrix (angstroms):
                    1          2          3
     1  O    0.000000
     2  H    0.943161   0.000000
     3  H    0.943161   1.517038   0.000000
 Stoichiometry    H2O
 Framework group  C2V[C2(O),SGV(H2)]
 Deg. of freedom     2
 Full point group                 C2V     NOp   4
 Largest Abelian subgroup         C2V     NOp   4
 Largest concise Abelian subgroup C2      NOp   2
                         Standard orientation:                         
 ---------------------------------------------------------------------
 Center     Atomic      Atomic             Coordinates (Angstroms)
 Number     Number       Type             X           Y           Z
 ---------------------------------------------------------------------
      1          8           0        0.000000    0.000000    0.112107
      2          1           0        0.000000    0.758519   -0.448429
      3          1           0        0.000000   -0.758519   -0.448429
 ---------------------------------------------------------------------
 Rotational constants (GHZ):    898.5435054    435.7820377    293.4584606
 Standard basis: 6-31+G(d,p) (6D, 7F)
 There are    14 symmetry adapted basis functions of A1  symmetry.
 There are     2 symmetry adapted basis functions of A2  symmetry.
 There are     5 symmetry adapted basis functions of B1  symmetry.
 There are     8 symmetry adapted basis functions of B2  symmetry.
 Integral buffers will be    262144 words long.
 Raffenetti 1 integral format.
 Two-electron integral symmetry is turned on.
    29 basis functions,    46 primitive gaussians,    29 cartesian basis functions
     5 alpha electrons        5 beta electrons
       nuclear repulsion energy         9.3259079793 Hartrees.
 NAtoms=    3 NActive=    3 NUniq=    2 SFac= 1.69D+00 NAtFMM=   80 NAOKFM=F Big=F
 One-electron integrals computed using PRISM.
 NBasis=    29 RedAO= T  NBF=    14     2     5     8
 NBsUse=    29 1.00D-06 NBFU=    14     2     5     8
 Initial guess read from the read-write file.
 B after Tr=     0.000000    0.000000    0.000000
         Rot=    1.000000    0.000000    0.000000    0.000000 Ang=   0.00 deg.
 Initial guess orbital symmetries:
       Occupied  (A1) (A1) (B2) (A1) (B1)
       Virtual   (A1) (B2) (A1) (B1) (B2) (A1) (B2) (A1) (B2) (A1)
                 (B1) (A1) (A2) (A1) (B1) (B2) (A1) (B2) (B1) (A2)
                 (A1) (A1) (B2) (A1)
 Requested convergence on RMS density matrix=1.00D-08 within 128 cycles.
 Requested convergence on MAX density matrix=1.00D-06.
 Requested convergence on             energy=1.00D-06.
 No special actions if energy rises.
 Keep R1 ints in memory in canonical form, NReq=935890.
 SCF Done:  E(RHF) =  -76.0312304922     A.U. after    8 cycles
             Convg  =    0.2625D-08             -V/T =  2.0031
 Calling FoFJK, ICntrl=      2127 FMM=F ISym2X=1 I1Cent= 0 IOpClX= 0 NMat=1 NMatS=1 NMatT=0.
 ***** Axes restored to original set *****
 -------------------------------------------------------------------
 Center     Atomic                   Forces (Hartrees/Bohr)
 Number     Number              X              Y              Z
 -------------------------------------------------------------------
      1        8           0.000128066    0.000181209    0.000000000
      2        1          -0.000084933   -0.000075834    0.000000000
      3        1          -0.000043133   -0.000105376    0.000000000
 -------------------------------------------------------------------
 Cartesian Forces:  Max     0.000181209 RMS     0.000091389

 GradGradGradGradGradGradGradGradGradGradGradGradGradGradGradGradGradGrad
 Berny optimization.
 Using GEDIIS/GDIIS optimizer.
 Internal  Forces:  Max     0.000131922 RMS     0.000103883
 Search for a local minimum.
 Step number   3 out of a maximum of   20
 All quantities printed in internal units (Hartrees-Bohrs-Radians)
 Mixed Optimization -- En-DIIS/RFO-DIIS
 Update second derivatives using D2CorX and points    1    2    3
 DE= -2.47D-05 DEPred=-2.57D-05 R= 9.59D-01
 SS=  1.41D+00  RLast= 1.23D-02 DXNew= 5.0454D-01 3.6756D-02
 Trust test= 9.59D-01 RLast= 1.23D-02 DXMaxT set to 3.00D-01
 The second derivative matrix:
                          R1        R2        A1
           R1           0.59720
           R2           0.04247   0.59720
           A1           0.02662   0.02662   0.17254
 Use linear search instead of GDIIS.
     Eigenvalues ---    0.16953   0.55473   0.64269
 RFO step:  Lambda=-1.28428324D-07 EMin= 1.69531384D-01
 Quartic linear search produced a step of  0.01375.
 Iteration  1 RMS(Cart)=  0.00040503 RMS(Int)=  0.00000013
 Iteration  2 RMS(Cart)=  0.00000013 RMS(Int)=  0.00000000
 ClnCor:  largest displacement from symmetrization is 8.95D-16 for atom     3.
 Variable       Old X    -DE/DX   Delta X   Delta X   Delta X     New X
                                 (Linear)    (Quad)   (Total)
    R1        1.78232  -0.00009   0.00006  -0.00023  -0.00017   1.78215
    R2        1.78232  -0.00009   0.00006  -0.00023  -0.00017   1.78215
    A1        1.86876   0.00013   0.00015   0.00067   0.00082   1.86958
         Item               Value     Threshold  Converged?
 Maximum Force            0.000132     0.000450     YES
 RMS     Force            0.000104     0.000300     YES
 Maximum Displacement     0.000375     0.001800     YES
 RMS     Displacement     0.000405     0.001200     YES
 Predicted change in Energy=-6.851849D-08
 Optimization completed.
    -- Stationary point found.
                           ----------------------------
                           !   Optimized Parameters   !
                           ! (Angstroms and Degrees)  !
 --------------------------                            --------------------------
 ! Name  Definition              Value          Derivative Info.                !
 --------------------------------------------------------------------------------
 ! R1    R(1,2)                  0.9432         -DE/DX =   -0.0001              !
 ! R2    R(1,3)                  0.9432         -DE/DX =   -0.0001              !
 ! A1    A(2,1,3)              107.072          -DE/DX =    0.0001              !
 --------------------------------------------------------------------------------
 GradGradGradGradGradGradGradGradGradGradGradGradGradGradGradGradGradGrad

                          Input orientation:                          
 ---------------------------------------------------------------------
 Center     Atomic      Atomic             Coordinates (Angstroms)
 Number     Number       Type             X           Y           Z
 ---------------------------------------------------------------------
      1          8           0       -0.191816   -0.567436    0.000000
      2          1           0        0.751134   -0.547454    0.000000
      3          1           0       -0.487742    0.328097    0.000000
 ---------------------------------------------------------------------
                    Distance matrix (angstroms):
                    1          2          3
     1  O    0.000000
     2  H    0.943161   0.000000
     3  H    0.943161   1.517038   0.000000
 Stoichiometry    H2O
 Framework group  C2V[C2(O),SGV(H2)]
 Deg. of freedom     2
 Full point group                 C2V     NOp   4
 Largest Abelian subgroup         C2V     NOp   4
 Largest concise Abelian subgroup C2      NOp   2
                         Standard orientation:                         
 ---------------------------------------------------------------------
 Center     Atomic      Atomic             Coordinates (Angstroms)
 Number     Number       Type             X           Y           Z
 ---------------------------------------------------------------------
      1          8           0        0.000000    0.000000    0.112107
      2          1           0        0.000000    0.758519   -0.448429
      3          1           0        0.000000   -0.758519   -0.448429
 ---------------------------------------------------------------------
 Rotational constants (GHZ):    898.5435054    435.7820377    293.4584606

 **********************************************************************

            Population analysis using the SCF density.

 **********************************************************************

 Orbital symmetries:
       Occupied  (A1) (A1) (B2) (A1) (B1)
       Virtual   (A1) (B2) (A1) (B1) (B2) (A1) (B2) (A1) (B2) (A1)
                 (B1) (A1) (A2) (A1) (B1) (B2) (A1) (B2) (B1) (A2)
                 (A1) (A1) (B2) (A1)
 The electronic state is 1-A1.
 Alpha  occ. eigenvalues --  -20.57900  -1.36217  -0.73277  -0.58113  -0.50975
 Alpha virt. eigenvalues --    0.14614   0.21855   0.25040   0.25219   0.36291
 Alpha virt. eigenvalues --    0.38954   1.19233   1.28298   1.33529   1.38852
 Alpha virt. eigenvalues --    1.40512   1.45718   1.78569   1.82867   1.92314
 Alpha virt. eigenvalues --    2.56682   2.58884   2.90293   2.98924   2.99954
 Alpha virt. eigenvalues --    3.41022   3.76245   3.93296   4.35390
          Condensed to atoms (all electrons):
              1          2          3
     1  O    8.128071   0.303200   0.303200
     2  H    0.303200   0.354522  -0.024958
     3  H    0.303200  -0.024958   0.354522
 Mulliken atomic charges:
              1
     1  O   -0.734471
     2  H    0.367236
     3  H    0.367236
 Sum of Mulliken atomic charges =   0.00000
 Mulliken charges with hydrogens summed into heavy atoms:
              1
     1  O    0.000000
 Sum of Mulliken charges with hydrogens summed into heavy atoms =   0.00000
 Electronic spatial extent (au):  <R**2>=             19.3318
 Charge=              0.0000 electrons
 Dipole moment (field-independent basis, Debye):
    X=              0.0000    Y=              0.0000    Z=             -2.2349  Tot=              2.2349
 Quadrupole moment (field-independent basis, Debye-Ang):
   XX=             -7.5922   YY=             -4.1338   ZZ=             -6.3343
   XY=              0.0000   XZ=              0.0000   YZ=              0.0000
 Traceless Quadrupole moment (field-independent basis, Debye-Ang):
   XX=             -1.5721   YY=              1.8863   ZZ=             -0.3142
   XY=              0.0000   XZ=              0.0000   YZ=              0.0000
 Octapole moment (field-independent basis, Debye-Ang**2):
  XXX=              0.0000  YYY=              0.0000  ZZZ=             -1.6290  XYY=              0.0000
  XXY=              0.0000  XXZ=             -0.4660  XZZ=              0.0000  YZZ=              0.0000
  YYZ=             -1.4576  XYZ=              0.0000
 Hexadecapole moment (field-independent basis, Debye-Ang**3):
 XXXX=             -6.7261 YYYY=             -5.5683 ZZZZ=             -7.0860 XXXY=              0.0000
 XXXZ=              0.0000 YYYX=              0.0000 YYYZ=              0.0000 ZZZX=              0.0000
 ZZZY=              0.0000 XXYY=             -2.3478 XXZZ=             -2.3505 YYZZ=             -1.8001
 XXYZ=              0.0000 YYXZ=              0.0000 ZZXY=              0.0000
 N-N= 9.325907979349D+00 E-N=-1.989818401900D+02  KE= 7.579721324082D+01
 Symmetry A1   KE= 6.776391111853D+01
 Symmetry A2   KE= 5.009652632501D-37
 Symmetry B1   KE= 4.452022286731D+00
 Symmetry B2   KE= 3.581279835560D+00
 1|1|UNPC-DESKTOP-319GPER|FOpt|RHF|6-31+G(d,p)|H2O1|SAGAD|08-Oct-2020|0
 ||#opt freq HF/6-31+g(d,p)||Calculation of water HF||0,1|O,-0.19181559
 41,-0.5674362822,0.|H,0.7511335543,-0.5474540941,0.|H,-0.4877424284,0.
 328096907,0.||Version=IA32W-G09RevA.02|State=1-A1|HF=-76.0312305|RMSD=
 2.625e-009|RMSF=9.139e-005|Dipole=0.507466,0.7180478,0.|Quadrupole=0.8
 57467,0.3113405,-1.1688075,-0.7711069,0.,0.|PG=C02V [C2(O1),SGV(H2)]||
 @


 SCIENCE IS A VERY HUMAN FORM OF KNOWLEDGE.
 WE ARE ALWAYS AT THE BRINK OF THE KNOWN,
 WE ALWAYS FEEL FORWARD FOR WHAT IS HOPED.
 EVERY JUDGEMENT IN SCIENCE STANDS ON THE EDGE OF ERROR, AND IS PERSONAL.
 SCIENCE IS A TRIBUTE TO WHAT WE CAN KNOW ALTHOUGH WE ARE FALLIBLE.

                     -- J. BRONOWSKI
 Job cpu time:  0 days  0 hours  0 minutes  3.0 seconds.
 File lengths (MBytes):  RWF=      5 Int=      0 D2E=      0 Chk=      1 Scr=      1
 Normal termination of Gaussian 09 at Thu Oct 08 03:09:27 2020.
 Link1:  Proceeding to internal job step number  2.
 --------------------------------------------------------------------
 #N Geom=AllCheck Guess=TCheck SCRF=Check GenChk RHF/6-31+G(d,p) Freq
 --------------------------------------------------------------------
 1/10=4,29=7,30=1,38=1,40=1/1,3;
 2/12=2,40=1/2;
 3/5=1,6=6,7=111,11=1,14=-4,16=1,25=1,30=1,70=2,71=2,116=1/1,2,3;
 4/5=101/1;
 5/5=2,98=1/2;
 8/6=4,10=90,11=11/1;
 10/13=10,15=4/2;
 11/6=3,8=1,9=11,15=111,16=1/1,2,10;
 10/6=1/2;
 6/7=2,8=2,9=2,10=2,18=1,28=1/1;
 7/8=1,10=1,25=1/1,2,3,16;
 1/10=4,30=1/3;
 99//99;
 -----------------------
 Calculation of water HF
 -----------------------
 Redundant internal coordinates taken from checkpoint file:
 C:\Users\sagad\Documents\rayGit\FQ\quimicaComputacional\class4Metilo\productos\waterHF.chk
 Charge =  0 Multiplicity = 1
 O,0,-0.1918155941,-0.5674362822,0.
 H,0,0.7511335543,-0.5474540941,0.
 H,0,-0.4877424284,0.328096907,0.
 Recover connectivity data from disk.

 GradGradGradGradGradGradGradGradGradGradGradGradGradGradGradGradGradGrad
 Berny optimization.
 Initialization pass.
                           ----------------------------
                           !    Initial Parameters    !
                           ! (Angstroms and Degrees)  !
 --------------------------                            --------------------------
 ! Name  Definition              Value          Derivative Info.                !
 --------------------------------------------------------------------------------
 ! R1    R(1,2)                  0.9432         calculate D2E/DX2 analytically  !
 ! R2    R(1,3)                  0.9432         calculate D2E/DX2 analytically  !
 ! A1    A(2,1,3)              107.072          calculate D2E/DX2 analytically  !
 --------------------------------------------------------------------------------
 Trust Radius=3.00D-01 FncErr=1.00D-07 GrdErr=1.00D-07
 Number of steps in this run=   2 maximum allowed number of steps=   2.
 GradGradGradGradGradGradGradGradGradGradGradGradGradGradGradGradGradGrad

                          Input orientation:                          
 ---------------------------------------------------------------------
 Center     Atomic      Atomic             Coordinates (Angstroms)
 Number     Number       Type             X           Y           Z
 ---------------------------------------------------------------------
      1          8           0       -0.191816   -0.567436    0.000000
      2          1           0        0.751134   -0.547454    0.000000
      3          1           0       -0.487742    0.328097    0.000000
 ---------------------------------------------------------------------
                    Distance matrix (angstroms):
                    1          2          3
     1  O    0.000000
     2  H    0.943161   0.000000
     3  H    0.943161   1.517038   0.000000
 Stoichiometry    H2O
 Framework group  C2V[C2(O),SGV(H2)]
 Deg. of freedom     2
 Full point group                 C2V     NOp   4
 Largest Abelian subgroup         C2V     NOp   4
 Largest concise Abelian subgroup C2      NOp   2
                         Standard orientation:                         
 ---------------------------------------------------------------------
 Center     Atomic      Atomic             Coordinates (Angstroms)
 Number     Number       Type             X           Y           Z
 ---------------------------------------------------------------------
      1          8           0        0.000000    0.000000    0.112107
      2          1           0        0.000000    0.758519   -0.448429
      3          1           0        0.000000   -0.758519   -0.448429
 ---------------------------------------------------------------------
 Rotational constants (GHZ):    898.5435054    435.7820377    293.4584606
 Standard basis: 6-31+G(d,p) (6D, 7F)
 There are    14 symmetry adapted basis functions of A1  symmetry.
 There are     2 symmetry adapted basis functions of A2  symmetry.
 There are     5 symmetry adapted basis functions of B1  symmetry.
 There are     8 symmetry adapted basis functions of B2  symmetry.
 Integral buffers will be    262144 words long.
 Raffenetti 1 integral format.
 Two-electron integral symmetry is turned on.
    29 basis functions,    46 primitive gaussians,    29 cartesian basis functions
     5 alpha electrons        5 beta electrons
       nuclear repulsion energy         9.3259079793 Hartrees.
 NAtoms=    3 NActive=    3 NUniq=    2 SFac= 1.69D+00 NAtFMM=   80 NAOKFM=F Big=F
 One-electron integrals computed using PRISM.
 NBasis=    29 RedAO= T  NBF=    14     2     5     8
 NBsUse=    29 1.00D-06 NBFU=    14     2     5     8
 Initial guess read from the checkpoint file:  C:\Users\sagad\Documents\rayGit\FQ
 \quimicaComputacional\class4Metilo\productos\waterHF.chk
 B after Tr=     0.000000    0.000000    0.000000
         Rot=    1.000000    0.000000    0.000000    0.000000 Ang=   0.00 deg.
 Initial guess orbital symmetries:
       Occupied  (A1) (A1) (B2) (A1) (B1)
       Virtual   (A1) (B2) (A1) (B1) (B2) (A1) (B2) (A1) (B2) (A1)
                 (B1) (A1) (A2) (A1) (B1) (B2) (A1) (B2) (B1) (A2)
                 (A1) (A1) (B2) (A1)
 Requested convergence on RMS density matrix=1.00D-08 within 128 cycles.
 Requested convergence on MAX density matrix=1.00D-06.
 Requested convergence on             energy=1.00D-06.
 No special actions if energy rises.
 Keep R1 ints in memory in canonical form, NReq=935890.
 SCF Done:  E(RHF) =  -76.0312304922     A.U. after    1 cycles
             Convg  =    0.1847D-09             -V/T =  2.0031
 Range of M.O.s used for correlation:     1    29
 NBasis=    29 NAE=     5 NBE=     5 NFC=     0 NFV=     0
 NROrb=     29 NOA=     5 NOB=     5 NVA=    24 NVB=    24
          Differentiating once with respect to electric field.
                with respect to dipole field.
          Electric field/nuclear overlap derivatives assumed to be zero.
          Keep R1 ints in memory in canonical form, NReq=915164.
          There are     3 degrees of freedom in the 1st order CPHF.  IDoFFX=0.
      3 vectors produced by pass  0 Test12= 4.00D-15 3.33D-08 XBig12= 1.27D+00 7.29D-01.
 AX will form     3 AO Fock derivatives at one time.
      3 vectors produced by pass  1 Test12= 4.00D-15 3.33D-08 XBig12= 7.38D-02 1.26D-01.
      3 vectors produced by pass  2 Test12= 4.00D-15 3.33D-08 XBig12= 8.33D-03 3.70D-02.
      3 vectors produced by pass  3 Test12= 4.00D-15 3.33D-08 XBig12= 3.41D-04 8.52D-03.
      3 vectors produced by pass  4 Test12= 4.00D-15 3.33D-08 XBig12= 5.70D-06 1.35D-03.
      3 vectors produced by pass  5 Test12= 4.00D-15 3.33D-08 XBig12= 4.99D-08 9.38D-05.
      3 vectors produced by pass  6 Test12= 4.00D-15 3.33D-08 XBig12= 2.07D-10 5.92D-06.
      3 vectors produced by pass  7 Test12= 4.00D-15 3.33D-08 XBig12= 1.61D-12 4.94D-07.
      1 vectors produced by pass  8 Test12= 4.00D-15 3.33D-08 XBig12= 3.17D-14 7.21D-08.
 Inverted reduced A of dimension    25 with in-core refinement.
 End of Minotr Frequency-dependent properties file   721 does not exist.
 End of Minotr Frequency-dependent properties file   722 does not exist.
 Symmetrizing basis deriv contribution to polar:
 IMax=3 JMax=2 DiffMx= 0.00D+00
 G2DrvN: will do     4 centers at a time, making    1 passes doing MaxLOS=2.
 Calling FoFCou, ICntrl=  3107 FMM=F I1Cent=   0 AccDes= 0.00D+00.
 FoFDir/FoFCou used for L=0 through L=2.
 End of G2Drv Frequency-dependent properties file   721 does not exist.
 End of G2Drv Frequency-dependent properties file   722 does not exist.
          IDoAtm=111
          Differentiating once with respect to electric field.
                with respect to dipole field.
          Differentiating once with respect to nuclear coordinates.
          Keep R1 ints in memory in canonical form, NReq=915199.
          There are     9 degrees of freedom in the 1st order CPHF.  IDoFFX=4.
 Will reuse    3 saved solutions.
      6 vectors produced by pass  0 Test12= 1.33D-15 1.11D-08 XBig12= 2.97D-02 8.53D-02.
 AX will form     6 AO Fock derivatives at one time.
      6 vectors produced by pass  1 Test12= 1.33D-15 1.11D-08 XBig12= 3.05D-03 2.47D-02.
      6 vectors produced by pass  2 Test12= 1.33D-15 1.11D-08 XBig12= 2.38D-04 9.65D-03.
      6 vectors produced by pass  3 Test12= 1.33D-15 1.11D-08 XBig12= 4.73D-06 8.78D-04.
      6 vectors produced by pass  4 Test12= 1.33D-15 1.11D-08 XBig12= 5.83D-08 1.09D-04.
      6 vectors produced by pass  5 Test12= 1.33D-15 1.11D-08 XBig12= 4.89D-10 8.81D-06.
      5 vectors produced by pass  6 Test12= 1.33D-15 1.11D-08 XBig12= 1.20D-12 4.62D-07.
      1 vectors produced by pass  7 Test12= 1.33D-15 1.11D-08 XBig12= 2.64D-15 2.97D-08.
 Inverted reduced A of dimension    42 with in-core refinement.
 Isotropic polarizability for W=    0.000000        5.99 Bohr**3.
 End of Minotr Frequency-dependent properties file   721 does not exist.
 End of Minotr Frequency-dependent properties file   722 does not exist.

 **********************************************************************

            Population analysis using the SCF density.

 **********************************************************************

 Orbital symmetries:
       Occupied  (A1) (A1) (B2) (A1) (B1)
       Virtual   (A1) (B2) (A1) (B1) (B2) (A1) (B2) (A1) (B2) (A1)
                 (B1) (A1) (A2) (A1) (B1) (B2) (A1) (B2) (B1) (A2)
                 (A1) (A1) (B2) (A1)
 The electronic state is 1-A1.
 Alpha  occ. eigenvalues --  -20.57900  -1.36217  -0.73277  -0.58113  -0.50975
 Alpha virt. eigenvalues --    0.14614   0.21855   0.25040   0.25219   0.36291
 Alpha virt. eigenvalues --    0.38954   1.19233   1.28298   1.33529   1.38852
 Alpha virt. eigenvalues --    1.40512   1.45718   1.78569   1.82867   1.92314
 Alpha virt. eigenvalues --    2.56682   2.58884   2.90293   2.98924   2.99954
 Alpha virt. eigenvalues --    3.41022   3.76245   3.93296   4.35390
          Condensed to atoms (all electrons):
              1          2          3
     1  O    8.128071   0.303200   0.303200
     2  H    0.303200   0.354522  -0.024958
     3  H    0.303200  -0.024958   0.354522
 Mulliken atomic charges:
              1
     1  O   -0.734471
     2  H    0.367236
     3  H    0.367236
 Sum of Mulliken atomic charges =   0.00000
 Mulliken charges with hydrogens summed into heavy atoms:
              1
     1  O    0.000000
 Sum of Mulliken charges with hydrogens summed into heavy atoms =   0.00000
 APT atomic charges:
              1
     1  O   -0.643839
     2  H    0.321920
     3  H    0.321920
 Sum of APT charges=   0.00000
 APT Atomic charges with hydrogens summed into heavy atoms:
              1
     1  O    0.000000
     2  H    0.000000
     3  H    0.000000
 Sum of APT charges=   0.00000
 Electronic spatial extent (au):  <R**2>=             19.3318
 Charge=              0.0000 electrons
 Dipole moment (field-independent basis, Debye):
    X=              0.0000    Y=              0.0000    Z=             -2.2349  Tot=              2.2349
 Quadrupole moment (field-independent basis, Debye-Ang):
   XX=             -7.5922   YY=             -4.1338   ZZ=             -6.3343
   XY=              0.0000   XZ=              0.0000   YZ=              0.0000
 Traceless Quadrupole moment (field-independent basis, Debye-Ang):
   XX=             -1.5721   YY=              1.8863   ZZ=             -0.3142
   XY=              0.0000   XZ=              0.0000   YZ=              0.0000
 Octapole moment (field-independent basis, Debye-Ang**2):
  XXX=              0.0000  YYY=              0.0000  ZZZ=             -1.6290  XYY=              0.0000
  XXY=              0.0000  XXZ=             -0.4660  XZZ=              0.0000  YZZ=              0.0000
  YYZ=             -1.4576  XYZ=              0.0000
 Hexadecapole moment (field-independent basis, Debye-Ang**3):
 XXXX=             -6.7261 YYYY=             -5.5683 ZZZZ=             -7.0860 XXXY=              0.0000
 XXXZ=              0.0000 YYYX=              0.0000 YYYZ=              0.0000 ZZZX=              0.0000
 ZZZY=              0.0000 XXYY=             -2.3478 XXZZ=             -2.3505 YYZZ=             -1.8001
 XXYZ=              0.0000 YYXZ=              0.0000 ZZXY=              0.0000
 N-N= 9.325907979349D+00 E-N=-1.989818402079D+02  KE= 7.579721325205D+01
 Symmetry A1   KE= 6.776391112779D+01
 Symmetry A2   KE=-2.298021115666D-36
 Symmetry B1   KE= 4.452022292155D+00
 Symmetry B2   KE= 3.581279832100D+00
  Exact polarizability:   5.243   0.000   7.079   0.000   0.000   5.634
 Approx polarizability:   3.986   0.000   5.856   0.000   0.000   4.524
 Calling FoFJK, ICntrl=    100127 FMM=F ISym2X=1 I1Cent= 0 IOpClX= 0 NMat=1 NMatS=1 NMatT=0.
 Full mass-weighted force constant matrix:
 Low frequencies ---   -0.0021   -0.0017   -0.0012   21.6359   36.4013   55.6081
 Low frequencies --- 1730.4099 4148.0570 4269.9005
 Diagonal vibrational polarizability:
        0.0000000       0.1362429       1.0754020
 Diagonal vibrational hyperpolarizability:
        0.0000000       0.0000000      -5.6882475
 Harmonic frequencies (cm**-1), IR intensities (KM/Mole), Raman scattering
 activities (A**4/AMU), depolarization ratios for plane and unpolarized
 incident light, reduced masses (AMU), force constants (mDyne/A),
 and normal coordinates:
                     1                      2                      3
                    A1                     A1                     B2
 Frequencies --  1730.4099              4148.0570              4269.9005
 Red. masses --     1.0836                 1.0443                 1.0844
 Frc consts  --     1.9117                10.5870                11.6486
 IR Inten    --   115.8345                21.9615                92.3031
 Raman Activ --     2.8774                74.5181                36.1735
 Depolar (P) --     0.6133                 0.1166                 0.7500
 Depolar (U) --     0.7603                 0.2089                 0.8571
  Atom  AN      X      Y      Z        X      Y      Z        X      Y      Z
     1   8     0.00   0.00   0.07     0.00   0.00   0.05     0.00   0.07   0.00
     2   1     0.00  -0.42  -0.56     0.00   0.59  -0.39     0.00  -0.57   0.42
     3   1     0.00   0.42  -0.56     0.00  -0.59  -0.39     0.00  -0.57  -0.42

 -------------------
 - Thermochemistry -
 -------------------
 Temperature   298.150 Kelvin.  Pressure   1.00000 Atm.
 Atom     1 has atomic number  8 and mass  15.99491
 Atom     2 has atomic number  1 and mass   1.00783
 Atom     3 has atomic number  1 and mass   1.00783
 Molecular mass:    18.01056 amu.
 Principal axes and moments of inertia in atomic units:
                           1         2         3
     Eigenvalues --     2.00852   4.14139   6.14990
           X            0.00000   0.00000   1.00000
           Y            1.00000   0.00000   0.00000
           Z            0.00000   1.00000   0.00000
 This molecule is an asymmetric top.
 Rotational symmetry number  2.
 Rotational temperatures (Kelvin)     43.12324    20.91421    14.08377
 Rotational constants (GHZ):         898.54351   435.78204   293.45846
 Zero-point vibrational energy      60700.7 (Joules/Mol)
                                   14.50782 (Kcal/Mol)
 Vibrational temperatures:   2489.67  5968.12  6143.43
          (Kelvin)
 
 Zero-point correction=                           0.023120 (Hartree/Particle)
 Thermal correction to Energy=                    0.025954
 Thermal correction to Enthalpy=                  0.026898
 Thermal correction to Gibbs Free Energy=         0.005542
 Sum of electronic and zero-point Energies=            -76.008111
 Sum of electronic and thermal Energies=               -76.005276
 Sum of electronic and thermal Enthalpies=             -76.004332
 Sum of electronic and thermal Free Energies=          -76.025688
 
                     E (Thermal)             CV                S
                      KCal/Mol        Cal/Mol-Kelvin    Cal/Mol-Kelvin
 Total                   16.286              5.994             44.948
 Electronic               0.000              0.000              0.000
 Translational            0.889              2.981             34.608
 Rotational               0.889              2.981             10.335
 Vibrational             14.509              0.033              0.004
                       Q            Log10(Q)             Ln(Q)
 Total Bot       0.282369D-02         -2.549183         -5.869710
 Total V=0       0.121649D+09          8.085110         18.616654
 Vib (Bot)       0.232172D-10        -10.634190        -24.486128
 Vib (V=0)       0.100024D+01          0.000103          0.000236
 Electronic      0.100000D+01          0.000000          0.000000
 Translational   0.300432D+07          6.477746         14.915562
 Rotational      0.404819D+02          1.607261          3.700856
 ***** Axes restored to original set *****
 -------------------------------------------------------------------
 Center     Atomic                   Forces (Hartrees/Bohr)
 Number     Number              X              Y              Z
 -------------------------------------------------------------------
      1        8           0.000128066    0.000181209    0.000000000
      2        1          -0.000084933   -0.000075834    0.000000000
      3        1          -0.000043133   -0.000105375    0.000000000
 -------------------------------------------------------------------
 Cartesian Forces:  Max     0.000181209 RMS     0.000091388

 GradGradGradGradGradGradGradGradGradGradGradGradGradGradGradGradGradGrad
 Berny optimization.
 Internal  Forces:  Max     0.000131922 RMS     0.000103883
 Search for a local minimum.
 Step number   1 out of a maximum of    2
 All quantities printed in internal units (Hartrees-Bohrs-Radians)
 Second derivative matrix not updated -- analytic derivatives used.
 The second derivative matrix:
                          R1        R2        A1
           R1           0.63662
           R2          -0.00634   0.63662
           A1           0.02802   0.02802   0.17015
     Eigenvalues ---    0.16676   0.63367   0.64295
 Angle between quadratic step and forces=  26.36 degrees.
 Linear search not attempted -- first point.
 Iteration  1 RMS(Cart)=  0.00041154 RMS(Int)=  0.00000013
 Iteration  2 RMS(Cart)=  0.00000013 RMS(Int)=  0.00000000
 ClnCor:  largest displacement from symmetrization is 1.68D-15 for atom     3.
 Variable       Old X    -DE/DX   Delta X   Delta X   Delta X     New X
                                 (Linear)    (Quad)   (Total)
    R1        1.78232  -0.00009   0.00000  -0.00017  -0.00017   1.78214
    R2        1.78232  -0.00009   0.00000  -0.00017  -0.00017   1.78214
    A1        1.86876   0.00013   0.00000   0.00083   0.00083   1.86959
         Item               Value     Threshold  Converged?
 Maximum Force            0.000132     0.000450     YES
 RMS     Force            0.000104     0.000300     YES
 Maximum Displacement     0.000381     0.001800     YES
 RMS     Displacement     0.000411     0.001200     YES
 Predicted change in Energy=-7.000939D-08
 Optimization completed.
    -- Stationary point found.
                           ----------------------------
                           !   Optimized Parameters   !
                           ! (Angstroms and Degrees)  !
 --------------------------                            --------------------------
 ! Name  Definition              Value          Derivative Info.                !
 --------------------------------------------------------------------------------
 ! R1    R(1,2)                  0.9432         -DE/DX =   -0.0001              !
 ! R2    R(1,3)                  0.9432         -DE/DX =   -0.0001              !
 ! A1    A(2,1,3)              107.072          -DE/DX =    0.0001              !
 --------------------------------------------------------------------------------
 GradGradGradGradGradGradGradGradGradGradGradGradGradGradGradGradGradGrad

 1|1|UNPC-DESKTOP-319GPER|Freq|RHF|6-31+G(d,p)|H2O1|SAGAD|08-Oct-2020|0
 ||#N Geom=AllCheck Guess=TCheck SCRF=Check GenChk RHF/6-31+G(d,p) Freq
 ||Calculation of water HF||0,1|O,-0.1918155941,-0.5674362822,0.|H,0.75
 11335543,-0.5474540941,0.|H,-0.4877424284,0.328096907,0.||Version=IA32
 W-G09RevA.02|State=1-A1|HF=-76.0312305|RMSD=1.847e-010|RMSF=9.139e-005
 |ZeroPoint=0.0231197|Thermal=0.0259541|Dipole=0.507466,0.7180478,0.|Di
 poleDeriv=-0.5701525,0.0548747,0.,0.0548747,-0.5312881,0.,0.,0.,-0.830
 0778,0.2209914,-0.0364039,0.,-0.0638581,0.3297289,0.,0.,0.,0.4150389,0
 .349161,-0.0184709,0.,0.0089833,0.2015593,0.,0.,0.,0.4150389|Polar=6.5
 976223,-0.6812756,6.1151177,0.,0.,5.2429882|PolarDeriv=-6.3381612,-1.3
 193038,0.8713052,0.,0.,-0.4516559,-1.291563,0.8517,-6.4438591,0.,0.,-0
 .6390782,0.,0.,0.,-0.2128488,-0.301174,0.,7.3541112,-0.0453952,0.50599
 37,0.,0.,0.4697536,0.2747437,0.9884086,-0.0302099,0.,0.,0.1471495,0.,0
 .,0.,0.6294649,-0.2190615,0.,-1.01595,1.3646989,-1.377299,0.,0.,-0.018
 0977,1.0168192,-1.8401086,6.474069,0.,0.,0.4919287,0.,0.,0.,-0.4166162
 ,0.5202355,0.|HyperPolar=14.560725,1.1474247,-5.2659936,12.0043157,0.,
 0.,0.,0.1417727,0.2006038,0.|PG=C02V [C2(O1),SGV(H2)]|NImag=0||0.72918
 203,-0.14523147,0.62632371,0.,0.,0.00020948,-0.62290315,0.01438847,0.,
 0.63702169,-0.05210323,-0.05484972,0.,-0.00340034,0.05320451,0.,0.,-0.
 00010474,0.,0.,0.00006130,-0.10627888,0.13084301,0.,-0.01411854,0.0555
 0357,0.,0.12039741,0.19733471,-0.57147399,0.,-0.01098813,0.00164521,0.
 ,-0.18634658,0.56982879,0.,0.,-0.00010474,0.,0.,0.00004344,0.,0.,0.000
 06130||-0.00012807,-0.00018121,0.,0.00008493,0.00007583,0.,0.00004313,
 0.00010538,0.|||@


 SCIENCE IS A VERY HUMAN FORM OF KNOWLEDGE.
 WE ARE ALWAYS AT THE BRINK OF THE KNOWN,
 WE ALWAYS FEEL FORWARD FOR WHAT IS HOPED.
 EVERY JUDGEMENT IN SCIENCE STANDS ON THE EDGE OF ERROR, AND IS PERSONAL.
 SCIENCE IS A TRIBUTE TO WHAT WE CAN KNOW ALTHOUGH WE ARE FALLIBLE.

                     -- J. BRONOWSKI
 Job cpu time:  0 days  0 hours  0 minutes  1.0 seconds.
 File lengths (MBytes):  RWF=      5 Int=      0 D2E=      0 Chk=      1 Scr=      1
 Normal termination of Gaussian 09 at Thu Oct 08 03:09:29 2020.
