 Entering Link 1 = C:\G09W\l1.exe PID=     10620.
  
 Copyright (c) 1988,1990,1992,1993,1995,1998,2003,2009, Gaussian, Inc.
                  All Rights Reserved.
  
 This is part of the Gaussian(R) 09 program.  It is based on
 the Gaussian(R) 03 system (copyright 2003, Gaussian, Inc.),
 the Gaussian(R) 98 system (copyright 1998, Gaussian, Inc.),
 the Gaussian(R) 94 system (copyright 1995, Gaussian, Inc.),
 the Gaussian 92(TM) system (copyright 1992, Gaussian, Inc.),
 the Gaussian 90(TM) system (copyright 1990, Gaussian, Inc.),
 the Gaussian 88(TM) system (copyright 1988, Gaussian, Inc.),
 the Gaussian 86(TM) system (copyright 1986, Carnegie Mellon
 University), and the Gaussian 82(TM) system (copyright 1983,
 Carnegie Mellon University). Gaussian is a federally registered
 trademark of Gaussian, Inc.
  
 This software contains proprietary and confidential information,
 including trade secrets, belonging to Gaussian, Inc.
  
 This software is provided under written license and may be
 used, copied, transmitted, or stored only in accord with that
 written license.
  
 The following legend is applicable only to US Government
 contracts under FAR:
  
                    RESTRICTED RIGHTS LEGEND
  
 Use, reproduction and disclosure by the US Government is
 subject to restrictions as set forth in subparagraphs (a)
 and (c) of the Commercial Computer Software - Restricted
 Rights clause in FAR 52.227-19.
  
 Gaussian, Inc.
 340 Quinnipiac St., Bldg. 40, Wallingford CT 06492
  
  
 ---------------------------------------------------------------
 Warning -- This program may not be used in any manner that
 competes with the business of Gaussian, Inc. or will provide
 assistance to any competitor of Gaussian, Inc.  The licensee
 of this program is prohibited from giving any competitor of
 Gaussian, Inc. access to this program.  By using this program,
 the user acknowledges that Gaussian, Inc. is engaged in the
 business of creating and licensing software in the field of
 computational chemistry and represents and warrants to the
 licensee that it is not a competitor of Gaussian, Inc. and that
 it will not use this program in any manner prohibited above.
 ---------------------------------------------------------------
  

 Cite this work as:
 Gaussian 09, Revision A.02,
 M. J. Frisch, G. W. Trucks, H. B. Schlegel, G. E. Scuseria, 
 M. A. Robb, J. R. Cheeseman, G. Scalmani, V. Barone, B. Mennucci, 
 G. A. Petersson, H. Nakatsuji, M. Caricato, X. Li, H. P. Hratchian, 
 A. F. Izmaylov, J. Bloino, G. Zheng, J. L. Sonnenberg, M. Hada, 
 M. Ehara, K. Toyota, R. Fukuda, J. Hasegawa, M. Ishida, T. Nakajima, 
 Y. Honda, O. Kitao, H. Nakai, T. Vreven, J. A. Montgomery, Jr., 
 J. E. Peralta, F. Ogliaro, M. Bearpark, J. J. Heyd, E. Brothers, 
 K. N. Kudin, V. N. Staroverov, R. Kobayashi, J. Normand, 
 K. Raghavachari, A. Rendell, J. C. Burant, S. S. Iyengar, J. Tomasi, 
 M. Cossi, N. Rega, J. M. Millam, M. Klene, J. E. Knox, J. B. Cross, 
 V. Bakken, C. Adamo, J. Jaramillo, R. Gomperts, R. E. Stratmann, 
 O. Yazyev, A. J. Austin, R. Cammi, C. Pomelli, J. W. Ochterski, 
 R. L. Martin, K. Morokuma, V. G. Zakrzewski, G. A. Voth, 
 P. Salvador, J. J. Dannenberg, S. Dapprich, A. D. Daniels, 
 O. Farkas, J. B. Foresman, J. V. Ortiz, J. Cioslowski, 
 and D. J. Fox, Gaussian, Inc., Wallingford CT, 2009.
 
 ******************************************
 Gaussian 09:  IA32W-G09RevA.02 11-Jun-2009
                08-Feb-2021 
 ******************************************
 %chk=D:\Documents\rayGit\FQ\quimicaComputacional\p2_radicalReaction\pruebaTs\ts.
 chk
 %mem=1500mb
 %nproc=4
 Will use up to    4 processors via shared memory.
 ----------------------------------------------------------------
 # opt=(calcfc,qst2,maxcycles=100) freq=noraman m062x/6-31+g(d,p)
 ----------------------------------------------------------------
 1/5=1,6=100,10=4,14=-1,18=20,26=3,27=202,38=1/1,3;
 2/9=110,12=2,17=6,18=5,40=1/2;
 3/5=1,6=6,7=111,11=2,16=1,25=1,30=1,71=2,74=-55/1,2,3;
 4//1;
 5/5=2,38=5/2;
 8/6=4,10=90,11=11/1;
 11/6=1,8=1,9=11,15=111,16=1/1,2,10;
 10/6=1,7=6,13=1/2;
 6/7=2,8=2,9=2,10=2,28=1/1;
 7/10=1,18=20,25=1/1,2,3,16;
 1/5=1,6=100,10=4,14=-1,18=20,27=202/3(2);
 2/9=110/2;
 99//99;
 2/9=110/2;
 3/5=1,6=6,7=111,11=2,16=1,25=1,30=1,71=1,74=-55/1,2,3;
 4/5=5,16=3/1;
 5/5=2,38=5/2;
 7//1,2,3,16;
 1/5=1,6=100,14=-1,18=20,27=202/3(-5);
 2/9=110/2;
 6/7=2,8=2,9=2,10=2,19=2,28=1/1;
 99/9=1/99;
 ---------
 reactivos
 ---------
 Symbolic Z-matrix:
 Charge =  0 Multiplicity = 2
 C                    -3.45566   5.19893  -2.57915 
 H                    -3.09901   4.19012  -2.57915 
 H                    -3.09899   5.70333  -1.7055 
 H                    -3.09899   5.70333  -3.4528 
 H                    -4.52566   5.19895  -2.57915 
 O                    -2.2657    1.83309  -2.57915 
 H                    -1.3057    1.83308  -2.57915 
 
 ----------
 Prouductos
 ----------
 Symbolic Z-matrix:
 Charge =  0 Multiplicity = 2
 C                    -3.45566   5.19893  -2.57915 
 H                    -2.58569   2.73819  -2.57915 
 H                    -3.09899   5.70333  -1.7055 
 H                    -3.09899   5.70333  -3.4528 
 H                    -4.52566   5.19895  -2.57915 
 O                    -2.2657    1.83309  -2.57915 
 H                    -1.3057    1.83308  -2.57915 
 
 Iteration  1 RMS(Cart)=  0.04362560 RMS(Int)=  0.41836313
 Iteration  2 RMS(Cart)=  0.04362558 RMS(Int)=  0.35169651
 Iteration  3 RMS(Cart)=  0.04362568 RMS(Int)=  0.28502989
 Iteration  4 RMS(Cart)=  0.04362573 RMS(Int)=  0.21836325
 Iteration  5 RMS(Cart)=  0.04362578 RMS(Int)=  0.15169663
 Iteration  6 RMS(Cart)=  0.04362587 RMS(Int)=  0.08502997
 Iteration  7 RMS(Cart)=  0.04362596 RMS(Int)=  0.01836333
 Iteration  8 RMS(Cart)=  0.01201660 RMS(Int)=  0.00000240
 Iteration  9 RMS(Cart)=  0.00000168 RMS(Int)=  0.00000000
 Iteration 10 RMS(Cart)=  0.00000000 RMS(Int)=  0.00000000

 GradGradGradGradGradGradGradGradGradGradGradGradGradGradGradGradGradGrad
 Berny optimization.
 Initialization pass.
                           ----------------------------
                           !    Initial Parameters    !
                           ! (Angstroms and Degrees)  !
 --------------------------                            --------------------------
 ! Name  Definition        TS        Reactant  Product Derivative Info.         !
 --------------------------------------------------------------------------------
 ! R1    R(1,2)             1.84      1.07      2.61   calculate D2E/DX2 analyti!
 ! R2    R(1,3)             1.07      1.07      1.07   calculate D2E/DX2 analyti!
 ! R3    R(1,4)             1.07      1.07      1.07   calculate D2E/DX2 analyti!
 ! R4    R(1,5)             1.07      1.07      1.07   calculate D2E/DX2 analyti!
 ! R5    R(2,6)             1.73      2.5       0.96   calculate D2E/DX2 analyti!
 ! R6    R(6,7)             0.96      0.96      0.96   calculate D2E/DX2 analyti!
 ! A1    A(2,1,3)         109.4712  109.4712  109.4712 calculate D2E/DX2 analyti!
 ! A2    A(2,1,4)         109.4712  109.4712  109.4712 calculate D2E/DX2 analyti!
 ! A3    A(2,1,5)         109.4712  109.4712  109.4712 calculate D2E/DX2 analyti!
 ! A4    A(3,1,4)         109.4713  109.4713  109.4713 calculate D2E/DX2 analyti!
 ! A5    A(3,1,5)         109.4712  109.4712  109.4712 calculate D2E/DX2 analyti!
 ! A6    A(4,1,5)         109.4712  109.4712  109.4712 calculate D2E/DX2 analyti!
 ! A7    A(2,6,7)         109.4712  109.4712  109.4712 calculate D2E/DX2 analyti!
 ! A8    L(1,2,6,3,-1)    180.0     180.0     180.0    calculate D2E/DX2 analyti!
 ! A9    L(1,2,6,3,-2)    180.0     180.0     180.0    calculate D2E/DX2 analyti!
 ! D1    D(3,1,6,7)       -60.0     -60.0     -60.0    calculate D2E/DX2 analyti!
 ! D2    D(4,1,6,7)        60.0      60.0      60.0    calculate D2E/DX2 analyti!
 ! D3    D(5,1,6,7)       180.0     180.0     180.0    calculate D2E/DX2 analyti!
 --------------------------------------------------------------------------------
 Trust Radius=3.00D-01 FncErr=1.00D-07 GrdErr=1.00D-06
 Number of steps in this run= 100 maximum allowed number of steps= 100.
 Search for a saddle point of order  1.
 GradGradGradGradGradGradGradGradGradGradGradGradGradGradGradGradGradGrad

                          Input orientation:                          
 ---------------------------------------------------------------------
 Center     Atomic      Atomic             Coordinates (Angstroms)
 Number     Number       Type             X           Y           Z
 ---------------------------------------------------------------------
      1          6           0       -3.487877    5.304777   -2.579148
      2          1           0       -2.881806    3.567457   -2.579148
      3          1           0       -3.129103    5.807683   -1.705497
      4          1           0       -3.129103    5.807683   -3.452800
      5          1           0       -4.557868    5.309253   -2.579148
      6          8           0       -2.311968    1.934000   -2.579148
      7          1           0       -1.351977    1.929983   -2.579148
 ---------------------------------------------------------------------
                    Distance matrix (angstroms):
                    1          2          3          4          5
     1  C    0.000000
     2  H    1.840000   0.000000
     3  H    1.070000   2.417236   0.000000
     4  H    1.070000   2.417236   1.747303   0.000000
     5  H    1.070000   2.417237   1.747303   1.747303   0.000000
     6  O    3.570000   1.730000   4.054183   4.054183   4.054183
     7  H    3.993908   2.240915   4.354078   4.354078   4.658025
                    6          7
     6  O    0.000000
     7  H    0.960000   0.000000
 Stoichiometry    CH5O(2)
 Framework group  CS[SG(CH3O),X(H2)]
 Deg. of freedom    10
 Full point group                 CS      NOp   2
 Largest Abelian subgroup         CS      NOp   2
 Largest concise Abelian subgroup CS      NOp   2
                         Standard orientation:                         
 ---------------------------------------------------------------------
 Center     Atomic      Atomic             Coordinates (Angstroms)
 Number     Number       Type             X           Y           Z
 ---------------------------------------------------------------------
      1          6           0        0.047637    1.748421    0.000000
      2          1           0        0.047637   -0.091579    0.000000
      3          1           0       -0.456766    2.105087   -0.873651
      4          1           0       -0.456766    2.105087    0.873651
      5          1           0        1.056442    2.105088    0.000000
      6          8           0        0.047637   -1.821579    0.000000
      7          1           0       -0.857460   -2.141579    0.000000
 ---------------------------------------------------------------------
 Rotational constants (GHZ):    131.4358135      4.6423549      4.6098292
 Standard basis: 6-31+G(d,p) (6D, 7F)
 There are    45 symmetry adapted basis functions of A'  symmetry.
 There are    18 symmetry adapted basis functions of A"  symmetry.
 Integral buffers will be    262144 words long.
 Raffenetti 2 integral format.
 Two-electron integral symmetry is turned on.
    63 basis functions,    99 primitive gaussians,    63 cartesian basis functions
    10 alpha electrons        9 beta electrons
       nuclear repulsion energy        30.6852278170 Hartrees.
 NAtoms=    7 NActive=    7 NUniq=    6 SFac= 1.02D+00 NAtFMM=   80 NAOKFM=F Big=F
 One-electron integrals computed using PRISM.
 NBasis=    63 RedAO= T  NBF=    45    18
 NBsUse=    63 1.00D-06 NBFU=    45    18
 Harris functional with IExCor= 1009 diagonalized for initial guess.
 ExpMin= 4.38D-02 ExpMax= 5.48D+03 ExpMxC= 8.25D+02 IAcc=2 IRadAn=         0 AccDes= 0.00D+00
 HarFok:  IExCor= 1009 AccDes= 0.00D+00 IRadAn=         0 IDoV= 1
 ScaDFX=  1.000000  1.000000  1.000000  1.000000
 FoFCou: FMM=F IPFlag=           0 FMFlag=      100000 FMFlg1=           0
         NFxFlg=           0 DoJE=T BraDBF=F KetDBF=T FulRan=T
         Omega=  0.000000  0.000000  1.000000  0.000000  0.000000 ICntrl=     500 IOpCl=  0
         NMat0=    1 NMatS0=    1 NMatT0=    0 NMatD0=    1 NMtDS0=    0 NMtDT0=    0
         I1Cent=           4 NGrid=           0.
 Petite list used in FoFCou.
 Initial guess orbital symmetries:
 Alpha Orbitals:
       Occupied  (A') (A') (A') (A') (A') (A") (A') (A') (A") (A')
       Virtual   (A') (A') (A') (A") (A') (A') (A") (A') (A') (A")
                 (A') (A') (A') (A") (A') (A') (A') (A") (A') (A')
                 (A') (A") (A') (A') (A') (A') (A") (A') (A") (A')
                 (A') (A") (A') (A") (A') (A") (A') (A") (A') (A")
                 (A') (A') (A') (A") (A') (A") (A') (A') (A') (A")
                 (A') (A') (A')
 Beta  Orbitals:
       Occupied  (A') (A') (A') (A') (A') (A") (A') (A') (A")
       Virtual   (A') (A') (A') (A') (A") (A') (A') (A") (A') (A')
                 (A") (A') (A') (A') (A") (A') (A') (A') (A") (A')
                 (A') (A') (A") (A') (A') (A') (A') (A") (A') (A")
                 (A') (A') (A") (A') (A") (A') (A") (A') (A") (A')
                 (A") (A') (A') (A') (A") (A') (A") (A') (A') (A')
                 (A") (A') (A') (A')
 The electronic state of the initial guess is 2-A'.
 Initial guess <Sx>= 0.0000 <Sy>= 0.0000 <Sz>= 0.5000 <S**2>= 0.7500 S= 0.5000
 Requested convergence on RMS density matrix=1.00D-08 within 128 cycles.
 Requested convergence on MAX density matrix=1.00D-06.
 Requested convergence on             energy=1.00D-06.
 No special actions if energy rises.
 Keep R1 and R2 ints in memory in canonical form, NReq=5032925.
 SCF Done:  E(UM062X) =  -116.089561569     A.U. after   16 cycles
             Convg  =    0.7349D-08             -V/T =  2.0106
 <Sx>= 0.0000 <Sy>= 0.0000 <Sz>= 0.5000 <S**2>= 0.8361 S= 0.5422
 <L.S>= 0.000000000000E+00
 Annihilation of the first spin contaminant:
 S**2 before annihilation     0.8361,   after     0.7505
 Range of M.O.s used for correlation:     1    63
 NBasis=    63 NAE=    10 NBE=     9 NFC=     0 NFV=     0
 NROrb=     63 NOA=    10 NOB=     9 NVA=    53 NVB=    54
 Symmetrizing basis deriv contribution to polar:
 IMax=3 JMax=2 DiffMx= 0.00D+00
 G2DrvN: will do     8 centers at a time, making    1 passes doing MaxLOS=2.
 Calling FoFCou, ICntrl=  3107 FMM=F I1Cent=   0 AccDes= 0.00D+00.
 FoFDir/FoFCou used for L=0 through L=2.
 End of G2Drv Frequency-dependent properties file   721 does not exist.
 End of G2Drv Frequency-dependent properties file   722 does not exist.
          IDoAtm=1111111
          Differentiating once with respect to nuclear coordinates.
          Keep R1 and R2 ints in memory in canonical form, NReq=4887833.
          There are    21 degrees of freedom in the 1st order CPHF.  IDoFFX=4.
     18 vectors produced by pass  0 Test12= 4.84D-11 4.76D-07 XBig12= 1.48D-01 3.44D-01.
 AX will form    18 AO Fock derivatives at one time.
     18 vectors produced by pass  1 Test12= 4.84D-11 4.76D-07 XBig12= 2.00D-02 7.07D-02.
     18 vectors produced by pass  2 Test12= 4.84D-11 4.76D-07 XBig12= 7.53D-04 6.70D-03.
     18 vectors produced by pass  3 Test12= 4.84D-11 4.76D-07 XBig12= 1.10D-05 8.63D-04.
     16 vectors produced by pass  4 Test12= 4.84D-11 4.76D-07 XBig12= 1.10D-07 9.16D-05.
      7 vectors produced by pass  5 Test12= 4.84D-11 4.76D-07 XBig12= 1.09D-09 1.00D-05.
      1 vectors produced by pass  6 Test12= 4.84D-11 4.76D-07 XBig12= 6.56D-12 6.76D-07.
 Inverted reduced A of dimension    96 with in-core refinement.
 End of Minotr Frequency-dependent properties file   721 does not exist.
 End of Minotr Frequency-dependent properties file   722 does not exist.

 **********************************************************************

            Population analysis using the SCF density.

 **********************************************************************

 Orbital symmetries:
 Alpha Orbitals:
       Occupied  (A') (A') (A') (A') (A') (A") (A') (A') (A") (A')
       Virtual   (A') (A') (A') (A") (A') (A') (A') (A") (A') (A")
                 (A') (A') (A') (A') (A") (A') (A') (A") (A') (A')
                 (A') (A') (A") (A') (A') (A') (A") (A') (A') (A")
                 (A') (A") (A') (A') (A") (A") (A') (A") (A') (A")
                 (A') (A') (A') (A') (A") (A") (A') (A') (A') (A")
                 (A') (A') (A')
 Beta  Orbitals:
       Occupied  (A') (A') (A') (A') (A') (A") (A') (A") (A')
       Virtual   (A') (A') (A') (A") (A') (A') (A') (A') (A") (A')
                 (A") (A') (A') (A') (A') (A") (A') (A') (A") (A')
                 (A') (A') (A') (A') (A") (A') (A') (A") (A') (A')
                 (A") (A') (A") (A') (A') (A") (A") (A') (A") (A')
                 (A") (A') (A') (A') (A") (A') (A') (A") (A') (A')
                 (A") (A') (A') (A')
 The electronic state is 2-A'.
 Alpha  occ. eigenvalues --  -19.69016 -10.59053  -1.11375  -0.80355  -0.54478
 Alpha  occ. eigenvalues --   -0.49353  -0.49331  -0.47400  -0.40650  -0.35234
 Alpha virt. eigenvalues --    0.00824   0.05752   0.06232   0.06280   0.09179
 Alpha virt. eigenvalues --    0.13073   0.18248   0.18693   0.22496   0.23168
 Alpha virt. eigenvalues --    0.24537   0.28077   0.32906   0.65273   0.65342
 Alpha virt. eigenvalues --    0.72205   0.92442   0.96578   0.96680   1.01872
 Alpha virt. eigenvalues --    1.10121   1.17095   1.19814   1.20620   1.22098
 Alpha virt. eigenvalues --    1.34683   1.43660   1.43813   1.60001   1.61894
 Alpha virt. eigenvalues --    1.74577   1.80821   1.92012   2.02503   2.03713
 Alpha virt. eigenvalues --    2.07196   2.15829   2.16174   2.35036   2.35097
 Alpha virt. eigenvalues --    2.43178   2.61866   2.65429   2.68206   2.68497
 Alpha virt. eigenvalues --    2.84148   2.84157   3.22557   3.41163   3.42087
 Alpha virt. eigenvalues --    3.42192   3.93117   4.34540
  Beta  occ. eigenvalues --  -19.67744 -10.58647  -1.05915  -0.78400  -0.52016
  Beta  occ. eigenvalues --   -0.48401  -0.48377  -0.37735  -0.37169
  Beta virt. eigenvalues --   -0.12605   0.01723   0.06335   0.06617   0.07150
  Beta virt. eigenvalues --    0.09321   0.14197   0.19215   0.19797   0.23184
  Beta virt. eigenvalues --    0.24013   0.25188   0.28801   0.33828   0.66277
  Beta virt. eigenvalues --    0.66339   0.75836   0.93883   0.97750   0.97862
  Beta virt. eigenvalues --    1.03537   1.11493   1.14578   1.21139   1.21426
  Beta virt. eigenvalues --    1.25701   1.37815   1.46294   1.46458   1.62926
  Beta virt. eigenvalues --    1.63020   1.77982   1.83884   1.95753   2.02731
  Beta virt. eigenvalues --    2.04213   2.07725   2.17137   2.17474   2.36760
  Beta virt. eigenvalues --    2.36819   2.43833   2.59497   2.67406   2.68852
  Beta virt. eigenvalues --    2.69480   2.86231   2.86240   3.24870   3.42337
  Beta virt. eigenvalues --    3.44464   3.44567   3.96292   4.39342
          Condensed to atoms (all electrons):
              1          2          3          4          5          6
     1  C    5.199844   0.223432   0.380854   0.380854   0.383535  -0.015663
     2  H    0.223432   0.581243  -0.007862  -0.007862  -0.006273   0.052527
     3  H    0.380854  -0.007862   0.507763  -0.029761  -0.029183   0.000143
     4  H    0.380854  -0.007862  -0.029761   0.507763  -0.029183   0.000143
     5  H    0.383535  -0.006273  -0.029183  -0.029183   0.498699   0.000238
     6  O   -0.015663   0.052527   0.000143   0.000143   0.000238   8.223842
     7  H    0.002015  -0.001800  -0.000016  -0.000016   0.000002   0.243633
              7
     1  C    0.002015
     2  H   -0.001800
     3  H   -0.000016
     4  H   -0.000016
     5  H    0.000002
     6  O    0.243633
     7  H    0.401331
 Mulliken atomic charges:
              1
     1  C   -0.554872
     2  H    0.166595
     3  H    0.178062
     4  H    0.178062
     5  H    0.182165
     6  O   -0.504863
     7  H    0.354851
 Sum of Mulliken atomic charges =   0.00000
 Mulliken charges with hydrogens summed into heavy atoms:
              1
     1  C   -0.016583
     6  O    0.016583
 Sum of Mulliken charges with hydrogens summed into heavy atoms =   0.00000
          Atomic-Atomic Spin Densities.
              1          2          3          4          5          6
     1  C    0.620187   0.029286  -0.008122  -0.008122  -0.008121  -0.025539
     2  H    0.029286  -0.257335   0.001043   0.001043   0.000319  -0.039365
     3  H   -0.008122   0.001043  -0.019445   0.002792   0.002883   0.000570
     4  H   -0.008122   0.001043   0.002792  -0.019445   0.002883   0.000570
     5  H   -0.008121   0.000319   0.002883   0.002883  -0.018404   0.000482
     6  O   -0.025539  -0.039365   0.000570   0.000570   0.000482   0.811312
     7  H    0.000214  -0.000807  -0.000001  -0.000001  -0.000001   0.002528
              7
     1  C    0.000214
     2  H   -0.000807
     3  H   -0.000001
     4  H   -0.000001
     5  H   -0.000001
     6  O    0.002528
     7  H   -0.025942
 Mulliken atomic spin densities:
              1
     1  C    0.599784
     2  H   -0.265815
     3  H   -0.020279
     4  H   -0.020279
     5  H   -0.019962
     6  O    0.750559
     7  H   -0.024008
 Sum of Mulliken atomic spin densities =   1.00000
 APT atomic charges:
              1
     1  C   -1.367919
     2  H    0.105498
     3  H    0.462739
     4  H    0.462739
     5  H    0.482722
     6  O   -0.758020
     7  H    0.612241
 Sum of APT charges=   0.00000
 APT Atomic charges with hydrogens summed into heavy atoms:
              1
     1  C    0.040281
     2  H    0.000000
     3  H    0.000000
     4  H    0.000000
     5  H    0.000000
     6  O   -0.040281
     7  H    0.000000
 Sum of APT charges=   0.00000
 Electronic spatial extent (au):  <R**2>=            268.0493
 Charge=              0.0000 electrons
 Dipole moment (field-independent basis, Debye):
    X=             -1.6104    Y=              1.6816    Z=              0.0000  Tot=              2.3284
 Quadrupole moment (field-independent basis, Debye-Ang):
   XX=            -13.5399   YY=            -11.2967   ZZ=            -15.7808
   XY=              3.8323   XZ=              0.0000   YZ=              0.0000
 Traceless Quadrupole moment (field-independent basis, Debye-Ang):
   XX=             -0.0008   YY=              2.2425   ZZ=             -2.2417
   XY=              3.8323   XZ=              0.0000   YZ=              0.0000
 Octapole moment (field-independent basis, Debye-Ang**2):
  XXX=             -1.4190  YYY=             -5.6627  ZZZ=              0.0000  XYY=             -8.0570
  XXY=             -4.2072  XXZ=              0.0000  XZZ=             -0.9928  YZZ=              0.2496
  YYZ=              0.0000  XYZ=              0.0000
 Hexadecapole moment (field-independent basis, Debye-Ang**3):
 XXXX=            -21.9150 YYYY=           -270.0171 ZZZZ=            -22.9357 XXXY=              1.8789
 XXXZ=              0.0000 YYYX=             15.0762 YYYZ=              0.0000 ZZZX=              0.0000
 ZZZY=              0.0000 XXYY=            -44.5748 XXZZ=             -7.7805 YYZZ=            -53.8213
 XXYZ=              0.0000 YYXZ=              0.0000 ZZXY=             -2.2127
 N-N= 3.068522781699D+01 E-N=-4.938231535528D+02  KE= 1.709706519677D+02
 Symmetry A'   KE= 1.611642904780D+02
 Symmetry A"   KE= 9.806361489671D+00
  Exact polarizability:   0.000   0.000   0.000   0.000   0.000   0.000
 Approx polarizability:  19.970   1.504  64.844   0.000   0.000  17.997
                          Isotropic Fermi Contact Couplings
        Atom                 a.u.       MegaHertz       Gauss      10(-4) cm-1
     1  C(13)              0.18899     212.46263      75.81195      70.86990
     2  H(1)              -0.08821    -394.30803    -140.69891    -131.52700
     3  H(1)              -0.00402     -17.95027      -6.40510      -5.98756
     4  H(1)              -0.00402     -17.95027      -6.40510      -5.98756
     5  H(1)              -0.00382     -17.07263      -6.09194      -5.69482
     6  O(17)              0.08246     -49.98947     -17.83749     -16.67469
     7  H(1)              -0.01224     -54.71724     -19.52447     -18.25171
 --------------------------------------------------------
       Center         ----  Spin Dipole Couplings  ----
                      3XX-RR        3YY-RR        3ZZ-RR
 --------------------------------------------------------
     1   Atom       -0.244643      0.488998     -0.244355
     2   Atom       -0.052279      0.105188     -0.052908
     3   Atom       -0.017304     -0.000487      0.017791
     4   Atom       -0.017304     -0.000487      0.017791
     5   Atom        0.035534     -0.000581     -0.034953
     6   Atom       -0.957211      2.278640     -1.321430
     7   Atom        0.119686     -0.016306     -0.103380
 --------------------------------------------------------
                        XY            XZ            YZ
 --------------------------------------------------------
     1   Atom        0.001001      0.000000      0.000000
     2   Atom        0.004407      0.000000      0.000000
     3   Atom       -0.007813      0.030515     -0.013559
     4   Atom       -0.007813     -0.030515      0.013559
     5   Atom        0.015528      0.000000      0.000000
     6   Atom       -1.171204      0.000000      0.000000
     7   Atom        0.050572      0.000000      0.000000
 --------------------------------------------------------


 ---------------------------------------------------------------------------------
              Anisotropic Spin Dipole Couplings in Principal Axis System
 ---------------------------------------------------------------------------------

       Atom             a.u.   MegaHertz   Gauss  10(-4) cm-1        Axes

              Baa    -0.2446   -32.829   -11.714   -10.951  1.0000 -0.0014  0.0000
     1 C(13)  Bbb    -0.2444   -32.790   -11.700   -10.938  0.0000  0.0000  1.0000
              Bcc     0.4890    65.619    23.415    21.888  0.0014  1.0000  0.0000
 
              Baa    -0.0529   -28.229   -10.073    -9.416  0.0000  0.0000  1.0000
     2 H(1)   Bbb    -0.0524   -27.959    -9.977    -9.326  0.9996 -0.0280  0.0000
              Bcc     0.1053    56.189    20.050    18.743  0.0280  0.9996  0.0000
 
              Baa    -0.0350   -18.651    -6.655    -6.221  0.8655 -0.0009 -0.5009
     3 H(1)   Bbb    -0.0063    -3.386    -1.208    -1.130  0.1764  0.9365  0.3031
              Bcc     0.0413    22.038     7.864     7.351  0.4688 -0.3507  0.8107
 
              Baa    -0.0350   -18.651    -6.655    -6.221  0.8655 -0.0009  0.5009
     4 H(1)   Bbb    -0.0063    -3.386    -1.208    -1.130  0.1764  0.9365 -0.3031
              Bcc     0.0413    22.038     7.864     7.351 -0.4688  0.3507  0.8107
 
              Baa    -0.0350   -18.649    -6.655    -6.221  0.0000  0.0000  1.0000
     5 H(1)   Bbb    -0.0063    -3.382    -1.207    -1.128 -0.3477  0.9376  0.0000
              Bcc     0.0413    22.032     7.861     7.349  0.9376  0.3477  0.0000
 
              Baa    -1.3366    96.718    34.511    32.262  0.9513  0.3082  0.0000
     6 O(17)  Bbb    -1.3214    95.618    34.119    31.895  0.0000  0.0000  1.0000
              Bcc     2.6581  -192.336   -68.630   -64.156 -0.3082  0.9513  0.0000
 
              Baa    -0.1034   -55.159   -19.682   -18.399  0.0000  0.0000  1.0000
     7 H(1)   Bbb    -0.0331   -17.634    -6.292    -5.882 -0.3143  0.9493  0.0000
              Bcc     0.1364    72.793    25.974    24.281  0.9493  0.3143  0.0000
 

 ---------------------------------------------------------------------------------

 Calling FoFJK, ICntrl=    100147 FMM=F ISym2X=1 I1Cent= 0 IOpClX= 1 NMat=1 NMatS=1 NMatT=0.
 ***** Axes restored to original set *****
 -------------------------------------------------------------------
 Center     Atomic                   Forces (Hartrees/Bohr)
 Number     Number              X              Y              Z
 -------------------------------------------------------------------
      1        6           0.012068707   -0.031192757    0.000000000
      2        1          -0.006086257    0.024892200    0.000000000
      3        1           0.011259363   -0.005659696    0.015294865
      4        1           0.011259363   -0.005659696   -0.015294865
      5        1          -0.013550634   -0.015002165    0.000000000
      6        8          -0.028939161    0.025786855    0.000000000
      7        1           0.013988620    0.006835260    0.000000000
 -------------------------------------------------------------------
 Cartesian Forces:  Max     0.031192757 RMS     0.014983016

 GradGradGradGradGradGradGradGradGradGradGradGradGradGradGradGradGradGrad
 Berny optimization.
 Internal  Forces:  Max     0.061237753 RMS     0.020063221
 Search for a saddle point.
 Step number   1 out of a maximum of  100
 All quantities printed in internal units (Hartrees-Bohrs-Radians)
 Second derivative matrix not updated -- analytic derivatives used.
 The second derivative matrix:
                          R1        R2        R3        R4        R5
           R1          -0.07208
           R2           0.00119   0.39790
           R3           0.00119   0.00057   0.39790
           R4           0.00099   0.00066   0.00066   0.39984
           R5           0.06318  -0.00002  -0.00002   0.00012  -0.10270
           R6           0.00405  -0.00008  -0.00008   0.00005  -0.00724
           A1           0.00853  -0.00458  -0.00457  -0.00471  -0.00459
           A2           0.00847  -0.00457  -0.00462  -0.00468  -0.00456
           A3           0.00685  -0.00477  -0.00473  -0.00395  -0.00460
           A4          -0.00800   0.00912   0.00904  -0.00386   0.00455
           A5          -0.00787   0.00882  -0.00395   0.00857   0.00457
           A6          -0.00798  -0.00402   0.00882   0.00863   0.00463
           A7           0.01534  -0.00017  -0.00017  -0.00062  -0.02125
           A8          -0.00130  -0.00172   0.00103   0.00071   0.00061
           A9           0.00108  -0.00029   0.00059  -0.00052  -0.00045
           D1          -0.00020  -0.00028  -0.00518   0.00519  -0.00003
           D2           0.00011   0.00506   0.00035  -0.00513   0.00008
           D3           0.00009  -0.00507   0.00513  -0.00005  -0.00005
                          R6        A1        A2        A3        A4
           R6           0.56991
           A1          -0.00065   0.05080
           A2          -0.00063  -0.00429   0.05073
           A3          -0.00095  -0.00400  -0.00384   0.05024
           A4           0.00074  -0.02041  -0.02070  -0.00173   0.05690
           A5           0.00073  -0.01998  -0.00193  -0.02048  -0.00670
           A6           0.00076  -0.00212  -0.01997  -0.02020  -0.00736
           A7           0.00158  -0.00191  -0.00187  -0.00215   0.00204
           A8           0.00031  -0.00160   0.00106   0.00136  -0.00395
           A9          -0.00023   0.00005   0.00037  -0.00084   0.00235
           D1          -0.00009   0.00000  -0.00323   0.00334  -0.02194
           D2           0.00011   0.00325  -0.00002  -0.00329   0.02173
           D3          -0.00002  -0.00395   0.00392  -0.00002   0.00015
                          A5        A6        A7        A8        A9
           A5           0.05648
           A6          -0.00739   0.05704
           A7           0.00191   0.00199   0.04674
           A8          -0.00326   0.00639   0.00090   0.00481
           A9          -0.00221   0.00028  -0.00067   0.00149   0.00103
           D1           0.02187  -0.00004  -0.00016   0.00113  -0.00187
           D2           0.00000  -0.02166   0.00023  -0.00349   0.00138
           D3          -0.02181   0.02171  -0.00007   0.00439   0.00099
                          D1        D2        D3
           D1           0.01907
           D2          -0.00941   0.01851
           D3          -0.00972  -0.00901   0.01866
 LST/QST climbing along tangent vector
     Eigenvalues ---   -0.15056  -0.02478  -0.00042   0.00017   0.00451
     Eigenvalues ---    0.04630   0.05397   0.05561   0.08480   0.09160
     Eigenvalues ---    0.09227   0.39811   0.39891   0.40140   0.56993
     Eigenvalues --- 1000.000001000.000001000.00000
 Eigenvectors required to have negative eigenvalues:
                          R1        R5        A9        A7        A8
   1                    0.70711  -0.70711   0.00000   0.00000   0.00000
                          A3        A1        A2        D1        D2
   1                    0.00000   0.00000   0.00000   0.00000   0.00000
 QST in optimization variable space.
                        Tangent   TS vect  // Eig F  Eigenval
   1         R1         0.70711   0.70711  -0.01804  -0.15056
   2         R2         0.00000   0.00000  -0.03364  -0.02478
   3         R3         0.00000   0.00000  -0.00029  -0.00042
   4         R4         0.00000   0.00000  -0.00048   0.00017
   5         R5        -0.70711  -0.70711   0.00020   0.00451
   6         R6         0.00000   0.00000  -0.00694   0.04630
   7         A1         0.00000   0.00000   0.00004   0.05397
   8         A2         0.00000   0.00000   0.00003   0.05561
   9         A3         0.00000   0.00000   0.01831   0.08480
  10         A4         0.00000   0.00000  -0.00044   0.09160
  11         A5         0.00000   0.00000  -0.00073   0.09227
  12         A6         0.00000   0.00000   0.00003   0.39811
  13         A7         0.00000   0.00000   0.00513   0.39891
  14         A8         0.00000   0.00000   0.01168   0.40140
  15         A9         0.00000   0.00000   0.00717   0.56993
  16         D1         0.00000   0.00000   0.000001000.00000
  17         D2         0.00000   0.00000   0.000001000.00000
  18         D3         0.00000   0.00000   0.000001000.00000
 RFO step:  Lambda0=2.130403093D-03 Lambda=-4.94106467D-02.
 Linear search not attempted -- option 19 set.
 Maximum step size (   0.300) exceeded in Quadratic search.
    -- Step size scaled by   0.264
 Iteration  1 RMS(Cart)=  0.11011615 RMS(Int)=  0.00326341
 Iteration  2 RMS(Cart)=  0.00388046 RMS(Int)=  0.00011033
 Iteration  3 RMS(Cart)=  0.00000620 RMS(Int)=  0.00011025
 Iteration  4 RMS(Cart)=  0.00000000 RMS(Int)=  0.00011025
 ClnCor:  largest displacement from symmetrization is 7.16D-02 for atom     4.
 Variable       Old X    -DE/DX   Delta X   Delta X   Delta X     New X
                                 (Linear)    (Quad)   (Total)
    R1        3.47710  -0.06124   0.00000  -0.16606  -0.16666   3.31044
    R2        2.02201   0.01360   0.00000   0.00375   0.00702   2.02903
    R3        2.02201   0.01360   0.00000   0.00381   0.00702   2.02903
    R4        2.02201   0.01350   0.00000   0.00379   0.00352   2.02553
    R5        3.26923  -0.03573   0.00000  -0.21020  -0.21050   3.05873
    R6        1.81414   0.01398   0.00000   0.00199  -0.00045   1.81369
    A1        1.91063  -0.01433   0.00000  -0.00896   0.00702   1.91765
    A2        1.91063  -0.01437   0.00000  -0.00828   0.00702   1.91765
    A3        1.91063  -0.01567   0.00000  -0.01412  -0.01447   1.89616
    A4        1.91063   0.01476   0.00000   0.01057   0.00888   1.91951
    A5        1.91063   0.01484   0.00000   0.01042  -0.00433   1.90631
    A6        1.91063   0.01477   0.00000   0.01038  -0.00433   1.90631
    A7        1.91063  -0.01253   0.00000  -0.03024  -0.03054   1.88009
    A8        3.14159  -0.00082   0.00000   0.04486   0.01554   3.15713
    A9        3.14159   0.00061   0.00000  -0.03326  -0.07011   3.07148
    D1       -1.04720  -0.00019   0.00000  -0.07037  -0.01500  -1.06220
    D2        1.04720   0.00013   0.00000  -0.05776   0.01500   1.06220
    D3        3.14159   0.00006   0.00000  -0.07208   0.00000   3.14159
         Item               Value     Threshold  Converged?
 Maximum Force            0.061238     0.000450     NO 
 RMS     Force            0.020063     0.000300     NO 
 Maximum Displacement     0.231198     0.001800     NO 
 RMS     Displacement     0.106164     0.001200     NO 
 Predicted change in Energy=-1.937750D-02
 GradGradGradGradGradGradGradGradGradGradGradGradGradGradGradGradGradGrad

                          Input orientation:                          
 ---------------------------------------------------------------------
 Center     Atomic      Atomic             Coordinates (Angstroms)
 Number     Number       Type             X           Y           Z
 ---------------------------------------------------------------------
      1          6           0       -3.457527    5.245510   -2.579148
      2          1           0       -2.869906    3.595196   -2.579148
      3          1           0       -3.112480    5.755817   -1.699721
      4          1           0       -3.112480    5.755817   -3.458574
      5          1           0       -4.529239    5.227611   -2.579148
      6          8           0       -2.378355    2.053032   -2.579148
      7          1           0       -1.418591    2.052328   -2.579148
 ---------------------------------------------------------------------
                    Distance matrix (angstroms):
                    1          2          3          4          5
     1  C    0.000000
     2  H    1.751808   0.000000
     3  H    1.073714   2.345318   0.000000
     4  H    1.073714   2.345318   1.758853   0.000000
     5  H    1.071862   2.327694   1.749171   1.749171   0.000000
     6  O    3.369944   1.618608   3.875945   3.875945   3.834612
     7  H    3.788623   2.118197   4.166351   4.166351   4.445059
                    6          7
     6  O    0.000000
     7  H    0.959763   0.000000
 Stoichiometry    CH5O(2)
 Framework group  CS[SG(CH3O),X(H2)]
 Deg. of freedom    10
 Full point group                 CS      NOp   2
 Largest Abelian subgroup         CS      NOp   2
 Largest concise Abelian subgroup CS      NOp   2
                         Standard orientation:                         
 ---------------------------------------------------------------------
 Center     Atomic      Atomic             Coordinates (Angstroms)
 Number     Number       Type             X           Y           Z
 ---------------------------------------------------------------------
      1          6           0       -0.047198    1.648262    0.000000
      2          1           0       -0.019010   -0.103320    0.000000
      3          1           0        0.443096    2.021200    0.879426
      4          1           0        0.443096    2.021200   -0.879426
      5          1           0       -1.068204    1.974505    0.000000
      6          8           0       -0.047198   -1.721682    0.000000
      7          1           0        0.861797   -2.029699    0.000000
 ---------------------------------------------------------------------
 Rotational constants (GHZ):    130.6377737      5.1841632      5.1445425
 Standard basis: 6-31+G(d,p) (6D, 7F)
 There are    45 symmetry adapted basis functions of A'  symmetry.
 There are    18 symmetry adapted basis functions of A"  symmetry.
 Integral buffers will be    262144 words long.
 Raffenetti 2 integral format.
 Two-electron integral symmetry is turned on.
    63 basis functions,    99 primitive gaussians,    63 cartesian basis functions
    10 alpha electrons        9 beta electrons
       nuclear repulsion energy        31.5864792048 Hartrees.
 NAtoms=    7 NActive=    7 NUniq=    6 SFac= 1.02D+00 NAtFMM=   80 NAOKFM=F Big=F
 One-electron integrals computed using PRISM.
 NBasis=    63 RedAO= T  NBF=    45    18
 NBsUse=    63 1.00D-06 NBFU=    45    18
 Initial guess read from the read-write file.
 B after Tr=     0.000000    0.000000    0.000000
         Rot=    1.000000    0.000000    0.000000    0.000000 Ang=   0.00 deg.
 Initial guess orbital symmetries:
 Alpha Orbitals:
       Occupied  (A') (A') (A') (A') (A') (A") (A') (A') (A") (A')
       Virtual   (A') (A') (A') (A") (A') (A') (A') (A") (A') (A")
                 (A') (A') (A') (A') (A") (A') (A') (A") (A') (A')
                 (A') (A') (A") (A') (A') (A') (A") (A') (A') (A")
                 (A') (A") (A') (A') (A") (A") (A') (A") (A') (A")
                 (A') (A') (A') (A') (A") (A") (A') (A') (A') (A")
                 (A') (A') (A')
 Beta  Orbitals:
       Occupied  (A') (A') (A') (A') (A') (A") (A') (A") (A')
       Virtual   (A') (A') (A') (A") (A') (A') (A') (A') (A") (A')
                 (A") (A') (A') (A') (A') (A") (A') (A') (A") (A')
                 (A') (A') (A') (A') (A") (A') (A') (A") (A') (A')
                 (A") (A') (A") (A') (A') (A") (A") (A') (A") (A')
                 (A") (A') (A') (A') (A") (A') (A') (A") (A') (A')
                 (A") (A') (A') (A')
 Initial guess <Sx>= 0.0000 <Sy>= 0.0000 <Sz>= 0.5000 <S**2>= 0.8421 S= 0.5450
 Harris functional with IExCor= 1009 diagonalized for initial guess.
 ExpMin= 4.38D-02 ExpMax= 5.48D+03 ExpMxC= 8.25D+02 IAcc=2 IRadAn=         0 AccDes= 0.00D+00
 HarFok:  IExCor= 1009 AccDes= 0.00D+00 IRadAn=         0 IDoV= 1
 ScaDFX=  1.000000  1.000000  1.000000  1.000000
 FoFCou: FMM=F IPFlag=           0 FMFlag=      100000 FMFlg1=           0
         NFxFlg=           0 DoJE=T BraDBF=F KetDBF=T FulRan=T
         Omega=  0.000000  0.000000  1.000000  0.000000  0.000000 ICntrl=     500 IOpCl=  0
         NMat0=    1 NMatS0=    1 NMatT0=    0 NMatD0=    1 NMtDS0=    0 NMtDT0=    0
         I1Cent=           4 NGrid=           0.
 Petite list used in FoFCou.
 Requested convergence on RMS density matrix=1.00D-08 within 128 cycles.
 Requested convergence on MAX density matrix=1.00D-06.
 Requested convergence on             energy=1.00D-06.
 No special actions if energy rises.
 Keep R1 and R2 ints in memory in canonical form, NReq=5032925.
 SCF Done:  E(UM062X) =  -116.108851981     A.U. after   16 cycles
             Convg  =    0.2314D-08             -V/T =  2.0108
 <Sx>= 0.0000 <Sy>= 0.0000 <Sz>= 0.5000 <S**2>= 0.8082 S= 0.5287
 <L.S>= 0.000000000000E+00
 Annihilation of the first spin contaminant:
 S**2 before annihilation     0.8082,   after     0.7503
 Calling FoFJK, ICntrl=      2127 FMM=F ISym2X=1 I1Cent= 0 IOpClX= 1 NMat=1 NMatS=1 NMatT=0.
 ***** Axes restored to original set *****
 -------------------------------------------------------------------
 Center     Atomic                   Forces (Hartrees/Bohr)
 Number     Number              X              Y              Z
 -------------------------------------------------------------------
      1        6           0.010673530   -0.026846073    0.000000000
      2        1          -0.002258837    0.009844739    0.000000000
      3        1           0.010846615   -0.006197214    0.012677173
      4        1           0.010846615   -0.006197214   -0.012677173
      5        1          -0.012259020   -0.014843359    0.000000000
      6        8          -0.031233830    0.037249249    0.000000000
      7        1           0.013384927    0.006989872    0.000000000
 -------------------------------------------------------------------
 Cartesian Forces:  Max     0.037249249 RMS     0.014690246

 GradGradGradGradGradGradGradGradGradGradGradGradGradGradGradGradGradGrad
 Berny optimization.
 Internal  Forces:  Max     0.057689807 RMS     0.020518761
 Search for a saddle point.
 Step number   2 out of a maximum of  100
 All quantities printed in internal units (Hartrees-Bohrs-Radians)
 Update second derivatives using D2CorX and points    1    2
 The second derivative matrix:
                          R1        R2        R3        R4        R5
           R1          -0.06466
           R2           0.00130   0.39789
           R3           0.00129   0.00057   0.39789
           R4           0.00108   0.00066   0.00066   0.39984
           R5           0.06506   0.00013   0.00012   0.00021  -0.10430
           R6           0.00402  -0.00008  -0.00008   0.00005  -0.00726
           A1           0.00873  -0.00459  -0.00457  -0.00472  -0.00440
           A2           0.00858  -0.00457  -0.00462  -0.00468  -0.00442
           A3           0.00641  -0.00476  -0.00472  -0.00394  -0.00501
           A4          -0.00732   0.00911   0.00903  -0.00386   0.00502
           A5          -0.00805   0.00882  -0.00395   0.00857   0.00442
           A6          -0.00836  -0.00402   0.00883   0.00863   0.00438
           A7           0.01688  -0.00015  -0.00015  -0.00060  -0.02081
           A8          -0.00143  -0.00173   0.00102   0.00070   0.00073
           A9           0.00176  -0.00024   0.00064  -0.00049  -0.00096
           D1           0.00061  -0.00027  -0.00518   0.00519   0.00022
           D2          -0.00082   0.00505   0.00034  -0.00514  -0.00023
           D3           0.00020  -0.00507   0.00513  -0.00005   0.00001
                          R6        A1        A2        A3        A4
           R6           0.56991
           A1          -0.00065   0.05079
           A2          -0.00063  -0.00430   0.05072
           A3          -0.00095  -0.00399  -0.00383   0.05023
           A4           0.00074  -0.02041  -0.02070  -0.00173   0.05692
           A5           0.00073  -0.01998  -0.00193  -0.02048  -0.00670
           A6           0.00076  -0.00212  -0.01997  -0.02020  -0.00737
           A7           0.00157  -0.00187  -0.00185  -0.00223   0.00217
           A8           0.00032  -0.00162   0.00105   0.00139  -0.00398
           A9          -0.00024   0.00011   0.00042  -0.00098   0.00251
           D1          -0.00009   0.00002  -0.00322   0.00330  -0.02187
           D2           0.00011   0.00323  -0.00003  -0.00325   0.02166
           D3          -0.00002  -0.00395   0.00392  -0.00002   0.00016
                          A5        A6        A7        A8        A9
           A5           0.05648
           A6          -0.00739   0.05705
           A7           0.00187   0.00191   0.04706
           A8          -0.00325   0.00640   0.00087   0.00480
           A9          -0.00226   0.00019  -0.00051   0.00153   0.00087
           D1           0.02185  -0.00007   0.00001   0.00111  -0.00178
           D2           0.00002  -0.02162   0.00004  -0.00346   0.00127
           D3          -0.02181   0.02171  -0.00005   0.00439   0.00101
                          D1        D2        D3
           D1           0.01916
           D2          -0.00951   0.01862
           D3          -0.00971  -0.00902   0.01866
 LST/QST climbing along tangent vector
     Eigenvalues ---   -0.14936  -0.02005  -0.00043   0.00007   0.00450
     Eigenvalues ---    0.04648   0.05392   0.05559   0.08477   0.09159
     Eigenvalues ---    0.09227   0.39811   0.39890   0.40139   0.56993
     Eigenvalues --- 1000.000001000.000001000.00000
 Eigenvectors required to have negative eigenvalues:
                          R1        R5        D1        D2        A9
   1                    0.70981  -0.70439   0.00141  -0.00120   0.00087
                          A4        A5        A7        A6        A3
   1                    0.00075  -0.00053   0.00044  -0.00027  -0.00025
 QST in optimization variable space.
                        Tangent   TS vect  // Eig F  Eigenval
   1         R1         0.70981   0.70981  -0.00745  -0.14936
   2         R2        -0.00010  -0.00010  -0.03646  -0.02005
   3         R3        -0.00010  -0.00010  -0.00065  -0.00043
   4         R4        -0.00005  -0.00005  -0.00099   0.00007
   5         R5        -0.70439  -0.70439   0.00037   0.00450
   6         R6         0.00001   0.00001  -0.00739   0.04648
   7         A1         0.00008   0.00008   0.00069   0.05392
   8         A2         0.00021   0.00021  -0.00009   0.05559
   9         A3        -0.00025  -0.00025  -0.01813   0.08477
  10         A4         0.00075   0.00075  -0.00016   0.09159
  11         A5        -0.00053  -0.00053  -0.00033   0.09227
  12         A6        -0.00027  -0.00027   0.00002   0.39811
  13         A7         0.00044   0.00044   0.00373   0.39890
  14         A8        -0.00012  -0.00012   0.01022   0.40139
  15         A9         0.00087   0.00087   0.00689   0.56993
  16         D1         0.00141   0.00141   0.000001000.00000
  17         D2        -0.00120  -0.00120   0.000001000.00000
  18         D3        -0.00021  -0.00021   0.000001000.00000
 RFO step:  Lambda0=3.703251454D-04 Lambda=-4.91256199D-02.
 Linear search not attempted -- option 19 set.
 Maximum step size (   0.300) exceeded in Quadratic search.
    -- Step size scaled by   0.265
 Iteration  1 RMS(Cart)=  0.11342762 RMS(Int)=  0.00192988
 Iteration  2 RMS(Cart)=  0.00154980 RMS(Int)=  0.00011079
 Iteration  3 RMS(Cart)=  0.00000693 RMS(Int)=  0.00011057
 Iteration  4 RMS(Cart)=  0.00000000 RMS(Int)=  0.00011057
 ClnCor:  largest displacement from symmetrization is 7.27D-02 for atom     4.
 Variable       Old X    -DE/DX   Delta X   Delta X   Delta X     New X
                                 (Linear)    (Quad)   (Total)
    R1        3.31044  -0.05769   0.00000  -0.18002  -0.18062   3.12982
    R2        2.02903   0.01091   0.00000   0.00311   0.00718   2.03621
    R3        2.02903   0.01092   0.00000   0.00318   0.00718   2.03621
    R4        2.02553   0.01251   0.00000   0.00359   0.00334   2.02886
    R5        3.05873  -0.04757   0.00000  -0.20024  -0.20058   2.85815
    R6        1.81369   0.01339   0.00000   0.00182  -0.00044   1.81325
    A1        1.91765  -0.01409   0.00000  -0.00865   0.00765   1.92530
    A2        1.91765  -0.01417   0.00000  -0.00818   0.00765   1.92530
    A3        1.89616  -0.01501   0.00000  -0.01403  -0.01438   1.88178
    A4        1.91951   0.01383   0.00000   0.00993   0.00631   1.92582
    A5        1.90631   0.01477   0.00000   0.01051  -0.00390   1.90240
    A6        1.90631   0.01467   0.00000   0.01037  -0.00390   1.90240
    A7        1.88009  -0.01271   0.00000  -0.02758  -0.02799   1.85211
    A8        3.15713  -0.00071   0.00000   0.04564   0.01366   3.17080
    A9        3.07148   0.00063   0.00000  -0.03945  -0.07299   2.99849
    D1       -1.06220   0.00062   0.00000  -0.06751  -0.01468  -1.07688
    D2        1.06220  -0.00071   0.00000  -0.05516   0.01468   1.07688
    D3        3.14159   0.00009   0.00000  -0.06930   0.00000   3.14159
         Item               Value     Threshold  Converged?
 Maximum Force            0.057690     0.000450     NO 
 RMS     Force            0.020519     0.000300     NO 
 Maximum Displacement     0.229149     0.001800     NO 
 RMS     Displacement     0.106890     0.001200     NO 
 Predicted change in Energy=-2.117751D-02
 GradGradGradGradGradGradGradGradGradGradGradGradGradGradGradGradGradGrad

                          Input orientation:                          
 ---------------------------------------------------------------------
 Center     Atomic      Atomic             Coordinates (Angstroms)
 Number     Number       Type             X           Y           Z
 ---------------------------------------------------------------------
      1          6           0       -3.426823    5.184813   -2.579148
      2          1           0       -2.861783    3.627948   -2.579148
      3          1           0       -3.095052    5.703130   -1.694663
      4          1           0       -3.095052    5.703130   -3.463633
      5          1           0       -4.499709    5.144920   -2.579148
      6          8           0       -2.444116    2.174293   -2.579148
      7          1           0       -1.484587    2.172831   -2.579148
 ---------------------------------------------------------------------
                    Distance matrix (angstroms):
                    1          2          3          4          5
     1  C    0.000000
     2  H    1.656230   0.000000
     3  H    1.077515   2.267843   0.000000
     4  H    1.077515   2.267843   1.768970   0.000000
     5  H    1.073628   2.232489   1.751278   1.751278   0.000000
     6  O    3.166851   1.512468   3.695772   3.695772   3.612491
     7  H    3.583897   2.003506   3.979815   3.979815   4.233707
                    6          7
     6  O    0.000000
     7  H    0.959530   0.000000
 Stoichiometry    CH5O(2)
 Framework group  CS[SG(CH3O),X(H2)]
 Deg. of freedom    10
 Full point group                 CS      NOp   2
 Largest Abelian subgroup         CS      NOp   2
 Largest concise Abelian subgroup CS      NOp   2
                         Standard orientation:                         
 ---------------------------------------------------------------------
 Center     Atomic      Atomic             Coordinates (Angstroms)
 Number     Number       Type             X           Y           Z
 ---------------------------------------------------------------------
      1          6           0       -0.046627    1.546399    0.000000
      2          1           0        0.007408   -0.108949    0.000000
      3          1           0        0.429605    1.936178    0.884485
      4          1           0        0.429605    1.936178   -0.884485
      5          1           0       -1.078930    1.841403    0.000000
      6          8           0       -0.046627   -1.620452    0.000000
      7          1           0        0.865082   -1.919593    0.000000
 ---------------------------------------------------------------------
 Rotational constants (GHZ):    129.9708558      5.8353834      5.7862994
 Standard basis: 6-31+G(d,p) (6D, 7F)
 There are    45 symmetry adapted basis functions of A'  symmetry.
 There are    18 symmetry adapted basis functions of A"  symmetry.
 Integral buffers will be    262144 words long.
 Raffenetti 2 integral format.
 Two-electron integral symmetry is turned on.
    63 basis functions,    99 primitive gaussians,    63 cartesian basis functions
    10 alpha electrons        9 beta electrons
       nuclear repulsion energy        32.6103977672 Hartrees.
 NAtoms=    7 NActive=    7 NUniq=    6 SFac= 1.02D+00 NAtFMM=   80 NAOKFM=F Big=F
 One-electron integrals computed using PRISM.
 NBasis=    63 RedAO= T  NBF=    45    18
 NBsUse=    63 1.00D-06 NBFU=    45    18
 Initial guess read from the read-write file.
 B after Tr=     0.000000    0.000000    0.000000
         Rot=    1.000000    0.000000    0.000000    0.000000 Ang=   0.00 deg.
 Initial guess orbital symmetries:
 Alpha Orbitals:
       Occupied  (A') (A') (A') (A') (A') (A") (A') (A') (A") (A')
       Virtual   (A') (A') (A") (A') (A') (A') (A') (A") (A') (A")
                 (A') (A') (A') (A') (A") (A') (A') (A') (A") (A')
                 (A') (A') (A") (A') (A') (A') (A") (A') (A') (A")
                 (A') (A") (A') (A') (A") (A") (A') (A") (A') (A")
                 (A') (A') (A") (A') (A') (A') (A") (A') (A") (A')
                 (A') (A') (A')
 Beta  Orbitals:
       Occupied  (A') (A') (A') (A') (A') (A") (A') (A') (A")
       Virtual   (A') (A') (A') (A") (A') (A') (A') (A') (A") (A')
                 (A") (A') (A') (A') (A') (A") (A') (A') (A') (A")
                 (A') (A') (A') (A') (A") (A') (A') (A") (A') (A')
                 (A") (A') (A") (A') (A') (A") (A") (A') (A") (A')
                 (A") (A') (A') (A") (A') (A') (A') (A") (A') (A")
                 (A') (A') (A') (A')
 Initial guess <Sx>= 0.0000 <Sy>= 0.0000 <Sz>= 0.5000 <S**2>= 0.8012 S= 0.5253
 Harris functional with IExCor= 1009 diagonalized for initial guess.
 ExpMin= 4.38D-02 ExpMax= 5.48D+03 ExpMxC= 8.25D+02 IAcc=2 IRadAn=         0 AccDes= 0.00D+00
 HarFok:  IExCor= 1009 AccDes= 0.00D+00 IRadAn=         0 IDoV= 1
 ScaDFX=  1.000000  1.000000  1.000000  1.000000
 FoFCou: FMM=F IPFlag=           0 FMFlag=      100000 FMFlg1=           0
         NFxFlg=           0 DoJE=T BraDBF=F KetDBF=T FulRan=T
         Omega=  0.000000  0.000000  1.000000  0.000000  0.000000 ICntrl=     500 IOpCl=  0
         NMat0=    1 NMatS0=    1 NMatT0=    0 NMatD0=    1 NMtDS0=    0 NMtDT0=    0
         I1Cent=           4 NGrid=           0.
 Petite list used in FoFCou.
 Requested convergence on RMS density matrix=1.00D-08 within 128 cycles.
 Requested convergence on MAX density matrix=1.00D-06.
 Requested convergence on             energy=1.00D-06.
 No special actions if energy rises.
 Keep R1 and R2 ints in memory in canonical form, NReq=5032925.
 SCF Done:  E(UM062X) =  -116.129580178     A.U. after   13 cycles
             Convg  =    0.3145D-08             -V/T =  2.0108
 <Sx>= 0.0000 <Sy>= 0.0000 <Sz>= 0.5000 <S**2>= 0.7879 S= 0.5188
 <L.S>= 0.000000000000E+00
 Annihilation of the first spin contaminant:
 S**2 before annihilation     0.7879,   after     0.7502
 Calling FoFJK, ICntrl=      2127 FMM=F ISym2X=1 I1Cent= 0 IOpClX= 1 NMat=1 NMatS=1 NMatT=0.
 ***** Axes restored to original set *****
 -------------------------------------------------------------------
 Center     Atomic                   Forces (Hartrees/Bohr)
 Number     Number              X              Y              Z
 -------------------------------------------------------------------
      1        6           0.009195951   -0.021673721    0.000000000
      2        1          -0.000538081   -0.002123074    0.000000000
      3        1           0.010297672   -0.006628975    0.010168354
      4        1           0.010297672   -0.006628975   -0.010168354
      5        1          -0.011082143   -0.014462970    0.000000000
      6        8          -0.031144205    0.045143499    0.000000000
      7        1           0.012973133    0.006374217    0.000000000
 -------------------------------------------------------------------
 Cartesian Forces:  Max     0.045143499 RMS     0.014823880

 GradGradGradGradGradGradGradGradGradGradGradGradGradGradGradGradGradGrad
 Berny optimization.
 Internal  Forces:  Max     0.054525867 RMS     0.020409101
 Search for a saddle point.
 Step number   3 out of a maximum of  100
 All quantities printed in internal units (Hartrees-Bohrs-Radians)
 Update second derivatives using D2CorX and points    1    2    3
 The second derivative matrix:
                          R1        R2        R3        R4        R5
           R1          -0.05698
           R2           0.00157   0.39790
           R3           0.00155   0.00057   0.39790
           R4           0.00111   0.00066   0.00066   0.39984
           R5           0.07256   0.00040   0.00038   0.00024  -0.09701
           R6           0.00410  -0.00008  -0.00008   0.00005  -0.00718
           A1           0.00907  -0.00458  -0.00457  -0.00472  -0.00406
           A2           0.00888  -0.00456  -0.00462  -0.00468  -0.00412
           A3           0.00640  -0.00475  -0.00471  -0.00394  -0.00503
           A4          -0.00738   0.00911   0.00903  -0.00386   0.00496
           A5          -0.00819   0.00882  -0.00395   0.00857   0.00428
           A6          -0.00855  -0.00402   0.00882   0.00863   0.00418
           A7           0.01939  -0.00007  -0.00007  -0.00059  -0.01834
           A8          -0.00157  -0.00174   0.00102   0.00070   0.00060
           A9           0.00191  -0.00022   0.00066  -0.00049  -0.00086
           D1           0.00049  -0.00027  -0.00517   0.00520   0.00009
           D2          -0.00067   0.00505   0.00034  -0.00514  -0.00008
           D3           0.00016  -0.00507   0.00513  -0.00005  -0.00003
                          R6        A1        A2        A3        A4
           R6           0.56991
           A1          -0.00064   0.05080
           A2          -0.00063  -0.00429   0.05073
           A3          -0.00095  -0.00399  -0.00382   0.05022
           A4           0.00074  -0.02041  -0.02071  -0.00173   0.05691
           A5           0.00073  -0.01999  -0.00193  -0.02048  -0.00670
           A6           0.00076  -0.00213  -0.01997  -0.02020  -0.00737
           A7           0.00160  -0.00177  -0.00176  -0.00223   0.00214
           A8           0.00031  -0.00163   0.00105   0.00139  -0.00398
           A9          -0.00024   0.00014   0.00044  -0.00100   0.00252
           D1          -0.00009   0.00002  -0.00322   0.00329  -0.02187
           D2           0.00011   0.00323  -0.00003  -0.00324   0.02165
           D3          -0.00002  -0.00395   0.00392  -0.00002   0.00016
                          A5        A6        A7        A8        A9
           A5           0.05648
           A6          -0.00739   0.05705
           A7           0.00183   0.00186   0.04786
           A8          -0.00324   0.00641   0.00082   0.00480
           A9          -0.00228   0.00018  -0.00042   0.00154   0.00078
           D1           0.02185  -0.00007  -0.00002   0.00111  -0.00181
           D2           0.00002  -0.02162   0.00008  -0.00347   0.00130
           D3          -0.02181   0.02171  -0.00006   0.00439   0.00101
                          D1        D2        D3
           D1           0.01915
           D2          -0.00951   0.01862
           D3          -0.00971  -0.00902   0.01866
     Eigenvalues ---   -0.15765  -0.00365  -0.00035   0.00044   0.00453
     Eigenvalues ---    0.05144   0.05402   0.05556   0.08661   0.09160
     Eigenvalues ---    0.09227   0.39811   0.39891   0.40139   0.57002
     Eigenvalues --- 1000.000001000.000001000.00000
 Eigenvectors required to have negative eigenvalues:
                          R5        R1        A7        A4        A1
   1                    0.78040  -0.60527   0.12874  -0.03910   0.03598
                          A2        A3        A6        A5        A9
   1                    0.03547   0.03531  -0.03431  -0.03337   0.01277
 QST in optimization variable space.
                        Tangent   TS vect  // Eig F  Eigenval
   1         R1         0.71457  -0.60527  -0.01481  -0.15765
   2         R2        -0.00027   0.00293  -0.06595  -0.00365
   3         R3        -0.00028   0.00296  -0.00787  -0.00035
   4         R4        -0.00014   0.00270  -0.02293   0.00044
   5         R5        -0.69954   0.78040   0.00442   0.00453
   6         R6         0.00002   0.01106  -0.01672   0.05144
   7         A1         0.00018   0.03598   0.00613   0.05402
   8         A2         0.00044   0.03547  -0.00098   0.05556
   9         A3        -0.00052   0.03531  -0.03863   0.08661
  10         A4         0.00169  -0.03910  -0.00055   0.09160
  11         A5        -0.00118  -0.03337  -0.00074   0.09227
  12         A6        -0.00069  -0.03431   0.00004   0.39811
  13         A7         0.00116   0.12874   0.00456   0.39891
  14         A8        -0.00037  -0.01043   0.01766   0.40139
  15         A9         0.00251   0.01277   0.01331   0.57002
  16         D1         0.00327  -0.00327   0.000001000.00000
  17         D2        -0.00286   0.00220   0.000001000.00000
  18         D3        -0.00041   0.00117   0.000001000.00000
 RFO step:  Lambda0=1.379907063D-03 Lambda=-7.83727906D-02.
 Linear search not attempted -- option 19 set.
 Maximum step size (   0.300) exceeded in Quadratic search.
    -- Step size scaled by   0.252
 Iteration  1 RMS(Cart)=  0.10369456 RMS(Int)=  0.00916525
 Iteration  2 RMS(Cart)=  0.01201369 RMS(Int)=  0.00005266
 Iteration  3 RMS(Cart)=  0.00000335 RMS(Int)=  0.00005255
 Iteration  4 RMS(Cart)=  0.00000000 RMS(Int)=  0.00005255
 ClnCor:  largest displacement from symmetrization is 5.21D-02 for atom     7.
 Variable       Old X    -DE/DX   Delta X   Delta X   Delta X     New X
                                 (Linear)    (Quad)   (Total)
    R1        3.12982  -0.05280   0.00000  -0.23856  -0.23875   2.89107
    R2        2.03621   0.00829   0.00000   0.00460   0.00738   2.04359
    R3        2.03621   0.00833   0.00000   0.00468   0.00738   2.04359
    R4        2.02886   0.01161   0.00000   0.00605   0.00592   2.03479
    R5        2.85815  -0.05453   0.00000  -0.15076  -0.15077   2.70738
    R6        1.81325   0.01296   0.00000   0.00481   0.00312   1.81637
    A1        1.92530  -0.01362   0.00000  -0.01042  -0.00093   1.92437
    A2        1.92530  -0.01375   0.00000  -0.01020  -0.00093   1.92437
    A3        1.88178  -0.01421   0.00000  -0.01602  -0.01621   1.86558
    A4        1.92582   0.01291   0.00000   0.01076   0.01095   1.93677
    A5        1.90240   0.01444   0.00000   0.01336   0.00319   1.90560
    A6        1.90240   0.01431   0.00000   0.01251   0.00319   1.90560
    A7        1.85211  -0.01159   0.00000  -0.00596  -0.00587   1.84624
    A8        3.17080  -0.00067   0.00000   0.01579   0.00171   3.17250
    A9        2.99849   0.00073   0.00000   0.01053  -0.00292   2.99557
    D1       -1.07688   0.00132   0.00000  -0.05382  -0.00727  -1.08415
    D2        1.07688  -0.00143   0.00000  -0.05283   0.00727   1.08415
    D3        3.14159   0.00011   0.00000  -0.05706   0.00000   3.14159
         Item               Value     Threshold  Converged?
 Maximum Force            0.054526     0.000450     NO 
 RMS     Force            0.020409     0.000300     NO 
 Maximum Displacement     0.232941     0.001800     NO 
 RMS     Displacement     0.110549     0.001200     NO 
 Predicted change in Energy=-2.161171D-02
 GradGradGradGradGradGradGradGradGradGradGradGradGradGradGradGradGradGrad

                          Input orientation:                          
 ---------------------------------------------------------------------
 Center     Atomic      Atomic             Coordinates (Angstroms)
 Number     Number       Type             X           Y           Z
 ---------------------------------------------------------------------
      1          6           0       -3.397026    5.119488   -2.579148
      2          1           0       -2.882860    3.678586   -2.579148
      3          1           0       -3.066039    5.635171   -1.688089
      4          1           0       -3.066039    5.635171   -3.470207
      5          1           0       -4.472549    5.067852   -2.579148
      6          8           0       -2.501619    2.297560   -2.579148
      7          1           0       -1.540454    2.291703   -2.579148
 ---------------------------------------------------------------------
                    Distance matrix (angstroms):
                    1          2          3          4          5
     1  C    0.000000
     2  H    1.529891   0.000000
     3  H    1.081419   2.157722   0.000000
     4  H    1.081419   2.157722   1.782118   0.000000
     5  H    1.076762   2.111202   1.759008   1.759008   0.000000
     6  O    2.960579   1.432681   3.500314   3.500314   3.399865
     7  H    3.382784   1.930155   3.781557   3.781557   4.037845
                    6          7
     6  O    0.000000
     7  H    0.961183   0.000000
 Stoichiometry    CH5O(2)
 Framework group  CS[SG(CH3O),X(H2)]
 Deg. of freedom    10
 Full point group                 CS      NOp   2
 Largest Abelian subgroup         CS      NOp   2
 Largest concise Abelian subgroup CS      NOp   2
                         Standard orientation:                         
 ---------------------------------------------------------------------
 Center     Atomic      Atomic             Coordinates (Angstroms)
 Number     Number       Type             X           Y           Z
 ---------------------------------------------------------------------
      1          6           0       -0.045832    1.442710    0.000000
      2          1           0        0.008464   -0.086216    0.000000
      3          1           0        0.425619    1.834138    0.891059
      4          1           0        0.425619    1.834138   -0.891059
      5          1           0       -1.086603    1.718777    0.000000
      6          8           0       -0.045832   -1.517869    0.000000
      7          1           0        0.868548   -1.814150    0.000000
 ---------------------------------------------------------------------
 Rotational constants (GHZ):    128.7614767      6.6333409      6.5708879
 Standard basis: 6-31+G(d,p) (6D, 7F)
 There are    45 symmetry adapted basis functions of A'  symmetry.
 There are    18 symmetry adapted basis functions of A"  symmetry.
 Integral buffers will be    262144 words long.
 Raffenetti 2 integral format.
 Two-electron integral symmetry is turned on.
    63 basis functions,    99 primitive gaussians,    63 cartesian basis functions
    10 alpha electrons        9 beta electrons
       nuclear repulsion energy        33.7624400560 Hartrees.
 NAtoms=    7 NActive=    7 NUniq=    6 SFac= 1.02D+00 NAtFMM=   80 NAOKFM=F Big=F
 One-electron integrals computed using PRISM.
 NBasis=    63 RedAO= T  NBF=    45    18
 NBsUse=    63 1.00D-06 NBFU=    45    18
 Initial guess read from the read-write file.
 B after Tr=     0.000000    0.000000    0.000000
         Rot=    1.000000    0.000000    0.000000    0.000000 Ang=   0.00 deg.
 Initial guess orbital symmetries:
 Alpha Orbitals:
       Occupied  (A') (A') (A') (A') (A') (A") (A') (A') (A") (A')
       Virtual   (A') (A') (A") (A') (A') (A') (A") (A') (A') (A")
                 (A') (A') (A') (A') (A") (A') (A') (A') (A") (A')
                 (A') (A') (A") (A') (A') (A") (A') (A') (A') (A")
                 (A') (A") (A') (A') (A") (A") (A') (A") (A') (A")
                 (A') (A') (A") (A') (A') (A") (A') (A') (A") (A')
                 (A') (A') (A')
 Beta  Orbitals:
       Occupied  (A') (A') (A') (A') (A') (A") (A') (A') (A")
       Virtual   (A') (A') (A') (A") (A') (A') (A') (A") (A') (A')
                 (A") (A') (A') (A') (A') (A") (A') (A') (A') (A")
                 (A') (A') (A') (A") (A') (A') (A") (A') (A') (A')
                 (A") (A') (A") (A') (A') (A") (A") (A') (A") (A')
                 (A") (A') (A') (A") (A') (A') (A") (A') (A') (A")
                 (A') (A') (A') (A')
 Initial guess <Sx>= 0.0000 <Sy>= 0.0000 <Sz>= 0.5000 <S**2>= 0.7824 S= 0.5161
 Harris functional with IExCor= 1009 diagonalized for initial guess.
 ExpMin= 4.38D-02 ExpMax= 5.48D+03 ExpMxC= 8.25D+02 IAcc=2 IRadAn=         0 AccDes= 0.00D+00
 HarFok:  IExCor= 1009 AccDes= 0.00D+00 IRadAn=         0 IDoV= 1
 ScaDFX=  1.000000  1.000000  1.000000  1.000000
 FoFCou: FMM=F IPFlag=           0 FMFlag=      100000 FMFlg1=           0
         NFxFlg=           0 DoJE=T BraDBF=F KetDBF=T FulRan=T
         Omega=  0.000000  0.000000  1.000000  0.000000  0.000000 ICntrl=     500 IOpCl=  0
         NMat0=    1 NMatS0=    1 NMatT0=    0 NMatD0=    1 NMtDS0=    0 NMtDT0=    0
         I1Cent=           4 NGrid=           0.
 Petite list used in FoFCou.
 Requested convergence on RMS density matrix=1.00D-08 within 128 cycles.
 Requested convergence on MAX density matrix=1.00D-06.
 Requested convergence on             energy=1.00D-06.
 No special actions if energy rises.
 Keep R1 and R2 ints in memory in canonical form, NReq=5032925.
 SCF Done:  E(UM062X) =  -116.150445124     A.U. after   13 cycles
             Convg  =    0.2691D-08             -V/T =  2.0105
 <Sx>= 0.0000 <Sy>= 0.0000 <Sz>= 0.5000 <S**2>= 0.7739 S= 0.5119
 <L.S>= 0.000000000000E+00
 Annihilation of the first spin contaminant:
 S**2 before annihilation     0.7739,   after     0.7501
 Calling FoFJK, ICntrl=      2127 FMM=F ISym2X=1 I1Cent= 0 IOpClX= 1 NMat=1 NMatS=1 NMatT=0.
 ***** Axes restored to original set *****
 -------------------------------------------------------------------
 Center     Atomic                   Forces (Hartrees/Bohr)
 Number     Number              X              Y              Z
 -------------------------------------------------------------------
      1        6           0.009032424   -0.021993058    0.000000000
      2        1          -0.001941788    0.000951948    0.000000000
      3        1           0.008708768   -0.006135712    0.007098846
      4        1           0.008708768   -0.006135712   -0.007098846
      5        1          -0.008963964   -0.012321476    0.000000000
      6        8          -0.026722940    0.039892230    0.000000000
      7        1           0.011178733    0.005741781    0.000000000
 -------------------------------------------------------------------
 Cartesian Forces:  Max     0.039892230 RMS     0.013080941

 GradGradGradGradGradGradGradGradGradGradGradGradGradGradGradGradGradGrad
 Berny optimization.
 Internal  Forces:  Max     0.049728915 RMS     0.018294789
 Search for a saddle point.
 Step number   4 out of a maximum of  100
 All quantities printed in internal units (Hartrees-Bohrs-Radians)
 Update second derivatives using D2CorX and points    2    3    4
 The second derivative matrix:
                          R1        R2        R3        R4        R5
           R1          -0.04160
           R2           0.00156   0.39790
           R3           0.00159   0.00057   0.39790
           R4           0.00118   0.00066   0.00066   0.39984
           R5           0.08392   0.00039   0.00042   0.00029  -0.08863
           R6           0.00435  -0.00008  -0.00008   0.00005  -0.00700
           A1           0.00911  -0.00458  -0.00457  -0.00472  -0.00403
           A2           0.00900  -0.00456  -0.00462  -0.00468  -0.00402
           A3           0.00737  -0.00475  -0.00471  -0.00393  -0.00432
           A4          -0.00853   0.00911   0.00903  -0.00387   0.00411
           A5          -0.00902   0.00882  -0.00395   0.00857   0.00367
           A6          -0.00909  -0.00402   0.00882   0.00863   0.00378
           A7           0.01647  -0.00006  -0.00007  -0.00060  -0.02050
           A8          -0.00139  -0.00174   0.00102   0.00070   0.00073
           A9           0.00175  -0.00022   0.00067  -0.00049  -0.00098
           D1          -0.00011  -0.00027  -0.00517   0.00519  -0.00036
           D2           0.00001   0.00505   0.00034  -0.00514   0.00043
           D3           0.00011  -0.00507   0.00513  -0.00005  -0.00007
                          R6        A1        A2        A3        A4
           R6           0.56991
           A1          -0.00064   0.05080
           A2          -0.00063  -0.00429   0.05073
           A3          -0.00093  -0.00398  -0.00382   0.05028
           A4           0.00072  -0.02042  -0.02072  -0.00180   0.05700
           A5           0.00071  -0.01999  -0.00194  -0.02053  -0.00664
           A6           0.00075  -0.00213  -0.01998  -0.02024  -0.00733
           A7           0.00156  -0.00177  -0.00178  -0.00242   0.00236
           A8           0.00032  -0.00163   0.00105   0.00140  -0.00400
           A9          -0.00024   0.00014   0.00044  -0.00101   0.00253
           D1          -0.00010   0.00002  -0.00322   0.00325  -0.02183
           D2           0.00012   0.00323  -0.00002  -0.00320   0.02160
           D3          -0.00002  -0.00395   0.00392  -0.00002   0.00016
                          A5        A6        A7        A8        A9
           A5           0.05652
           A6          -0.00736   0.05707
           A7           0.00197   0.00195   0.04836
           A8          -0.00325   0.00640   0.00080   0.00480
           A9          -0.00227   0.00018  -0.00042   0.00155   0.00076
           D1           0.02188  -0.00006   0.00007   0.00111  -0.00181
           D2          -0.00002  -0.02164  -0.00003  -0.00347   0.00130
           D3          -0.02181   0.02171  -0.00005   0.00439   0.00101
                          D1        D2        D3
           D1           0.01917
           D2          -0.00953   0.01864
           D3          -0.00971  -0.00903   0.01866
     Eigenvalues ---   -0.15762  -0.00046  -0.00003   0.00449   0.02010
     Eigenvalues ---    0.05153   0.05400   0.05551   0.08772   0.09159
     Eigenvalues ---    0.09226   0.39811   0.39891   0.40139   0.57002
     Eigenvalues --- 1000.000001000.000001000.00000
 Eigenvectors required to have negative eigenvalues:
                          R5        R1        A7        A4        A1
   1                    0.78336  -0.60153   0.12818  -0.03938   0.03600
                          A3        A2        A6        A5        A9
   1                    0.03593   0.03550  -0.03380  -0.03289   0.01289
 QST in optimization variable space.
                        Tangent   TS vect  // Eig F  Eigenval
   1         R1         0.70310  -0.60153  -0.01146  -0.15762
   2         R2         0.00017   0.00291   0.00278  -0.00046
   3         R3         0.00015   0.00294   0.00355  -0.00003
   4         R4         0.00009   0.00269  -0.00150   0.00449
   5         R5        -0.71107   0.78336  -0.06264   0.02010
   6         R6         0.00002   0.01108  -0.01287   0.05153
   7         A1         0.00065   0.03600   0.00618   0.05400
   8         A2         0.00092   0.03550  -0.00102   0.05551
   9         A3        -0.00156   0.03593  -0.03771   0.08772
  10         A4         0.00241  -0.03938   0.00049   0.09159
  11         A5        -0.00158  -0.03289  -0.00012   0.09226
  12         A6        -0.00104  -0.03380   0.00003   0.39811
  13         A7        -0.00045   0.12818   0.00219   0.39891
  14         A8         0.00046  -0.01043   0.01362   0.40139
  15         A9        -0.00141   0.01289   0.01139   0.57002
  16         D1         0.00279  -0.00390   0.000001000.00000
  17         D2        -0.00233   0.00284   0.000001000.00000
  18         D3        -0.00046   0.00117   0.000001000.00000
 RFO step:  Lambda0=8.281604201D-04 Lambda=-6.08433457D-02.
 Linear search not attempted -- option 19 set.
 Maximum step size (   0.300) exceeded in Quadratic search.
    -- Step size scaled by   0.231
 Iteration  1 RMS(Cart)=  0.10751423 RMS(Int)=  0.00599495
 Iteration  2 RMS(Cart)=  0.00677243 RMS(Int)=  0.00028903
 Iteration  3 RMS(Cart)=  0.00006481 RMS(Int)=  0.00028421
 Iteration  4 RMS(Cart)=  0.00000001 RMS(Int)=  0.00028421
 ClnCor:  largest displacement from symmetrization is 1.35D-01 for atom     4.
          Exceeds limit of 1.00D-01 so symmetrization was rejected.
 Variable       Old X    -DE/DX   Delta X   Delta X   Delta X     New X
                                 (Linear)    (Quad)   (Total)
    R1        2.89107  -0.04973   0.00000  -0.16538  -0.16538   2.72569
    R2        2.04359   0.00555   0.00000   0.00292   0.00292   2.04651
    R3        2.04359   0.00559   0.00000   0.00287   0.00287   2.04646
    R4        2.03479   0.00954   0.00000   0.00449   0.00449   2.03927
    R5        2.70738  -0.04812   0.00000  -0.10326  -0.10326   2.60412
    R6        1.81637   0.01114   0.00000   0.00415   0.00415   1.82052
    A1        1.92437  -0.01171   0.00000  -0.01037  -0.01036   1.91402
    A2        1.92437  -0.01187   0.00000  -0.01160  -0.01147   1.91291
    A3        1.86558  -0.01202   0.00000  -0.01047  -0.01078   1.85479
    A4        1.93677   0.01045   0.00000   0.00846   0.00888   1.94565
    A5        1.90560   0.01249   0.00000   0.01211   0.01161   1.91721
    A6        1.90560   0.01236   0.00000   0.01166   0.01148   1.91708
    A7        1.84624  -0.01055   0.00000  -0.01500  -0.01500   1.83124
    A8        3.17250  -0.00080   0.00000  -0.09428  -0.09424   3.07826
    A9        2.99557   0.00094   0.00000   0.10183   0.10173   3.09730
    D1       -1.08415   0.00167   0.00000   0.11139   0.11214  -0.97201
    D2        1.08415  -0.00178   0.00000   0.08229   0.08180   1.16595
    D3        3.14159   0.00011   0.00000   0.11209   0.11183  -3.02976
         Item               Value     Threshold  Converged?
 Maximum Force            0.049729     0.000450     NO 
 RMS     Force            0.018295     0.000300     NO 
 Maximum Displacement     0.259136     0.001800     NO 
 RMS     Displacement     0.111062     0.001200     NO 
 Predicted change in Energy=-1.399046D-02
 GradGradGradGradGradGradGradGradGradGradGradGradGradGradGradGradGradGrad

                          Input orientation:                          
 ---------------------------------------------------------------------
 Center     Atomic      Atomic             Coordinates (Angstroms)
 Number     Number       Type             X           Y           Z
 ---------------------------------------------------------------------
      1          6           0       -3.379038    5.065787   -2.585172
      2          1           0       -2.951049    3.689372   -2.637618
      3          1           0       -2.995692    5.532642   -1.686335
      4          1           0       -3.044434    5.584448   -3.474997
      5          1           0       -4.457614    5.046171   -2.556435
      6          8           0       -2.528802    2.378278   -2.595963
      7          1           0       -1.569955    2.428831   -2.517515
[...]
     2   1     0.00   0.00  -0.78    -0.39   0.07   0.00     0.10   0.76   0.00
     3   1     0.35   0.13  -0.10     0.48   0.02  -0.17    -0.21   0.30  -0.17
     4   1    -0.35  -0.13  -0.10     0.48   0.02   0.17    -0.21   0.30   0.17
     5   1     0.00   0.00  -0.27     0.52   0.20   0.00     0.13  -0.02   0.00
     6   8     0.00   0.00   0.01    -0.02   0.00   0.00     0.00  -0.02   0.00
     7   1     0.00   0.00  -0.04     0.06   0.00   0.00     0.23   0.02   0.00
                    10                     11                     12
                     A                      A                      A
 Frequencies --  1465.2457              1484.9210              3096.9830
 Red. masses --     1.0429                 1.0247                 1.0243
 Frc consts  --     1.3192                 1.3313                 5.7882
 IR Inten    --     1.9981                 0.8926                 5.1843
  Atom  AN      X      Y      Z        X      Y      Z        X      Y      Z
     1   6     0.00   0.00   0.06    -0.01   0.04   0.00    -0.04   0.00   0.00
     2   1     0.00   0.00   0.19     0.00   0.41   0.00     0.00   0.00   0.00
     3   1    -0.31   0.35  -0.08    -0.13  -0.46   0.33     0.12   0.28   0.47
     4   1     0.31  -0.35  -0.08    -0.13  -0.46  -0.33     0.12   0.28  -0.47
     5   1     0.00   0.00  -0.72     0.35   0.17   0.00     0.21  -0.56   0.00
     6   8     0.00   0.00   0.00     0.00  -0.01   0.00     0.00   0.00   0.00
     7   1     0.00   0.00   0.02     0.09   0.01   0.00     0.00   0.00   0.00
                    13                     14                     15
                     A                      A                      A
 Frequencies --  3221.9363              3227.8021              3793.9349
 Red. masses --     1.1072                 1.1076                 1.0670
 Frc consts  --     6.7719                 6.7990                 9.0486
 IR Inten    --     6.0014                 8.1398                37.4318
  Atom  AN      X      Y      Z        X      Y      Z        X      Y      Z
     1   6    -0.01   0.09   0.00     0.00   0.00   0.10     0.00   0.00   0.00
     2   1     0.00   0.02   0.00     0.00   0.00   0.01     0.02   0.01   0.00
     3   1    -0.10  -0.20  -0.35    -0.17  -0.36  -0.59     0.00   0.00   0.00
     4   1    -0.11  -0.21   0.37     0.17   0.35  -0.57     0.00   0.00   0.00
     5   1     0.29  -0.74   0.00     0.00  -0.01   0.02     0.00   0.00   0.00
     6   8     0.00   0.00   0.00     0.00   0.00   0.00    -0.01   0.06   0.00
     7   1     0.00   0.00   0.00     0.00   0.00   0.00     0.14  -0.99   0.00

 -------------------
 - Thermochemistry -
 -------------------
 Temperature   298.150 Kelvin.  Pressure   1.00000 Atm.
 Atom     1 has atomic number  6 and mass  12.00000
 Atom     2 has atomic number  1 and mass   1.00783
 Atom     3 has atomic number  1 and mass   1.00783
 Atom     4 has atomic number  1 and mass   1.00783
 Atom     5 has atomic number  1 and mass   1.00783
 Atom     6 has atomic number  8 and mass  15.99491
 Atom     7 has atomic number  1 and mass   1.00783
 Molecular mass:    33.03404 amu.
 Principal axes and moments of inertia in atomic units:
                           1         2         3
     Eigenvalues --    14.98400 199.06156 202.22517
           X            0.99976  -0.02203   0.00000
           Y            0.02203   0.99976   0.00000
           Z            0.00000   0.00000   1.00000
 This molecule is an asymmetric top.
 Rotational symmetry number  1.
 Rotational temperatures (Kelvin)      5.78042     0.43511     0.42830
 Rotational constants (GHZ):         120.44453     9.06625     8.92441
    1 imaginary frequencies ignored.
 Zero-point vibrational energy     135803.8 (Joules/Mol)
                                   32.45790 (Kcal/Mol)
 Warning -- explicit consideration of   3 degrees of freedom as
           vibrations may cause significant error
 Vibrational temperatures:    165.81   461.80   462.85  1184.53  1328.47
          (Kelvin)           1778.79  1896.66  1949.13  2108.16  2136.47
                             4455.86  4635.64  4644.08  5458.62
 
 Zero-point correction=                           0.051725 (Hartree/Particle)
 Thermal correction to Energy=                    0.056218
 Thermal correction to Enthalpy=                  0.057162
 Thermal correction to Gibbs Free Energy=         0.026263
 Sum of electronic and zero-point Energies=           -116.128591
 Sum of electronic and thermal Energies=              -116.124098
 Sum of electronic and thermal Enthalpies=            -116.123154
 Sum of electronic and thermal Free Energies=         -116.154053
 
                     E (Thermal)             CV                S
                      KCal/Mol        Cal/Mol-Kelvin    Cal/Mol-Kelvin
 Total                   35.277             12.855             65.032
 Electronic               0.000              0.000              1.377
 Translational            0.889              2.981             36.416
 Rotational               0.889              2.981             21.028
 Vibrational             33.500              6.893              6.211
 Vibration     1          0.608              1.937              3.179
 Vibration     2          0.706              1.633              1.305
 Vibration     3          0.707              1.632              1.301
                       Q            Log10(Q)             Ln(Q)
 Total Bot       0.831436D-12        -12.080171        -27.815622
 Total V=0       0.514761D+12         11.711605         26.966968
 Vib (Bot)       0.633621D-23        -23.198170        -53.415761
 Vib (Bot)    1  0.177521D+01          0.249249          0.573918
 Vib (Bot)    2  0.585343D+00         -0.232590         -0.535558
 Vib (Bot)    3  0.583757D+00         -0.233768         -0.538270
 Vib (V=0)       0.392289D+01          0.593606          1.366829
 Vib (V=0)    1  0.234428D+01          0.370009          0.851978
 Vib (V=0)    2  0.126982D+01          0.103743          0.238877
 Vib (V=0)    3  0.126862D+01          0.103331          0.237927
 Electronic      0.200000D+01          0.301030          0.693147
 Translational   0.746273D+07          6.872898         15.825432
 Rotational      0.879168D+04          3.944072          9.081561
 ***** Axes restored to original set *****
 -------------------------------------------------------------------
 Center     Atomic                   Forces (Hartrees/Bohr)
 Number     Number              X              Y              Z
 -------------------------------------------------------------------
      1        6          -0.000005116    0.000003700   -0.000000241
      2        1           0.000000492   -0.000000554   -0.000000088
      3        1          -0.000000835   -0.000000267   -0.000002893
      4        1          -0.000000343   -0.000000433    0.000002517
      5        1          -0.000000819   -0.000006247    0.000000374
      6        8           0.000003423    0.000001226    0.000000430
      7        1           0.000003198    0.000002576   -0.000000099
 -------------------------------------------------------------------
 Cartesian Forces:  Max     0.000006247 RMS     0.000002453

 GradGradGradGradGradGradGradGradGradGradGradGradGradGradGradGradGradGrad
 Berny optimization.
 Internal  Forces:  Max     0.000003832 RMS     0.000001648
 Search for a saddle point.
 Step number   1 out of a maximum of    2
 All quantities printed in internal units (Hartrees-Bohrs-Radians)
 Swaping is turned off.
 Second derivative matrix not updated -- analytic derivatives used.
 The second derivative matrix:
                          R1        R2        R3        R4        R5
           R1           0.17576
           R2           0.00139   0.35935
           R3           0.00136   0.00058   0.35929
           R4           0.00154   0.00035   0.00042   0.35727
           R5           0.09711  -0.00024  -0.00011  -0.00019   0.00987
           R6           0.00342  -0.00005  -0.00007  -0.00011  -0.00641
           A1           0.01517   0.00240  -0.00642  -0.00662  -0.00575
           A2           0.01492  -0.00604   0.00239  -0.00669  -0.00605
           A3           0.01457  -0.00711  -0.00664   0.00273  -0.01035
           A4          -0.01313   0.00699   0.00606  -0.00349   0.00565
           A5          -0.01278   0.00572  -0.00336   0.00642   0.00682
           A6          -0.01325  -0.00348   0.00650   0.00669   0.00692
           A7          -0.00082   0.00029   0.00043  -0.00120   0.00545
           A8           0.00113  -0.00286   0.00139   0.00183   0.00330
           A9          -0.00102  -0.00033   0.00158  -0.00150  -0.00262
           D1          -0.00067   0.00058  -0.00493   0.00513  -0.00143
           D2           0.00045   0.00452   0.00019  -0.00490   0.00152
           D3           0.00019  -0.00579   0.00545  -0.00023  -0.00009
                          R6        A1        A2        A3        A4
           R6           0.51653
           A1          -0.00065   0.08315
           A2          -0.00062  -0.00763   0.08280
           A3          -0.00216  -0.00932  -0.00955   0.08134
           A4           0.00080  -0.02637  -0.02581  -0.00252   0.05568
           A5           0.00112  -0.02924  -0.00219  -0.02620  -0.00377
           A6           0.00108  -0.00276  -0.02988  -0.02546  -0.00501
           A7           0.00444  -0.00065  -0.00089   0.00221   0.00047
           A8          -0.00049   0.00093   0.00072   0.00257  -0.00479
           A9           0.00039  -0.00119  -0.00075  -0.00165   0.00322
           D1          -0.00016  -0.00160  -0.00489   0.00567  -0.01944
           D2           0.00013   0.00524   0.00098  -0.00549   0.01911
           D3           0.00003  -0.00672   0.00691  -0.00015   0.00026
                          A5        A6        A7        A8        A9
           A5           0.05825
           A6          -0.00339   0.05996
           A7          -0.00065  -0.00038   0.08269
           A8          -0.00479   0.00602   0.00358   0.01564
           A9          -0.00246   0.00231  -0.00287  -0.00154   0.00681
           D1           0.02005   0.00088  -0.00021   0.00040  -0.00154
           D2          -0.00044  -0.02008   0.00044  -0.00180   0.00022
           D3          -0.01850   0.01819  -0.00023   0.00259   0.00193
                          D1        D2        D3
           D1           0.01721
           D2          -0.00839   0.01667
           D3          -0.00820  -0.00770   0.01662
     Eigenvalues ---   -0.04146   0.00050   0.00614   0.01489   0.06913
     Eigenvalues ---    0.07353   0.08296   0.10486   0.10847   0.11455
     Eigenvalues ---    0.22602   0.35811   0.35965   0.36084   0.51669
     Eigenvalues --- 1000.000001000.000001000.00000
 Eigenvectors required to have negative eigenvalues:
                          R5        R1        A3        A6        A5
   1                    0.88045  -0.42390   0.10446  -0.07498  -0.07443
                          A2        A1        A4        A8        A9
   1                    0.07376   0.07292  -0.07046  -0.05054   0.04617
 Angle between quadratic step and forces=  78.45 degrees.
 Linear search not attempted -- option 19 set.
 Iteration  1 RMS(Cart)=  0.00006950 RMS(Int)=  0.00000001
 Iteration  2 RMS(Cart)=  0.00000001 RMS(Int)=  0.00000000
 Variable       Old X    -DE/DX   Delta X   Delta X   Delta X     New X
                                 (Linear)    (Quad)   (Total)
    R1        2.25726   0.00000   0.00000  -0.00001  -0.00001   2.25724
    R2        2.05746   0.00000   0.00000  -0.00001  -0.00001   2.05745
    R3        2.05746   0.00000   0.00000   0.00000   0.00000   2.05745
    R4        2.05856   0.00000   0.00000   0.00000   0.00000   2.05855
    R5        2.53735   0.00000   0.00000   0.00003   0.00003   2.53739
    R6        1.83964   0.00000   0.00000   0.00000   0.00000   1.83964
    A1        1.87366   0.00000   0.00000  -0.00001  -0.00001   1.87365
    A2        1.87360   0.00000   0.00000   0.00000   0.00000   1.87360
    A3        1.82047   0.00000   0.00000  -0.00003  -0.00003   1.82044
    A4        1.96637   0.00000   0.00000  -0.00003  -0.00003   1.96634
    A5        1.95966   0.00000   0.00000   0.00003   0.00003   1.95969
    A6        1.95968   0.00000   0.00000   0.00003   0.00003   1.95971
    A7        1.73419   0.00000   0.00000   0.00000   0.00000   1.73419
    A8        3.05782   0.00000   0.00000   0.00004   0.00004   3.05786
    A9        3.34765   0.00000   0.00000  -0.00006  -0.00006   3.34760
    D1       -1.03846   0.00000   0.00000  -0.00019  -0.00019  -1.03865
    D2        1.04010   0.00000   0.00000  -0.00021  -0.00021   1.03989
    D3       -3.14077   0.00000   0.00000  -0.00020  -0.00020  -3.14096
         Item               Value     Threshold  Converged?
 Maximum Force            0.000004     0.000450     YES
 RMS     Force            0.000002     0.000300     YES
 Maximum Displacement     0.000181     0.001800     YES
 RMS     Displacement     0.000070     0.001200     YES
 Predicted change in Energy=-2.488713D-10
 Optimization completed.
    -- Stationary point found.
                           ----------------------------
                           !   Optimized Parameters   !
                           ! (Angstroms and Degrees)  !
 --------------------------                            --------------------------
 ! Name  Definition              Value          Derivative Info.                !
 --------------------------------------------------------------------------------
 ! R1    R(1,2)                  1.1945         -DE/DX =    0.0                 !
 ! R2    R(1,3)                  1.0888         -DE/DX =    0.0                 !
 ! R3    R(1,4)                  1.0888         -DE/DX =    0.0                 !
 ! R4    R(1,5)                  1.0893         -DE/DX =    0.0                 !
 ! R5    R(2,6)                  1.3427         -DE/DX =    0.0                 !
 ! R6    R(6,7)                  0.9735         -DE/DX =    0.0                 !
 ! A1    A(2,1,3)              107.353          -DE/DX =    0.0                 !
 ! A2    A(2,1,4)              107.3494         -DE/DX =    0.0                 !
 ! A3    A(2,1,5)              104.305          -DE/DX =    0.0                 !
 ! A4    A(3,1,4)              112.6647         -DE/DX =    0.0                 !
 ! A5    A(3,1,5)              112.2805         -DE/DX =    0.0                 !
 ! A6    A(4,1,5)              112.2812         -DE/DX =    0.0                 !
 ! A7    A(2,6,7)               99.3618         -DE/DX =    0.0                 !
 ! A8    L(1,2,6,3,-1)         175.2            -DE/DX =    0.0                 !
 ! A9    L(1,2,6,3,-2)         191.8065         -DE/DX =    0.0                 !
 ! D1    D(3,1,6,7)            -59.4993         -DE/DX =    0.0                 !
 ! D2    D(4,1,6,7)             59.5931         -DE/DX =    0.0                 !
 ! D3    D(5,1,6,7)           -179.9527         -DE/DX =    0.0                 !
 --------------------------------------------------------------------------------
 GradGradGradGradGradGradGradGradGradGradGradGradGradGradGradGradGradGrad

 1|1|UNPC-DESKTOP-319GPER|Freq|UM062X|6-31+G(d,p)|C1H5O1(2)|SAGAD|08-Fe
 b-2021|0||#N Geom=AllCheck Guess=TCheck SCRF=Check GenChk UM062X/6-31+
 G(d,p) Freq||Prouductos||0,2|C,-3.3427079342,4.948199255,-2.5791581116
 |H,-3.0804435769,3.7828569313,-2.5794152732|H,-2.9177572611,5.37648856
 68,-1.6728563549|H,-2.9174654305,5.376886853,-3.4851333478|H,-4.431612
 4206,4.9790284308,-2.5793196013|O,-2.5946780448,2.531098901,-2.5795716
 058|H,-1.641920559,2.7309700423,-2.5785808107||Version=IA32W-G09RevA.0
 2|State=2-A|HF=-116.1803163|S2=0.758831|S2-1=0.|S2A=0.750037|RMSD=7.90
 7e-010|RMSF=2.453e-006|ZeroPoint=0.051725|Thermal=0.0562178|Dipole=0.4
 46298,0.6964558,0.0007512|DipoleDeriv=0.0455727,-0.2061132,0.0000138,-
 0.2828457,0.8146803,0.0001271,-0.0000246,0.0002147,-0.0094135,-0.02485
 95,0.452463,0.0000402,0.4359737,-1.1202211,-0.0001737,0.0000338,-0.000
 1668,0.1450626,0.035258,0.0248506,-0.0509693,0.0198575,-0.0733588,-0.0
 555026,-0.0581332,-0.026788,-0.0289055,0.0352356,0.0248742,0.0509616,0
 .0198102,-0.0733761,0.055501,0.0581376,0.0267254,-0.028782,-0.059571,-
 0.0025261,-0.0000315,0.0624811,-0.0590802,-0.0000287,-0.0000124,-0.000
 0383,0.08342,-0.221203,-0.1021477,0.0002326,-0.1804304,0.1881944,0.000
 1639,0.0001919,0.0002493,-0.5188497,0.1895671,-0.1914009,-0.0002473,-0
 .0748464,0.3231615,-0.000087,-0.0001932,-0.0001963,0.3574681|Polar=22.
 6596974,-7.7712433,40.6388914,0.0000131,0.0026233,18.749022|PG=C01 [X(
 C1H5O1)]|NImag=1||0.55519517,0.07114225,0.32211829,0.00002610,-0.00002
 673,0.57786668,-0.02640046,-0.01980259,-0.00000700,0.04082551,-0.00196
 167,-0.02847980,0.00000185,0.02470927,0.00220401,0.00000013,-0.0000114
 0,-0.03241238,0.00001695,0.00000172,0.03670427,-0.09166963,-0.04858899
 ,-0.09179991,-0.00034874,0.00642325,0.00464682,0.09270456,-0.05151345,
 -0.07936760,-0.10010329,-0.00508009,-0.01846137,-0.01829593,0.05090752
 ,0.08520312,-0.09338487,-0.09527833,-0.24901828,-0.00077140,0.00296742
 ,-0.00024990,0.10182305,0.10409984,0.26273858,-0.09171359,-0.04865564,
 0.09181490,-0.00034894,0.00642933,-0.00464405,0.00590019,0.00632481,-0
 .01079364,0.09275406,-0.05158145,-0.07942794,0.10013962,-0.00508459,-0
 .01847050,0.01828771,0.00632305,0.00684939,-0.01178391,0.05097890,0.08
 526990,0.09339915,0.09531674,-0.24880570,0.00076993,-0.00297509,-0.000
 24325,0.01080167,0.01179566,-0.01641373,-0.10183851,-0.10413919,0.2625
 1319,-0.33627688,0.00424057,-0.00004301,-0.00651174,-0.00061884,-0.000
 00104,-0.00766985,0.00176253,0.00212218,-0.00767601,0.00176543,-0.0021
 2675,0.35712199,0.01016724,-0.03003595,0.00001170,0.02745329,-0.014791
 35,0.00000196,-0.01338694,0.00120334,0.00105415,-0.01339739,0.00120494
 ,-0.00105851,-0.00761614,0.03513853,-0.00004295,0.00001173,-0.04893429
 ,0.00000560,-0.00000355,-0.00007732,-0.02606239,0.00253899,0.00246700,
 0.02605236,-0.00253896,0.00247384,0.00004806,-0.00000991,0.04460441,-0
 .00843156,0.03566805,0.00000626,-0.00439089,-0.02448102,-0.00000940,0.
 00078135,-0.00175991,0.00081102,0.00078163,-0.00175820,-0.00081212,0.0
 0077888,-0.00193378,-0.00000073,0.50432749,0.02134189,-0.10729482,-0.0
 0002722,-0.03641196,0.07791487,0.00000365,-0.00175382,0.00446926,-0.00
 068339,-0.00175680,0.00447164,0.00068527,0.00115340,0.00834624,0.00000
 190,0.10697159,0.05809367,-0.00000046,-0.00001959,0.00221404,-0.000016
 58,0.00001831,-0.00575100,0.00023918,0.00080853,0.00067121,-0.00023910
 ,-0.00080834,0.00067079,0.00000051,0.00000284,-0.00016376,0.00052219,0
 .00012564,0.00339138,-0.00070305,0.00599635,0.00000267,-0.00282475,-0.
 01050031,-0.00000942,0.00030211,-0.00064141,0.00019366,0.00030265,-0.0
 0064314,-0.00019336,0.00023362,-0.00128628,0.00000004,-0.49384690,-0.0
 8954430,-0.00050575,0.49653632,0.00240520,0.00248782,0.00000407,0.0142
 1667,0.00008415,0.00001230,0.00007593,0.00010386,-0.00037577,0.0000767
 8,0.00010257,0.00037512,-0.00068695,-0.00106574,-0.00000020,-0.1127067
 3,-0.04600086,-0.00012739,0.09661910,0.04428820,0.00000290,0.00000758,
 -0.00091006,0.00000250,-0.00001067,0.00202958,0.00035159,-0.00084380,-
 0.00019487,-0.00035197,0.00084308,-0.00019513,0.00000005,-0.00000222,-
 0.00036988,-0.00051722,-0.00010585,-0.00103265,0.00051215,0.00011187,0
 .00067301||0.00000512,-0.00000370,0.00000024,-0.00000049,0.00000055,0.
 00000009,0.00000083,0.00000027,0.00000289,0.00000034,0.00000043,-0.000
 00252,0.00000082,0.00000625,-0.00000037,-0.00000342,-0.00000123,-0.000
 00043,-0.00000320,-0.00000258,0.00000010|||@


 ACHIEVEMENT--  THE MAN WHO ROWS THE BOAT GENERALLY 
                DOESN'T HAVE TIME TO ROCK IT.

                   -- FROM THE BACK OF A SUGAR PACKET
 Job cpu time:  0 days  0 hours  0 minutes 24.0 seconds.
 File lengths (MBytes):  RWF=      9 Int=      0 D2E=      0 Chk=      1 Scr=      1
 Normal termination of Gaussian 09 at Mon Feb 08 20:29:08 2021.
