 Entering Link 1 = C:\G09W\l1.exe PID=      2492.
  
 Copyright (c) 1988,1990,1992,1993,1995,1998,2003,2009, Gaussian, Inc.
                  All Rights Reserved.
  
 This is part of the Gaussian(R) 09 program.  It is based on
 the Gaussian(R) 03 system (copyright 2003, Gaussian, Inc.),
 the Gaussian(R) 98 system (copyright 1998, Gaussian, Inc.),
 the Gaussian(R) 94 system (copyright 1995, Gaussian, Inc.),
 the Gaussian 92(TM) system (copyright 1992, Gaussian, Inc.),
 the Gaussian 90(TM) system (copyright 1990, Gaussian, Inc.),
 the Gaussian 88(TM) system (copyright 1988, Gaussian, Inc.),
 the Gaussian 86(TM) system (copyright 1986, Carnegie Mellon
 University), and the Gaussian 82(TM) system (copyright 1983,
 Carnegie Mellon University). Gaussian is a federally registered
 trademark of Gaussian, Inc.
  
 This software contains proprietary and confidential information,
 including trade secrets, belonging to Gaussian, Inc.
  
 This software is provided under written license and may be
 used, copied, transmitted, or stored only in accord with that
 written license.
  
 The following legend is applicable only to US Government
 contracts under FAR:
  
                    RESTRICTED RIGHTS LEGEND
  
 Use, reproduction and disclosure by the US Government is
 subject to restrictions as set forth in subparagraphs (a)
 and (c) of the Commercial Computer Software - Restricted
 Rights clause in FAR 52.227-19.
  
 Gaussian, Inc.
 340 Quinnipiac St., Bldg. 40, Wallingford CT 06492
  
  
 ---------------------------------------------------------------
 Warning -- This program may not be used in any manner that
 competes with the business of Gaussian, Inc. or will provide
 assistance to any competitor of Gaussian, Inc.  The licensee
 of this program is prohibited from giving any competitor of
 Gaussian, Inc. access to this program.  By using this program,
 the user acknowledges that Gaussian, Inc. is engaged in the
 business of creating and licensing software in the field of
 computational chemistry and represents and warrants to the
 licensee that it is not a competitor of Gaussian, Inc. and that
 it will not use this program in any manner prohibited above.
 ---------------------------------------------------------------
  

 Cite this work as:
 Gaussian 09, Revision A.02,
 M. J. Frisch, G. W. Trucks, H. B. Schlegel, G. E. Scuseria, 
 M. A. Robb, J. R. Cheeseman, G. Scalmani, V. Barone, B. Mennucci, 
 G. A. Petersson, H. Nakatsuji, M. Caricato, X. Li, H. P. Hratchian, 
 A. F. Izmaylov, J. Bloino, G. Zheng, J. L. Sonnenberg, M. Hada, 
 M. Ehara, K. Toyota, R. Fukuda, J. Hasegawa, M. Ishida, T. Nakajima, 
 Y. Honda, O. Kitao, H. Nakai, T. Vreven, J. A. Montgomery, Jr., 
 J. E. Peralta, F. Ogliaro, M. Bearpark, J. J. Heyd, E. Brothers, 
 K. N. Kudin, V. N. Staroverov, R. Kobayashi, J. Normand, 
 K. Raghavachari, A. Rendell, J. C. Burant, S. S. Iyengar, J. Tomasi, 
 M. Cossi, N. Rega, J. M. Millam, M. Klene, J. E. Knox, J. B. Cross, 
 V. Bakken, C. Adamo, J. Jaramillo, R. Gomperts, R. E. Stratmann, 
 O. Yazyev, A. J. Austin, R. Cammi, C. Pomelli, J. W. Ochterski, 
 R. L. Martin, K. Morokuma, V. G. Zakrzewski, G. A. Voth, 
 P. Salvador, J. J. Dannenberg, S. Dapprich, A. D. Daniels, 
 O. Farkas, J. B. Foresman, J. V. Ortiz, J. Cioslowski, 
 and D. J. Fox, Gaussian, Inc., Wallingford CT, 2009.
 
 ******************************************
 Gaussian 09:  IA32W-G09RevA.02 11-Jun-2009
                08-Feb-2021 
 ******************************************
 %chk=D:\Documents\rayGit\FQ\quimicaComputacional\proyecto\decompositionHydrogenP
 eroxide\descompositionByRadicals\gasPhase\step3\ts\tsM062X.chk
 %mem=1500MB
 %nprocshared=4
 Will use up to    4 processors via shared memory.
 ----------------------------------------------------------------------
 # opt=(calcfc,ts,noeigen,maxcycles=100) freq=noraman 6-31+g(d,p) m062x
 ----------------------------------------------------------------------
 1/5=1,6=100,10=4,11=1,14=-1,18=20,26=3,38=1/1,3;
 2/9=110,12=2,17=6,18=5,40=1/2;
 3/5=1,6=6,7=111,11=2,16=1,25=1,30=1,71=2,74=-55/1,2,3;
 4//1;
 5/5=2,38=5/2;
 8/6=4,10=90,11=11/1;
 11/6=1,8=1,9=11,15=111,16=1/1,2,10;
 10/6=1,7=6,13=1/2;
 6/7=2,8=2,9=2,10=2,28=1/1;
 7/10=1,18=20,25=1/1,2,3,16;
 1/5=1,6=100,10=4,11=1,14=-1,18=20/3(2);
 2/9=110/2;
 99//99;
 2/9=110/2;
 3/5=1,6=6,7=111,11=2,16=1,25=1,30=1,71=1,74=-55/1,2,3;
 4/5=5,16=3/1;
 5/5=2,38=5/2;
 7//1,2,3,16;
 1/5=1,6=100,11=1,14=-1,18=20/3(-5);
 2/9=110/2;
 6/7=2,8=2,9=2,10=2,19=2,28=1/1;
 99/9=1/99;
 ---
 ts3
 ---
 Symbolic Z-matrix:
 Charge =  0 Multiplicity = 1
 O                    -0.67513  -0.0075   -0.06598 
 H                    -1.12577  -0.0075   -1.33855 
 O                    -0.52805  -1.25179   0.34937 
 O                    -1.50298  -0.0075   -2.40374 
 O                    -2.82298  -0.0075   -2.40374 
 H                    -3.14298   0.8976   -2.40374 
 

 GradGradGradGradGradGradGradGradGradGradGradGradGradGradGradGradGradGrad
 Berny optimization.
 Initialization pass.
                           ----------------------------
                           !    Initial Parameters    !
                           ! (Angstroms and Degrees)  !
 --------------------------                            --------------------------
 ! Name  Definition              Value          Derivative Info.                !
 --------------------------------------------------------------------------------
 ! R1    R(1,2)                  1.35           calculate D2E/DX2 analytically  !
 ! R2    R(1,3)                  1.32           calculate D2E/DX2 analytically  !
 ! R3    R(2,4)                  1.13           calculate D2E/DX2 analytically  !
 ! R4    R(4,5)                  1.32           calculate D2E/DX2 analytically  !
 ! R5    R(5,6)                  0.96           calculate D2E/DX2 analytically  !
 ! A1    A(2,1,3)              109.5            calculate D2E/DX2 analytically  !
 ! A2    A(2,4,5)              109.5            calculate D2E/DX2 analytically  !
 ! A3    A(4,5,6)              109.4712         calculate D2E/DX2 analytically  !
 ! A4    L(1,2,4,5,-1)         180.0            calculate D2E/DX2 analytically  !
 ! A5    L(1,2,4,5,-2)         180.0            calculate D2E/DX2 analytically  !
 ! D1    D(3,1,4,5)             90.0            calculate D2E/DX2 analytically  !
 ! D2    D(2,4,5,6)             90.0            calculate D2E/DX2 analytically  !
 --------------------------------------------------------------------------------
 Trust Radius=3.00D-01 FncErr=1.00D-07 GrdErr=1.00D-06
 Number of steps in this run= 100 maximum allowed number of steps= 100.
 Search for a saddle point of order  1.
 GradGradGradGradGradGradGradGradGradGradGradGradGradGradGradGradGradGrad

                          Input orientation:                          
 ---------------------------------------------------------------------
 Center     Atomic      Atomic             Coordinates (Angstroms)
 Number     Number       Type             X           Y           Z
 ---------------------------------------------------------------------
      1          8           0       -0.675134   -0.007500   -0.065985
      2          1           0       -1.125773   -0.007500   -1.338551
      3          8           0       -0.528050   -1.251787    0.349367
      4          8           0       -1.502975   -0.007500   -2.403736
      5          8           0       -2.822975   -0.007501   -2.403736
      6          1           0       -3.142976    0.897595   -2.403736
 ---------------------------------------------------------------------
                    Distance matrix (angstroms):
                    1          2          3          4          5
     1  O    0.000000
     2  H    1.350000   0.000000
     3  O    1.320000   2.180502   0.000000
     4  O    2.480000   1.130000   3.174634   0.000000
     5  O    3.174634   2.003775   3.794008   1.320000   0.000000
     6  H    3.517744   2.454164   4.363170   1.873179   0.960000
                    6
     6  H    0.000000
 Stoichiometry    H2O4
 Framework group  C1[X(H2O4)]
 Deg. of freedom    12
 Full point group                 C1      NOp   1
 Largest Abelian subgroup         C1      NOp   1
 Largest concise Abelian subgroup C1      NOp   1
                         Standard orientation:                         
 ---------------------------------------------------------------------
 Center     Atomic      Atomic             Coordinates (Angstroms)
 Number     Number       Type             X           Y           Z
 ---------------------------------------------------------------------
      1          8           0       -1.225177   -0.415296    0.436843
      2          1           0        0.031775   -0.429062   -0.055479
      3          8           0       -1.956246    0.446295   -0.245506
      4          8           0        1.083891   -0.440585   -0.467572
      5          8           0        1.815312    0.456849    0.166490
      6          1           0        2.225987    0.050955    0.933430
 ---------------------------------------------------------------------
 Rotational constants (GHZ):     23.6473497      2.9647191      2.9004334
 Standard basis: 6-31+G(d,p) (6D, 7F)
 There are    86 symmetry adapted basis functions of A   symmetry.
 Integral buffers will be    262144 words long.
 Raffenetti 2 integral format.
 Two-electron integral symmetry is turned on.
    86 basis functions,   142 primitive gaussians,    86 cartesian basis functions
    17 alpha electrons       17 beta electrons
       nuclear repulsion energy       115.2287139448 Hartrees.
 NAtoms=    6 NActive=    6 NUniq=    6 SFac= 7.50D-01 NAtFMM=   80 NAOKFM=F Big=F
 One-electron integrals computed using PRISM.
 NBasis=    86 RedAO= T  NBF=    86
 NBsUse=    86 1.00D-06 NBFU=    86
 Harris functional with IExCor= 1009 diagonalized for initial guess.
 ExpMin= 8.45D-02 ExpMax= 5.48D+03 ExpMxC= 8.25D+02 IAcc=2 IRadAn=         0 AccDes= 0.00D+00
 HarFok:  IExCor= 1009 AccDes= 0.00D+00 IRadAn=         0 IDoV= 1
 ScaDFX=  1.000000  1.000000  1.000000  1.000000
 FoFCou: FMM=F IPFlag=           0 FMFlag=      100000 FMFlg1=           0
         NFxFlg=           0 DoJE=T BraDBF=F KetDBF=T FulRan=T
         Omega=  0.000000  0.000000  1.000000  0.000000  0.000000 ICntrl=     500 IOpCl=  0
         NMat0=    1 NMatS0=    1 NMatT0=    0 NMatD0=    1 NMtDS0=    0 NMtDT0=    0
         I1Cent=           4 NGrid=           0.
 Petite list used in FoFCou.
 Initial guess orbital symmetries:
       Occupied  (A) (A) (A) (A) (A) (A) (A) (A) (A) (A) (A) (A)
                 (A) (A) (A) (A) (A)
       Virtual   (A) (A) (A) (A) (A) (A) (A) (A) (A) (A) (A) (A)
                 (A) (A) (A) (A) (A) (A) (A) (A) (A) (A) (A) (A)
                 (A) (A) (A) (A) (A) (A) (A) (A) (A) (A) (A) (A)
                 (A) (A) (A) (A) (A) (A) (A) (A) (A) (A) (A) (A)
                 (A) (A) (A) (A) (A) (A) (A) (A) (A) (A) (A) (A)
                 (A) (A) (A) (A) (A) (A) (A) (A) (A)
 The electronic state of the initial guess is 1-A.
 Requested convergence on RMS density matrix=1.00D-08 within 128 cycles.
 Requested convergence on MAX density matrix=1.00D-06.
 Requested convergence on             energy=1.00D-06.
 No special actions if energy rises.
 Keep R1 ints in memory in canonical form, NReq=7992901.
 Integral accuracy reduced to 1.0D-05 until final iterations.
 Rare condition: small coef for last iteration:  0.000D+00
 Rare condition: small coef for last iteration:  0.000D+00
 Initial convergence to 1.0D-05 achieved.  Increase integral accuracy.
 SCF Done:  E(RM062X) =  -301.634786983     A.U. after   33 cycles
             Convg  =    0.6372D-08             -V/T =  2.0085
 Range of M.O.s used for correlation:     1    86
 NBasis=    86 NAE=    17 NBE=    17 NFC=     0 NFV=     0
 NROrb=     86 NOA=    17 NOB=    17 NVA=    69 NVB=    69

 **** Warning!!: The largest alpha MO coefficient is  0.16987908D+02


 **** Warning!!: The smallest alpha delta epsilon is  0.93952080D-01

 Symmetrizing basis deriv contribution to polar:
 IMax=3 JMax=2 DiffMx= 0.00D+00
 G2DrvN: will do     7 centers at a time, making    1 passes doing MaxLOS=2.
 Calling FoFCou, ICntrl=  3107 FMM=F I1Cent=   0 AccDes= 0.00D+00.
 FoFDir/FoFCou used for L=0 through L=2.
 End of G2Drv Frequency-dependent properties file   721 does not exist.
 End of G2Drv Frequency-dependent properties file   722 does not exist.
          IDoAtm=111111
          Differentiating once with respect to nuclear coordinates.
          Keep R1 ints in memory in canonical form, NReq=7820771.
          There are    21 degrees of freedom in the 1st order CPHF.  IDoFFX=5.
     15 vectors produced by pass  0 Test12= 5.59D-11 4.76D-07 XBig12= 7.80D-02 1.19D-01.
 AX will form    15 AO Fock derivatives at one time.
     15 vectors produced by pass  1 Test12= 5.59D-11 4.76D-07 XBig12= 2.30D-02 9.25D-02.
     15 vectors produced by pass  2 Test12= 5.59D-11 4.76D-07 XBig12= 3.25D-03 1.06D-02.
     15 vectors produced by pass  3 Test12= 5.59D-11 4.76D-07 XBig12= 8.98D-05 2.67D-03.
     15 vectors produced by pass  4 Test12= 5.59D-11 4.76D-07 XBig12= 1.21D-06 4.46D-04.
     11 vectors produced by pass  5 Test12= 5.59D-11 4.76D-07 XBig12= 9.46D-09 2.24D-05.
      1 vectors produced by pass  6 Test12= 5.59D-11 4.76D-07 XBig12= 4.27D-11 1.25D-06.
 Inverted reduced A of dimension    87 with in-core refinement.
 End of Minotr Frequency-dependent properties file   721 does not exist.
 End of Minotr Frequency-dependent properties file   722 does not exist.

 **********************************************************************

            Population analysis using the SCF density.

 **********************************************************************

 Orbital symmetries:
       Occupied  (A) (A) (A) (A) (A) (A) (A) (A) (A) (A) (A) (A)
                 (A) (A) (A) (A) (A)
       Virtual   (A) (A) (A) (A) (A) (A) (A) (A) (A) (A) (A) (A)
                 (A) (A) (A) (A) (A) (A) (A) (A) (A) (A) (A) (A)
                 (A) (A) (A) (A) (A) (A) (A) (A) (A) (A) (A) (A)
                 (A) (A) (A) (A) (A) (A) (A) (A) (A) (A) (A) (A)
                 (A) (A) (A) (A) (A) (A) (A) (A) (A) (A) (A) (A)
                 (A) (A) (A) (A) (A) (A) (A) (A) (A)
 The electronic state is 1-A.
 Alpha  occ. eigenvalues --  -19.89704 -19.89382 -19.67645 -19.65616  -1.41403
 Alpha  occ. eigenvalues --   -1.26865  -1.03373  -0.94432  -0.70215  -0.66221
 Alpha  occ. eigenvalues --   -0.62187  -0.60530  -0.53587  -0.49685  -0.45171
 Alpha  occ. eigenvalues --   -0.32757  -0.31679
 Alpha virt. eigenvalues --   -0.22284   0.04221   0.06929   0.08390   0.12476
 Alpha virt. eigenvalues --    0.13403   0.15459   0.16825   0.18033   0.19002
 Alpha virt. eigenvalues --    0.20540   0.22043   0.23358   0.26902   0.27443
 Alpha virt. eigenvalues --    0.28349   0.28563   0.32016   0.34157   0.40091
 Alpha virt. eigenvalues --    0.41150   0.98049   1.01430   1.04444   1.06075
 Alpha virt. eigenvalues --    1.08094   1.11181   1.13318   1.14601   1.19064
 Alpha virt. eigenvalues --    1.20725   1.22911   1.25995   1.29184   1.31844
 Alpha virt. eigenvalues --    1.35834   1.43910   1.44247   1.46834   1.51098
 Alpha virt. eigenvalues --    1.56720   1.58580   1.60996   1.63804   1.71097
 Alpha virt. eigenvalues --    1.77442   1.79566   1.84090   1.87345   2.20654
 Alpha virt. eigenvalues --    2.22329   2.26759   2.31740   2.33078   2.42564
 Alpha virt. eigenvalues --    2.54174   2.65886   2.77327   2.79494   2.88015
 Alpha virt. eigenvalues --    2.98042   3.00238   3.08878   3.46160   3.53977
 Alpha virt. eigenvalues --    3.78213   4.03541   4.16242   4.36361
          Condensed to atoms (all electrons):
              1          2          3          4          5          6
     1  O    7.745637  -0.063591   0.342050  -0.038851   0.033117  -0.000965
     2  H   -0.063591   0.435520   0.006634   0.233057  -0.061920  -0.001063
     3  O    0.342050   0.006634   7.544916   0.017828  -0.001310  -0.000462
     4  O   -0.038851   0.233057   0.017828   8.258469   0.047884  -0.043723
     5  O    0.033117  -0.061920  -0.001310   0.047884   8.137083   0.251373
     6  H   -0.000965  -0.001063  -0.000462  -0.043723   0.251373   0.438259
 Mulliken atomic charges:
              1
     1  O   -0.017396
     2  H    0.451363
     3  O    0.090344
     4  O   -0.474664
     5  O   -0.406227
     6  H    0.356581
 Sum of Mulliken atomic charges =   0.00000
 Mulliken charges with hydrogens summed into heavy atoms:
              1
     1  O   -0.017396
     3  O    0.090344
     4  O   -0.023301
     5  O   -0.049646
 Sum of Mulliken charges with hydrogens summed into heavy atoms =   0.00000
 APT atomic charges:
              1
     1  O   -0.155530
     2  H    0.448754
     3  O    0.241065
     4  O   -0.404126
     5  O   -0.772271
     6  H    0.642108
 Sum of APT charges=   0.00000
 APT Atomic charges with hydrogens summed into heavy atoms:
              1
     1  O   -0.155530
     2  H    0.000000
     3  O    0.241065
     4  O    0.044628
     5  O   -0.130163
     6  H    0.000000
 Sum of APT charges=   0.00000
 Electronic spatial extent (au):  <R**2>=            387.3714
 Charge=              0.0000 electrons
 Dipole moment (field-independent basis, Debye):
    X=             -2.8475    Y=             -0.5023    Z=              2.2664  Tot=              3.6739
 Quadrupole moment (field-independent basis, Debye-Ang):
   XX=            -21.3120   YY=            -23.6074   ZZ=            -21.8331
   XY=             -1.0249   XZ=              5.1668   YZ=             -0.3864
 Traceless Quadrupole moment (field-independent basis, Debye-Ang):
   XX=              0.9389   YY=             -1.3566   ZZ=              0.4177
   XY=             -1.0249   XZ=              5.1668   YZ=             -0.3864
 Octapole moment (field-independent basis, Debye-Ang**2):
  XXX=             -2.1245  YYY=              0.2587  ZZZ=              3.6750  XYY=             -5.4838
  XXY=             -1.7254  XXZ=              7.5413  XZZ=              0.9229  YZZ=              0.4076
  YYZ=              0.4757  XYZ=             -1.7130
 Hexadecapole moment (field-independent basis, Debye-Ang**3):
 XXXX=           -329.5913 YYYY=            -44.8862 ZZZZ=            -35.9148 XXXY=             -7.7550
 XXXZ=             27.9360 YYYX=             -1.4657 YYYZ=             -0.9195 ZZZX=              7.3067
 ZZZY=             -0.7819 XXYY=            -67.2711 XXZZ=            -55.0733 YYZZ=            -13.6914
 XXYZ=             -0.1333 YYXZ=              1.4594 ZZXY=             -0.0056
 N-N= 1.152287139448D+02 E-N=-9.419931911294D+02  KE= 2.990991429219D+02
  Exact polarizability:   0.000   0.000   0.000   0.000   0.000   0.000
 Approx polarizability:  34.863  -5.945  26.386   6.524  -5.510  24.286
 Calling FoFJK, ICntrl=    100147 FMM=F ISym2X=0 I1Cent= 0 IOpClX= 0 NMat=1 NMatS=1 NMatT=0.
 ***** Axes restored to original set *****
 -------------------------------------------------------------------
 Center     Atomic                   Forces (Hartrees/Bohr)
 Number     Number              X              Y              Z
 -------------------------------------------------------------------
      1        8           0.029285517   -0.137207444    0.084418735
      2        1          -0.040224860   -0.002639713   -0.091569133
      3        8          -0.016491052    0.138241667   -0.047568571
      4        8           0.111235403    0.007483010    0.047574708
      5        8          -0.088419831   -0.016269220    0.009976055
      6        1           0.004614823    0.010391701   -0.002831794
 -------------------------------------------------------------------
 Cartesian Forces:  Max     0.138241667 RMS     0.067279552

 GradGradGradGradGradGradGradGradGradGradGradGradGradGradGradGradGradGrad
 Berny optimization.
 Internal  Forces:  Max     0.147074997 RMS     0.053571608
 Search for a saddle point.
 Step number   1 out of a maximum of  100
 All quantities printed in internal units (Hartrees-Bohrs-Radians)
 Swaping is turned off.
 Second derivative matrix not updated -- analytic derivatives used.
 The second derivative matrix:
                          R1        R2        R3        R4        R5
           R1           0.08550
           R2           0.01556   0.34423
           R3           0.07087  -0.00527   0.16916
           R4           0.00238   0.01194   0.00187   0.61731
           R5           0.00232  -0.00347  -0.00130   0.00888   0.54324
           A1          -0.00399   0.00995   0.00505  -0.00149   0.00103
           A2           0.00402  -0.00435  -0.00874   0.06186  -0.00053
           A3           0.00681  -0.00598  -0.00243   0.07461  -0.00497
           A4           0.00292  -0.00287  -0.00076  -0.00413   0.00018
           A5           0.00033   0.00366  -0.00105   0.00053  -0.00069
           D1           0.01219  -0.01227  -0.00457   0.00681  -0.00235
           D2           0.00344  -0.00086   0.00097   0.00485   0.00054
                          A1        A2        A3        A4        A5
           A1           0.03211
           A2           0.00151   0.18919
           A3          -0.00146   0.00861   0.23952
           A4           0.00229  -0.03149   0.00015   0.02188
           A5           0.01221  -0.00050   0.00019   0.00104   0.01108
           D1           0.00183  -0.00384  -0.00295  -0.00176   0.00012
           D2          -0.00097   0.01177   0.01172   0.00194   0.00020
                          D1        D2
           D1          -0.00453
           D2           0.00051   0.01728
     Eigenvalues ---   -0.00985   0.00536   0.01223   0.01940   0.03626
     Eigenvalues ---    0.04972   0.18566   0.21087   0.22591   0.34617
     Eigenvalues ---    0.54288   0.64136
 Eigenvectors required to have negative eigenvalues:
                          D1        R1        A4        R3        A1
   1                    0.93831  -0.23436   0.14843   0.12632  -0.11902
                          A2        A5        R2        D2        A3
   1                    0.06117   0.06005   0.05038  -0.04002   0.02462
 RFO step:  Lambda0=2.146906742D-02 Lambda=-9.71794581D-02.
 Linear search not attempted -- option 19 set.
 Maximum step size (   0.300) exceeded in Quadratic search.
    -- Step size scaled by   0.290
 Iteration  1 RMS(Cart)=  0.09394398 RMS(Int)=  0.02100690
 Iteration  2 RMS(Cart)=  0.03038951 RMS(Int)=  0.00083035
 Iteration  3 RMS(Cart)=  0.00069157 RMS(Int)=  0.00000018
 Iteration  4 RMS(Cart)=  0.00000028 RMS(Int)=  0.00000000
 Variable       Old X    -DE/DX   Delta X   Delta X   Delta X     New X
                                 (Linear)    (Quad)   (Total)
    R1        2.55113   0.03896   0.00000   0.03734   0.03734   2.58847
    R2        2.49444  -0.14707   0.00000  -0.08863  -0.08863   2.40580
    R3        2.13539  -0.06077   0.00000  -0.05989  -0.05989   2.07550
    R4        2.49444   0.08385   0.00000   0.03541   0.03541   2.52985
    R5        1.81414   0.00826   0.00000   0.00370   0.00370   1.81784
    A1        1.91114  -0.00346   0.00000  -0.02995  -0.02995   1.88118
    A2        1.91114  -0.01625   0.00000  -0.01371  -0.01371   1.89742
    A3        1.91063  -0.01407   0.00000  -0.01806  -0.01806   1.89257
    A4        3.14159  -0.00029   0.00000   0.03340   0.03340   3.17499
    A5        3.14159   0.00080   0.00000   0.02284   0.02284   3.16444
    D1        1.57080   0.00098   0.00000   0.26990   0.26990   1.84070
    D2        1.57080   0.00475   0.00000   0.00048   0.00048   1.57127
         Item               Value     Threshold  Converged?
 Maximum Force            0.147075     0.000450     NO 
 RMS     Force            0.053572     0.000300     NO 
 Maximum Displacement     0.233749     0.001800     NO 
 RMS     Displacement     0.122621     0.001200     NO 
 Predicted change in Energy=-1.973707D-02
 GradGradGradGradGradGradGradGradGradGradGradGradGradGradGradGradGradGrad

                          Input orientation:                          
 ---------------------------------------------------------------------
 Center     Atomic      Atomic             Coordinates (Angstroms)
 Number     Number       Type             X           Y           Z
 ---------------------------------------------------------------------
      1          8           0       -0.750873   -0.027153   -0.015123
      2          1           0       -1.192310   -0.040084   -1.311735
      3          8           0       -0.404356   -1.213703    0.289508
      4          8           0       -1.512364   -0.068628   -2.361988
      5          8           0       -2.847543    0.018070   -2.406648
      6          1           0       -3.090439    0.947306   -2.460389
 ---------------------------------------------------------------------
                    Distance matrix (angstroms):
                    1          2          3          4          5
     1  O    0.000000
     2  H    1.369758   0.000000
     3  O    1.273097   2.135938   0.000000
     4  O    2.467664   1.098308   3.093430   0.000000
     5  O    3.180796   1.985451   3.841313   1.338737   0.000000
     6  H    3.521714   2.428423   4.409868   1.879395   0.961960
                    6
     6  H    0.000000
 Stoichiometry    H2O4
 Framework group  C1[X(H2O4)]
 Deg. of freedom    12
 Full point group                 C1      NOp   1
 Largest Abelian subgroup         C1      NOp   1
 Largest concise Abelian subgroup C1      NOp   1
                         Standard orientation:                         
 ---------------------------------------------------------------------
 Center     Atomic      Atomic             Coordinates (Angstroms)
 Number     Number       Type             X           Y           Z
 ---------------------------------------------------------------------
      1          8           0        1.221681    0.500142   -0.320264
      2          1           0       -0.038345   -0.035781   -0.357098
      3          8           0        1.956847   -0.281592    0.364718
      4          8           0       -1.032855   -0.499971   -0.399023
      5          8           0       -1.856842    0.175906    0.411195
      6          1           0       -2.272303    0.879892   -0.095916
 ---------------------------------------------------------------------
 Rotational constants (GHZ):     25.7052620      2.9445132      2.9213213
 Standard basis: 6-31+G(d,p) (6D, 7F)
 There are    86 symmetry adapted basis functions of A   symmetry.
 Integral buffers will be    262144 words long.
 Raffenetti 2 integral format.
 Two-electron integral symmetry is turned on.
    86 basis functions,   142 primitive gaussians,    86 cartesian basis functions
    17 alpha electrons       17 beta electrons
       nuclear repulsion energy       116.1296648155 Hartrees.
 NAtoms=    6 NActive=    6 NUniq=    6 SFac= 7.50D-01 NAtFMM=   80 NAOKFM=F Big=F
 One-electron integrals computed using PRISM.
 NBasis=    86 RedAO= T  NBF=    86
 NBsUse=    86 1.00D-06 NBFU=    86
 Initial guess read from the read-write file.
 B after Tr=     0.000000    0.000000    0.000000
         Rot=    1.000000    0.000000    0.000000    0.000000 Ang=   0.00 deg.
 Initial guess orbital symmetries:
       Occupied  (A) (A) (A) (A) (A) (A) (A) (A) (A) (A) (A) (A)
                 (A) (A) (A) (A) (A)
       Virtual   (A) (A) (A) (A) (A) (A) (A) (A) (A) (A) (A) (A)
                 (A) (A) (A) (A) (A) (A) (A) (A) (A) (A) (A) (A)
                 (A) (A) (A) (A) (A) (A) (A) (A) (A) (A) (A) (A)
                 (A) (A) (A) (A) (A) (A) (A) (A) (A) (A) (A) (A)
                 (A) (A) (A) (A) (A) (A) (A) (A) (A) (A) (A) (A)
                 (A) (A) (A) (A) (A) (A) (A) (A) (A)
 Harris functional with IExCor= 1009 diagonalized for initial guess.
 ExpMin= 8.45D-02 ExpMax= 5.48D+03 ExpMxC= 8.25D+02 IAcc=2 IRadAn=         0 AccDes= 0.00D+00
 HarFok:  IExCor= 1009 AccDes= 0.00D+00 IRadAn=         0 IDoV= 1
 ScaDFX=  1.000000  1.000000  1.000000  1.000000
 FoFCou: FMM=F IPFlag=           0 FMFlag=      100000 FMFlg1=           0
         NFxFlg=           0 DoJE=T BraDBF=F KetDBF=T FulRan=T
         Omega=  0.000000  0.000000  1.000000  0.000000  0.000000 ICntrl=     500 IOpCl=  0
         NMat0=    1 NMatS0=    1 NMatT0=    0 NMatD0=    1 NMtDS0=    0 NMtDT0=    0
         I1Cent=           4 NGrid=           0.
 Petite list used in FoFCou.
 Requested convergence on RMS density matrix=1.00D-08 within 128 cycles.
 Requested convergence on MAX density matrix=1.00D-06.
 Requested convergence on             energy=1.00D-06.
 No special actions if energy rises.
 Keep R1 ints in memory in canonical form, NReq=7992901.
 Integral accuracy reduced to 1.0D-05 until final iterations.
 Rare condition: small coef for last iteration:  0.000D+00
 Rare condition: small coef for last iteration:  0.000D+00
 Problem detected with inexpensive integrals.
 Switching to full accuracy and repeating last cycle.
 Rare condition: small coef for last iteration:  0.000D+00
 Rare condition: small coef for last iteration:  0.000D+00
 SCF Done:  E(RM062X) =  -301.654414083     A.U. after   35 cycles
             Convg  =    0.8889D-08             -V/T =  2.0082
 Calling FoFJK, ICntrl=      2127 FMM=F ISym2X=0 I1Cent= 0 IOpClX= 0 NMat=1 NMatS=1 NMatT=0.
 ***** Axes restored to original set *****
 -------------------------------------------------------------------
 Center     Atomic                   Forces (Hartrees/Bohr)
 Number     Number              X              Y              Z
 -------------------------------------------------------------------
      1        8           0.040715880   -0.099854862    0.062773644
      2        1          -0.033073772   -0.002488305   -0.083410854
      3        8          -0.028903975    0.100085639   -0.026241844
      4        8           0.086157594    0.003330355    0.042442117
      5        8          -0.070319805   -0.008352552    0.007401469
      6        1           0.005424079    0.007279725   -0.002964533
 -------------------------------------------------------------------
 Cartesian Forces:  Max     0.100085639 RMS     0.052474403

 GradGradGradGradGradGradGradGradGradGradGradGradGradGradGradGradGradGrad
 Berny optimization.
 Internal  Forces:  Max     0.107405784 RMS     0.041051404
 Search for a saddle point.
 Step number   2 out of a maximum of  100
 All quantities printed in internal units (Hartrees-Bohrs-Radians)
 Swaping is turned off.
 Update second derivatives using D2CorX and points    1    2
 The second derivative matrix:
                          R1        R2        R3        R4        R5
           R1           0.08511
           R2           0.01362   0.36168
           R3           0.07075   0.00118   0.17097
           R4           0.00179   0.01110   0.00223   0.61658
           R5           0.00234  -0.00393  -0.00145   0.00887   0.54325
           A1          -0.00413   0.01354   0.00613  -0.00137   0.00095
           A2           0.00410  -0.00333  -0.00855   0.06202  -0.00055
           A3           0.00712  -0.00558  -0.00263   0.07499  -0.00496
           A4           0.00267  -0.00502  -0.00107  -0.00458   0.00021
           A5           0.00019   0.00204  -0.00133   0.00024  -0.00066
           D1           0.01018  -0.02982  -0.00717   0.00319  -0.00208
           D2           0.00336  -0.00056   0.00112   0.00478   0.00053
                          A1        A2        A3        A4        A5
           A1           0.03274
           A2           0.00164   0.18919
           A3          -0.00152   0.00852   0.23933
           A4           0.00205  -0.03146   0.00039   0.02174
           A5           0.01202  -0.00049   0.00034   0.00098   0.01106
           D1          -0.00009  -0.00364  -0.00105  -0.00283  -0.00035
           D2          -0.00089   0.01180   0.01175   0.00187   0.00015
                          D1        D2
           D1          -0.01287
           D2          -0.00008   0.01728
     Eigenvalues ---   -0.01907   0.00540   0.01214   0.01945   0.03566
     Eigenvalues ---    0.05034   0.18580   0.21148   0.22571   0.36545
     Eigenvalues ---    0.54292   0.64078
 Eigenvectors required to have negative eigenvalues:
                          D1        R1        A4        R3        R2
   1                    0.95822  -0.18941   0.13294   0.11189   0.08637
                          A1        A2        A5        A3        R4
   1                   -0.06416   0.05073   0.03356   0.01388  -0.01195
 RFO step:  Lambda0=1.548050552D-02 Lambda=-6.85840823D-02.
 Linear search not attempted -- option 19 set.
 Maximum step size (   0.300) exceeded in Quadratic search.
    -- Step size scaled by   0.331
 Iteration  1 RMS(Cart)=  0.09193472 RMS(Int)=  0.01921626
 Iteration  2 RMS(Cart)=  0.02651032 RMS(Int)=  0.00069590
 Iteration  3 RMS(Cart)=  0.00061219 RMS(Int)=  0.00000016
 Iteration  4 RMS(Cart)=  0.00000025 RMS(Int)=  0.00000000
 Variable       Old X    -DE/DX   Delta X   Delta X   Delta X     New X
                                 (Linear)    (Quad)   (Total)
    R1        2.58847   0.03837   0.00000   0.08556   0.08556   2.67403
    R2        2.40580  -0.10741   0.00000  -0.06439  -0.06439   2.34142
    R3        2.07550  -0.05113   0.00000  -0.08035  -0.08035   1.99515
    R4        2.52985   0.06448   0.00000   0.03537   0.03537   2.56522
    R5        1.81784   0.00591   0.00000   0.00258   0.00258   1.82042
    A1        1.88118  -0.00104   0.00000   0.00067   0.00067   1.88185
    A2        1.89742  -0.01457   0.00000  -0.02244  -0.02244   1.87498
    A3        1.89257  -0.01298   0.00000  -0.02470  -0.02470   1.86788
    A4        3.17499  -0.00109   0.00000   0.01815   0.01815   3.19315
    A5        3.16444   0.00106   0.00000   0.01299   0.01299   3.17743
    D1        1.84070   0.00093   0.00000   0.26248   0.26248   2.10318
    D2        1.57127   0.00476   0.00000   0.01764   0.01764   1.58891
         Item               Value     Threshold  Converged?
 Maximum Force            0.107406     0.000450     NO 
 RMS     Force            0.041051     0.000300     NO 
 Maximum Displacement     0.234215     0.001800     NO 
 RMS     Displacement     0.116915     0.001200     NO 
 Predicted change in Energy=-1.568790D-02
 GradGradGradGradGradGradGradGradGradGradGradGradGradGradGradGradGradGrad

                          Input orientation:                          
 ---------------------------------------------------------------------
 Center     Atomic      Atomic             Coordinates (Angstroms)
 Number     Number       Type             X           Y           Z
 ---------------------------------------------------------------------
      1          8           0       -0.829889   -0.072505    0.033332
      2          1           0       -1.255832   -0.078337   -1.316063
      3          8           0       -0.280415   -1.159178    0.262251
      4          8           0       -1.524441   -0.113478   -2.336507
      5          8           0       -2.870395    0.047502   -2.408423
      6          1           0       -3.036912    0.991805   -2.500967
 ---------------------------------------------------------------------
                    Distance matrix (angstroms):
                    1          2          3          4          5
     1  O    0.000000
     2  H    1.415037   0.000000
     3  O    1.239026   2.147262   0.000000
     4  O    2.469862   1.055789   3.065067   0.000000
     5  O    3.184374   1.953433   3.911084   1.357453   0.000000
     6  H    3.525107   2.391955   4.456499   1.880496   0.963327
                    6
     6  H    0.000000
 Stoichiometry    H2O4
 Framework group  C1[X(H2O4)]
 Deg. of freedom    12
 Full point group                 C1      NOp   1
 Largest Abelian subgroup         C1      NOp   1
 Largest concise Abelian subgroup C1      NOp   1
                         Standard orientation:                         
 ---------------------------------------------------------------------
 Center     Atomic      Atomic             Coordinates (Angstroms)
 Number     Number       Type             X           Y           Z
 ---------------------------------------------------------------------
      1          8           0        1.214468    0.514622   -0.273529
      2          1           0       -0.072520   -0.073469   -0.285453
      3          8           0        1.983858   -0.268316    0.301129
      4          8           0       -1.006609   -0.565303   -0.301814
      5          8           0       -1.895304    0.228072    0.348923
      6          1           0       -2.298785    0.800875   -0.312212
 ---------------------------------------------------------------------
 Rotational constants (GHZ):     27.8051519      2.9435246      2.8481342
 Standard basis: 6-31+G(d,p) (6D, 7F)
 There are    86 symmetry adapted basis functions of A   symmetry.
 Integral buffers will be    262144 words long.
 Raffenetti 2 integral format.
 Two-electron integral symmetry is turned on.
    86 basis functions,   142 primitive gaussians,    86 cartesian basis functions
    17 alpha electrons       17 beta electrons
       nuclear repulsion energy       116.4976009548 Hartrees.
 NAtoms=    6 NActive=    6 NUniq=    6 SFac= 7.50D-01 NAtFMM=   80 NAOKFM=F Big=F
 One-electron integrals computed using PRISM.
 NBasis=    86 RedAO= T  NBF=    86
 NBsUse=    86 1.00D-06 NBFU=    86
 Initial guess read from the read-write file.
 B after Tr=     0.000000    0.000000    0.000000
         Rot=    1.000000    0.000000    0.000000    0.000000 Ang=   0.00 deg.
 Initial guess orbital symmetries:
       Occupied  (A) (A) (A) (A) (A) (A) (A) (A) (A) (A) (A) (A)
                 (A) (A) (A) (A) (A)
       Virtual   (A) (A) (A) (A) (A) (A) (A) (A) (A) (A) (A) (A)
                 (A) (A) (A) (A) (A) (A) (A) (A) (A) (A) (A) (A)
                 (A) (A) (A) (A) (A) (A) (A) (A) (A) (A) (A) (A)
                 (A) (A) (A) (A) (A) (A) (A) (A) (A) (A) (A) (A)
                 (A) (A) (A) (A) (A) (A) (A) (A) (A) (A) (A) (A)
                 (A) (A) (A) (A) (A) (A) (A) (A) (A)
 Harris functional with IExCor= 1009 diagonalized for initial guess.
 ExpMin= 8.45D-02 ExpMax= 5.48D+03 ExpMxC= 8.25D+02 IAcc=2 IRadAn=         0 AccDes= 0.00D+00
 HarFok:  IExCor= 1009 AccDes= 0.00D+00 IRadAn=         0 IDoV= 1
 ScaDFX=  1.000000  1.000000  1.000000  1.000000
 FoFCou: FMM=F IPFlag=           0 FMFlag=      100000 FMFlg1=           0
         NFxFlg=           0 DoJE=T BraDBF=F KetDBF=T FulRan=T
         Omega=  0.000000  0.000000  1.000000  0.000000  0.000000 ICntrl=     500 IOpCl=  0
         NMat0=    1 NMatS0=    1 NMatT0=    0 NMatD0=    1 NMtDS0=    0 NMtDT0=    0
         I1Cent=           4 NGrid=           0.
 Petite list used in FoFCou.
 Requested convergence on RMS density matrix=1.00D-08 within 128 cycles.
 Requested convergence on MAX density matrix=1.00D-06.
 Requested convergence on             energy=1.00D-06.
 No special actions if energy rises.
 Keep R1 ints in memory in canonical form, NReq=7992901.
 Integral accuracy reduced to 1.0D-05 until final iterations.
 Problem detected with inexpensive integrals.
 Switching to full accuracy and repeating last cycle.
 SCF Done:  E(RM062X) =  -301.669549112     A.U. after   38 cycles
             Convg  =    0.3457D-08             -V/T =  2.0079
 Calling FoFJK, ICntrl=      2127 FMM=F ISym2X=0 I1Cent= 0 IOpClX= 0 NMat=1 NMatS=1 NMatT=0.
 ***** Axes restored to original set *****
 -------------------------------------------------------------------
 Center     Atomic                   Forces (Hartrees/Bohr)
 Number     Number              X              Y              Z
 -------------------------------------------------------------------
      1        8           0.039027376   -0.059536709    0.045452009
      2        1          -0.022665364   -0.000710744   -0.066211569
      3        8          -0.029490285    0.058704205   -0.012204942
      4        8           0.060681312   -0.000154056    0.030434998
      5        8          -0.052205019   -0.003234086    0.005343690
      6        1           0.004651980    0.004931390   -0.002814188
 -------------------------------------------------------------------
 Cartesian Forces:  Max     0.066211569 RMS     0.036456557

 GradGradGradGradGradGradGradGradGradGradGradGradGradGradGradGradGradGrad
 Berny optimization.
 Internal  Forces:  Max     0.066805879 RMS     0.027970640
 Search for a saddle point.
 Step number   3 out of a maximum of  100
 All quantities printed in internal units (Hartrees-Bohrs-Radians)
 Swaping is turned off.
 Update second derivatives using D2CorX and points    1    2    3
 The second derivative matrix:
                          R1        R2        R3        R4        R5
           R1           0.08501
           R2           0.00564   0.38769
           R3           0.06627   0.01978   0.18367
           R4           0.00048   0.01016   0.00233   0.61560
           R5           0.00212  -0.00373  -0.00123   0.00876   0.54324
           A1          -0.00398   0.01394   0.00629  -0.00121   0.00097
           A2           0.00308   0.00126  -0.00546   0.06210  -0.00049
           A3           0.00660  -0.00183  -0.00025   0.07525  -0.00489
           A4           0.00282  -0.00779  -0.00272  -0.00493   0.00015
           A5          -0.00042   0.00173  -0.00121  -0.00020  -0.00071
           D1           0.00887  -0.05620  -0.02152  -0.00181  -0.00289
           D2           0.00340  -0.00214   0.00021   0.00456   0.00049
                          A1        A2        A3        A4        A5
           A1           0.03270
           A2           0.00167   0.18994
           A3          -0.00153   0.00909   0.23971
           A4           0.00210  -0.03184   0.00017   0.02184
           A5           0.01210  -0.00044   0.00047   0.00082   0.01086
           D1           0.00057  -0.00687  -0.00252  -0.00264  -0.00269
           D2          -0.00087   0.01159   0.01163   0.00191   0.00004
                          D1        D2
           D1          -0.02106
           D2          -0.00011   0.01730
     Eigenvalues ---   -0.03408   0.00570   0.01215   0.01946   0.03676
     Eigenvalues ---    0.05656   0.18732   0.21451   0.22673   0.39834
     Eigenvalues ---    0.54293   0.64012
 Eigenvectors required to have negative eigenvalues:
                          D1        R1        R3        R2        A4
   1                    0.95587  -0.16040   0.13705   0.12735   0.10821
                          A1        A5        A2        A3        R5
   1                   -0.07507   0.07321   0.05136   0.01304   0.00692
 RFO step:  Lambda0=8.997381690D-03 Lambda=-3.76463302D-02.
 Linear search not attempted -- option 19 set.
 Maximum step size (   0.300) exceeded in Quadratic search.
    -- Step size scaled by   0.425
 Iteration  1 RMS(Cart)=  0.09040834 RMS(Int)=  0.01505795
 Iteration  2 RMS(Cart)=  0.01907271 RMS(Int)=  0.00039971
 Iteration  3 RMS(Cart)=  0.00038814 RMS(Int)=  0.00000009
 Iteration  4 RMS(Cart)=  0.00000012 RMS(Int)=  0.00000000
 Variable       Old X    -DE/DX   Delta X   Delta X   Delta X     New X
                                 (Linear)    (Quad)   (Total)
    R1        2.67403   0.03457   0.00000   0.13529   0.13529   2.80932
    R2        2.34142  -0.06681   0.00000  -0.03155  -0.03155   2.30987
    R3        1.99515  -0.03527   0.00000  -0.07744  -0.07744   1.91771
    R4        2.56522   0.04723   0.00000   0.03721   0.03721   2.60243
    R5        1.82042   0.00430   0.00000   0.00280   0.00280   1.82323
    A1        1.88185   0.00039   0.00000   0.00613   0.00613   1.88798
    A2        1.87498  -0.01071   0.00000  -0.02728  -0.02728   1.84771
    A3        1.86788  -0.00976   0.00000  -0.02641  -0.02641   1.84147
    A4        3.19315  -0.00233   0.00000  -0.01680  -0.01680   3.17635
    A5        3.17743   0.00166   0.00000   0.04092   0.04092   3.21835
    D1        2.10318   0.00029   0.00000   0.24233   0.24233   2.34551
    D2        1.58891   0.00442   0.00000   0.03393   0.03393   1.62284
         Item               Value     Threshold  Converged?
 Maximum Force            0.066806     0.000450     NO 
 RMS     Force            0.027971     0.000300     NO 
 Maximum Displacement     0.203106     0.001800     NO 
 RMS     Displacement     0.106452     0.001200     NO 
 Predicted change in Energy=-1.039742D-02
 GradGradGradGradGradGradGradGradGradGradGradGradGradGradGradGradGradGrad

                          Input orientation:                          
 ---------------------------------------------------------------------
 Center     Atomic      Atomic             Coordinates (Angstroms)
 Number     Number       Type             X           Y           Z
 ---------------------------------------------------------------------
      1          8           0       -0.903271   -0.135020    0.084352
      2          1           0       -1.296049   -0.108612   -1.349206
      3          8           0       -0.172935   -1.098969    0.261838
      4          8           0       -1.538194   -0.148104   -2.333911
      5          8           0       -2.895163    0.078061   -2.397297
      6          1           0       -2.992271    1.028452   -2.532153
 ---------------------------------------------------------------------
                    Distance matrix (angstroms):
                    1          2          3          4          5
     1  O    0.000000
     2  H    1.486627   0.000000
     3  O    1.222330   2.199467   0.000000
     4  O    2.500259   1.014810   3.083179   0.000000
     5  O    3.189298   1.921070   3.983331   1.377147   0.000000
     6  H    3.544529   2.359968   4.503439   1.880937   0.964811
                    6
     6  H    0.000000
 Stoichiometry    H2O4
 Framework group  C1[X(H2O4)]
 Deg. of freedom    12
 Full point group                 C1      NOp   1
 Largest Abelian subgroup         C1      NOp   1
 Largest concise Abelian subgroup C1      NOp   1
                         Standard orientation:                         
 ---------------------------------------------------------------------
 Center     Atomic      Atomic             Coordinates (Angstroms)
 Number     Number       Type             X           Y           Z
 ---------------------------------------------------------------------
      1          8           0       -1.213422   -0.533056   -0.218155
      2          1           0        0.121173    0.121525   -0.239076
      3          8           0       -2.022415    0.264934    0.232215
      4          8           0        1.007216    0.615882   -0.219627
      5          8           0        1.923769   -0.274227    0.294346
      6          1           0        2.317645   -0.709798   -0.471160
 ---------------------------------------------------------------------
 Rotational constants (GHZ):     28.9037061      2.9078966      2.7584988
 Standard basis: 6-31+G(d,p) (6D, 7F)
 There are    86 symmetry adapted basis functions of A   symmetry.
 Integral buffers will be    262144 words long.
 Raffenetti 2 integral format.
 Two-electron integral symmetry is turned on.
    86 basis functions,   142 primitive gaussians,    86 cartesian basis functions
    17 alpha electrons       17 beta electrons
       nuclear repulsion energy       116.0958823363 Hartrees.
 NAtoms=    6 NActive=    6 NUniq=    6 SFac= 7.50D-01 NAtFMM=   80 NAOKFM=F Big=F
 One-electron integrals computed using PRISM.
 NBasis=    86 RedAO= T  NBF=    86
 NBsUse=    86 1.00D-06 NBFU=    86
 Initial guess read from the read-write file.
 B after Tr=     0.000000    0.000000    0.000000
         Rot=    1.000000    0.000000    0.000000    0.000000 Ang=   0.00 deg.
 Initial guess orbital symmetries:
       Occupied  (A) (A) (A) (A) (A) (A) (A) (A) (A) (A) (A) (A)
                 (A) (A) (A) (A) (A)
       Virtual   (A) (A) (A) (A) (A) (A) (A) (A) (A) (A) (A) (A)
                 (A) (A) (A) (A) (A) (A) (A) (A) (A) (A) (A) (A)
                 (A) (A) (A) (A) (A) (A) (A) (A) (A) (A) (A) (A)
                 (A) (A) (A) (A) (A) (A) (A) (A) (A) (A) (A) (A)
                 (A) (A) (A) (A) (A) (A) (A) (A) (A) (A) (A) (A)
                 (A) (A) (A) (A) (A) (A) (A) (A) (A)
 Harris functional with IExCor= 1009 diagonalized for initial guess.
 ExpMin= 8.45D-02 ExpMax= 5.48D+03 ExpMxC= 8.25D+02 IAcc=2 IRadAn=         0 AccDes= 0.00D+00
 HarFok:  IExCor= 1009 AccDes= 0.00D+00 IRadAn=         0 IDoV= 1
 ScaDFX=  1.000000  1.000000  1.000000  1.000000
 FoFCou: FMM=F IPFlag=           0 FMFlag=      100000 FMFlg1=           0
         NFxFlg=           0 DoJE=T BraDBF=F KetDBF=T FulRan=T
         Omega=  0.000000  0.000000  1.000000  0.000000  0.000000 ICntrl=     500 IOpCl=  0
         NMat0=    1 NMatS0=    1 NMatT0=    0 NMatD0=    1 NMtDS0=    0 NMtDT0=    0
         I1Cent=           4 NGrid=           0.
 Petite list used in FoFCou.
 Requested convergence on RMS density matrix=1.00D-08 within 128 cycles.
 Requested convergence on MAX density matrix=1.00D-06.
 Requested convergence on             energy=1.00D-06.
 No special actions if energy rises.
 Keep R1 ints in memory in canonical form, NReq=7992901.
 Integral accuracy reduced to 1.0D-05 until final iterations.
 Initial convergence to 1.0D-05 achieved.  Increase integral accuracy.
 SCF Done:  E(RM062X) =  -301.680199139     A.U. after   38 cycles
             Convg  =    0.5242D-08             -V/T =  2.0078
 Calling FoFJK, ICntrl=      2127 FMM=F ISym2X=0 I1Cent= 0 IOpClX= 0 NMat=1 NMatS=1 NMatT=0.
 ***** Axes restored to original set *****
 -------------------------------------------------------------------
 Center     Atomic                   Forces (Hartrees/Bohr)
 Number     Number              X              Y              Z
 -------------------------------------------------------------------
      1        8           0.032984188   -0.033775244    0.033611788
      2        1          -0.018118711   -0.002896790   -0.040831819
      3        8          -0.025922910    0.034018298   -0.006805928
      4        8           0.041011885    0.000187445    0.009400585
      5        8          -0.033415878   -0.000169170    0.007660889
      6        1           0.003461426    0.002635461   -0.003035516
 -------------------------------------------------------------------
 Cartesian Forces:  Max     0.041011885 RMS     0.023818546

 GradGradGradGradGradGradGradGradGradGradGradGradGradGradGradGradGradGrad
 Berny optimization.
 Internal  Forces:  Max     0.043320785 RMS     0.018369270
 Search for a saddle point.
 Step number   4 out of a maximum of  100
 All quantities printed in internal units (Hartrees-Bohrs-Radians)
 Swaping is turned off.
 Update second derivatives using D2CorX and points    2    3    4
 The second derivative matrix:
                          R1        R2        R3        R4        R5
           R1           0.08073
           R2           0.00980   0.38558
           R3           0.05728   0.02027   0.19959
           R4          -0.00173   0.01166   0.00044   0.61468
           R5           0.00189  -0.00360  -0.00131   0.00867   0.54323
           A1          -0.00102   0.01326   0.00322  -0.00041   0.00102
           A2           0.01105  -0.00153  -0.00970   0.06455  -0.00030
           A3           0.00710  -0.00260   0.00200   0.07560  -0.00485
           A4          -0.00071  -0.00703   0.00119  -0.00586   0.00009
           A5           0.00236   0.00182  -0.00715   0.00031  -0.00069
           D1           0.00440  -0.04891  -0.04324  -0.00510  -0.00328
           D2           0.00151  -0.00090  -0.00124   0.00379   0.00041
                          A1        A2        A3        A4        A5
           A1           0.03313
           A2           0.00176   0.18774
           A3          -0.00220   0.00743   0.23970
           A4           0.00152  -0.03209   0.00097   0.02260
           A5           0.01332   0.00148  -0.00026  -0.00072   0.01303
           D1           0.00696   0.00890  -0.00242  -0.01036   0.00440
           D2          -0.00024   0.01359   0.01194   0.00118   0.00042
                          D1        D2
           D1          -0.02141
           D2          -0.00298   0.01665
     Eigenvalues ---   -0.03965   0.00565   0.01237   0.02095   0.04019
     Eigenvalues ---    0.06032   0.18610   0.21943   0.23125   0.39574
     Eigenvalues ---    0.54292   0.64000
 Eigenvectors required to have negative eigenvalues:
                          D1        R3        A4        R1        A1
   1                    0.94175   0.19405   0.16491  -0.13621  -0.12029
                          R2        D2        A5        R5        A3
   1                    0.10882   0.05446  -0.01755   0.00694   0.00608
 RFO step:  Lambda0=2.860951282D-03 Lambda=-2.15598647D-02.
 Linear search not attempted -- option 19 set.
 Maximum step size (   0.300) exceeded in Quadratic search.
    -- Step size scaled by   0.547
 Iteration  1 RMS(Cart)=  0.09440464 RMS(Int)=  0.00779496
 Iteration  2 RMS(Cart)=  0.00716717 RMS(Int)=  0.00002018
 Iteration  3 RMS(Cart)=  0.00003672 RMS(Int)=  0.00000000
 Iteration  4 RMS(Cart)=  0.00000000 RMS(Int)=  0.00000000
 Variable       Old X    -DE/DX   Delta X   Delta X   Delta X     New X
                                 (Linear)    (Quad)   (Total)
    R1        2.80932   0.02772   0.00000   0.17621   0.17621   2.98553
    R2        2.30987  -0.04332   0.00000  -0.03801  -0.03801   2.27186
    R3        1.91771  -0.01633   0.00000  -0.04795  -0.04795   1.86977
    R4        2.60243   0.02972   0.00000   0.03855   0.03855   2.64098
    R5        1.82323   0.00265   0.00000   0.00169   0.00169   1.82492
    A1        1.88798  -0.00120   0.00000  -0.01307  -0.01307   1.87491
    A2        1.84771  -0.01332   0.00000  -0.07137  -0.07137   1.77633
    A3        1.84147  -0.00669   0.00000  -0.03134  -0.03134   1.81013
    A4        3.17635  -0.00012   0.00000   0.00252   0.00252   3.17886
    A5        3.21835  -0.00084   0.00000  -0.05169  -0.05169   3.16667
    D1        2.34551   0.00007   0.00000   0.18075   0.18075   2.52626
    D2        1.62284   0.00480   0.00000   0.11009   0.11009   1.73293
         Item               Value     Threshold  Converged?
 Maximum Force            0.043321     0.000450     NO 
 RMS     Force            0.018369     0.000300     NO 
 Maximum Displacement     0.134083     0.001800     NO 
 RMS     Displacement     0.093700     0.001200     NO 
 Predicted change in Energy=-8.153490D-03
 GradGradGradGradGradGradGradGradGradGradGradGradGradGradGradGradGradGrad

                          Input orientation:                          
 ---------------------------------------------------------------------
 Center     Atomic      Atomic             Coordinates (Angstroms)
 Number     Number       Type             X           Y           Z
 ---------------------------------------------------------------------
      1          8           0       -0.951845   -0.194964    0.136059
      2          1           0       -1.332752   -0.157729   -1.396757
      3          8           0       -0.101982   -1.033776    0.275540
      4          8           0       -1.539307   -0.158803   -2.364393
      5          8           0       -2.911198    0.107758   -2.363497
      6          1           0       -2.960800    1.053323   -2.553328
 ---------------------------------------------------------------------
                    Distance matrix (angstroms):
                    1          2          3          4          5
     1  O    0.000000
     2  H    1.579874   0.000000
     3  O    1.202218   2.253626   0.000000
     4  O    2.568790   0.989437   3.130612   0.000000
     5  O    3.190374   1.869909   4.019865   1.397547   0.000000
     6  H    3.581469   2.335561   4.531150   1.877655   0.965707
                    6
     6  H    0.000000
 Stoichiometry    H2O4
 Framework group  C1[X(H2O4)]
 Deg. of freedom    12
 Full point group                 C1      NOp   1
 Largest Abelian subgroup         C1      NOp   1
 Largest concise Abelian subgroup C1      NOp   1
                         Standard orientation:                         
 ---------------------------------------------------------------------
 Center     Atomic      Atomic             Coordinates (Angstroms)
 Number     Number       Type             X           Y           Z
 ---------------------------------------------------------------------
      1          8           0        1.228629   -0.541008    0.179051
      2          1           0       -0.176839    0.180462    0.167151
      3          8           0        2.048648    0.262226   -0.178319
      4          8           0       -1.037758    0.667929    0.153694
      5          8           0       -1.926244   -0.333363   -0.247734
      6          1           0       -2.329371   -0.626741    0.579313
 ---------------------------------------------------------------------
 Rotational constants (GHZ):     28.3362673      2.8715254      2.6825342
 Standard basis: 6-31+G(d,p) (6D, 7F)
 There are    86 symmetry adapted basis functions of A   symmetry.
 Integral buffers will be    262144 words long.
 Raffenetti 2 integral format.
 Two-electron integral symmetry is turned on.
    86 basis functions,   142 primitive gaussians,    86 cartesian basis functions
    17 alpha electrons       17 beta electrons
       nuclear repulsion energy       115.5288270469 Hartrees.
 NAtoms=    6 NActive=    6 NUniq=    6 SFac= 7.50D-01 NAtFMM=   80 NAOKFM=F Big=F
 One-electron integrals computed using PRISM.
 NBasis=    86 RedAO= T  NBF=    86
 NBsUse=    86 1.00D-06 NBFU=    86
 Initial guess read from the read-write file.
 B after Tr=     0.000000    0.000000    0.000000
         Rot=    1.000000    0.000000    0.000000    0.000000 Ang=   0.00 deg.
 Initial guess orbital symmetries:
       Occupied  (A) (A) (A) (A) (A) (A) (A) (A) (A) (A) (A) (A)
                 (A) (A) (A) (A) (A)
       Virtual   (A) (A) (A) (A) (A) (A) (A) (A) (A) (A) (A) (A)
                 (A) (A) (A) (A) (A) (A) (A) (A) (A) (A) (A) (A)
                 (A) (A) (A) (A) (A) (A) (A) (A) (A) (A) (A) (A)
                 (A) (A) (A) (A) (A) (A) (A) (A) (A) (A) (A) (A)
                 (A) (A) (A) (A) (A) (A) (A) (A) (A) (A) (A) (A)
                 (A) (A) (A) (A) (A) (A) (A) (A) (A)
 Harris functional with IExCor= 1009 diagonalized for initial guess.
 ExpMin= 8.45D-02 ExpMax= 5.48D+03 ExpMxC= 8.25D+02 IAcc=2 IRadAn=         0 AccDes= 0.00D+00
 HarFok:  IExCor= 1009 AccDes= 0.00D+00 IRadAn=         0 IDoV= 1
 ScaDFX=  1.000000  1.000000  1.000000  1.000000
 FoFCou: FMM=F IPFlag=           0 FMFlag=      100000 FMFlg1=           0
         NFxFlg=           0 DoJE=T BraDBF=F KetDBF=T FulRan=T
         Omega=  0.000000  0.000000  1.000000  0.000000  0.000000 ICntrl=     500 IOpCl=  0
         NMat0=    1 NMatS0=    1 NMatT0=    0 NMatD0=    1 NMtDS0=    0 NMtDT0=    0
         I1Cent=           4 NGrid=           0.
 Petite list used in FoFCou.
 Requested convergence on RMS density matrix=1.00D-08 within 128 cycles.
 Requested convergence on MAX density matrix=1.00D-06.
 Requested convergence on             energy=1.00D-06.
 No special actions if energy rises.
 Keep R1 ints in memory in canonical form, NReq=7992901.
 Integral accuracy reduced to 1.0D-05 until final iterations.
 Initial convergence to 1.0D-05 achieved.  Increase integral accuracy.
 SCF Done:  E(RM062X) =  -301.688112977     A.U. after   28 cycles
             Convg  =    0.7929D-08             -V/T =  2.0077
 Calling FoFJK, ICntrl=      2127 FMM=F ISym2X=0 I1Cent= 0 IOpClX= 0 NMat=1 NMatS=1 NMatT=0.
 ***** Axes restored to original set *****
 -------------------------------------------------------------------
 Center     Atomic                   Forces (Hartrees/Bohr)
 Number     Number              X              Y              Z
 -------------------------------------------------------------------
      1        8           0.012289689   -0.008202384    0.021617672
      2        1          -0.005062120   -0.001550505   -0.023704892
      3        8          -0.008074664    0.007844598   -0.001707668
      4        8           0.019863706   -0.000521206    0.002892439
      5        8          -0.020331183    0.001221869    0.003415918
      6        1           0.001314572    0.001207628   -0.002513468
 -------------------------------------------------------------------
 Cartesian Forces:  Max     0.023704892 RMS     0.011166596

 GradGradGradGradGradGradGradGradGradGradGradGradGradGradGradGradGradGrad
 Berny optimization.
 Internal  Forces:  Max     0.020348028 RMS     0.008913094
 Search for a saddle point.
 Step number   5 out of a maximum of  100
 All quantities printed in internal units (Hartrees-Bohrs-Radians)
 Swaping is turned off.
 Update second derivatives using D2CorX and points    3    4    5
 The second derivative matrix:
                          R1        R2        R3        R4        R5
           R1           0.06579
           R2          -0.00511   0.39563
           R3           0.05089   0.02953   0.20665
           R4          -0.01237   0.01090   0.00207   0.61100
           R5           0.00109  -0.00355  -0.00112   0.00844   0.54322
           A1           0.00026   0.01379   0.00330   0.00020   0.00106
           A2           0.00219   0.00919  -0.00122   0.06597  -0.00011
           A3           0.00686   0.00120   0.00444   0.07703  -0.00473
           A4           0.00098  -0.00735   0.00065  -0.00545   0.00011
           A5           0.00067   0.00588  -0.00426   0.00137  -0.00059
           D1          -0.00464  -0.06986  -0.05457  -0.01625  -0.00417
           D2          -0.00235  -0.01065  -0.00659  -0.00129   0.00001
                          A1        A2        A3        A4        A5
           A1           0.03304
           A2           0.00193   0.19783
           A3          -0.00230   0.01046   0.24035
           A4           0.00143  -0.03266   0.00067   0.02257
           A5           0.01328   0.00498   0.00064  -0.00099   0.01415
           D1           0.00809  -0.00583  -0.00449  -0.00837   0.00060
           D2           0.00027   0.00668   0.01092   0.00208  -0.00136
                          D1        D2
           D1          -0.02122
           D2          -0.00248   0.01704
     Eigenvalues ---   -0.04627   0.00723   0.01317   0.02108   0.04005
     Eigenvalues ---    0.04959   0.19337   0.21920   0.23265   0.41423
     Eigenvalues ---    0.54295   0.63881
 Eigenvectors required to have negative eigenvalues:
                          D1        R3        A4        R2        A1
   1                    0.94382   0.19942   0.14618   0.14250  -0.13663
                          D2        R1        A2        A5        R4
   1                    0.07294  -0.04345   0.03196   0.02235   0.01731
 RFO step:  Lambda0=1.697167815D-04 Lambda=-9.40782334D-03.
 Linear search not attempted -- option 19 set.
 Maximum step size (   0.300) exceeded in Quadratic search.
    -- Step size scaled by   0.700
 Iteration  1 RMS(Cart)=  0.07218702 RMS(Int)=  0.01225082
 Iteration  2 RMS(Cart)=  0.01242944 RMS(Int)=  0.00003061
 Iteration  3 RMS(Cart)=  0.00003128 RMS(Int)=  0.00000000
 Iteration  4 RMS(Cart)=  0.00000000 RMS(Int)=  0.00000000
 Variable       Old X    -DE/DX   Delta X   Delta X   Delta X     New X
                                 (Linear)    (Quad)   (Total)
    R1        2.98553   0.02035   0.00000   0.23962   0.23962   3.22515
    R2        2.27186  -0.01139   0.00000   0.00040   0.00040   2.27226
    R3        1.86977  -0.00388   0.00000  -0.04859  -0.04859   1.82117
    R4        2.64098   0.01913   0.00000   0.03411   0.03411   2.67509
    R5        1.82492   0.00160   0.00000   0.00123   0.00123   1.82615
    A1        1.87491  -0.00089   0.00000  -0.03119  -0.03119   1.84371
    A2        1.77633  -0.00083   0.00000  -0.02583  -0.02583   1.75051
    A3        1.81013  -0.00271   0.00000  -0.02817  -0.02817   1.78196
    A4        3.17886  -0.00145   0.00000  -0.04828  -0.04828   3.13058
    A5        3.16667   0.00033   0.00000   0.02114   0.02114   3.18781
    D1        2.52626  -0.00004   0.00000   0.05778   0.05778   2.58405
    D2        1.73293   0.00386   0.00000   0.14320   0.14320   1.87612
         Item               Value     Threshold  Converged?
 Maximum Force            0.020348     0.000450     NO 
 RMS     Force            0.008913     0.000300     NO 
 Maximum Displacement     0.138823     0.001800     NO 
 RMS     Displacement     0.080626     0.001200     NO 
 Predicted change in Energy=-4.618547D-03
 GradGradGradGradGradGradGradGradGradGradGradGradGradGradGradGradGradGrad

                          Input orientation:                          
 ---------------------------------------------------------------------
 Center     Atomic      Atomic             Coordinates (Angstroms)
 Number     Number       Type             X           Y           Z
 ---------------------------------------------------------------------
      1          8           0       -0.954692   -0.233599    0.209521
      2          1           0       -1.323312   -0.155955   -1.455060
      3          8           0       -0.063840   -1.035275    0.307150
      4          8           0       -1.547802   -0.143307   -2.392186
      5          8           0       -2.934005    0.133537   -2.316592
      6          1           0       -2.974233    1.050407   -2.619210
 ---------------------------------------------------------------------
                    Distance matrix (angstroms):
                    1          2          3          4          5
     1  O    0.000000
     2  H    1.706675   0.000000
     3  O    1.202429   2.337703   0.000000
     4  O    2.669983   0.963722   3.206893   0.000000
     5  O    3.230126   1.849426   4.060541   1.415597   0.000000
     6  H    3.705257   2.352890   4.624288   1.873819   0.966357
                    6
     6  H    0.000000
 Stoichiometry    H2O4
 Framework group  C1[X(H2O4)]
 Deg. of freedom    12
 Full point group                 C1      NOp   1
 Largest Abelian subgroup         C1      NOp   1
 Largest concise Abelian subgroup C1      NOp   1
                         Standard orientation:                         
 ---------------------------------------------------------------------
 Center     Atomic      Atomic             Coordinates (Angstroms)
 Number     Number       Type             X           Y           Z
 ---------------------------------------------------------------------
      1          8           0        1.270824   -0.551942    0.173943
      2          1           0       -0.236615    0.248250    0.166167
      3          8           0        2.077327    0.272828   -0.165383
      4          8           0       -1.087759    0.698515    0.126482
      5          8           0       -1.929476   -0.382431   -0.229864
      6          1           0       -2.410718   -0.544016    0.592414
 ---------------------------------------------------------------------
 Rotational constants (GHZ):     26.6842035      2.7839208      2.5821472
 Standard basis: 6-31+G(d,p) (6D, 7F)
 There are    86 symmetry adapted basis functions of A   symmetry.
 Integral buffers will be    262144 words long.
 Raffenetti 2 integral format.
 Two-electron integral symmetry is turned on.
    86 basis functions,   142 primitive gaussians,    86 cartesian basis functions
    17 alpha electrons       17 beta electrons
       nuclear repulsion energy       114.0571373211 Hartrees.
 NAtoms=    6 NActive=    6 NUniq=    6 SFac= 7.50D-01 NAtFMM=   80 NAOKFM=F Big=F
 One-electron integrals computed using PRISM.
 NBasis=    86 RedAO= T  NBF=    86
 NBsUse=    86 1.00D-06 NBFU=    86
 Initial guess read from the read-write file.
 B after Tr=     0.000000    0.000000    0.000000
         Rot=    1.000000    0.000000    0.000000    0.000000 Ang=   0.00 deg.
 Initial guess orbital symmetries:
       Occupied  (A) (A) (A) (A) (A) (A) (A) (A) (A) (A) (A) (A)
                 (A) (A) (A) (A) (A)
       Virtual   (A) (A) (A) (A) (A) (A) (A) (A) (A) (A) (A) (A)
                 (A) (A) (A) (A) (A) (A) (A) (A) (A) (A) (A) (A)
                 (A) (A) (A) (A) (A) (A) (A) (A) (A) (A) (A) (A)
                 (A) (A) (A) (A) (A) (A) (A) (A) (A) (A) (A) (A)
                 (A) (A) (A) (A) (A) (A) (A) (A) (A) (A) (A) (A)
                 (A) (A) (A) (A) (A) (A) (A) (A) (A)
 Harris functional with IExCor= 1009 diagonalized for initial guess.
 ExpMin= 8.45D-02 ExpMax= 5.48D+03 ExpMxC= 8.25D+02 IAcc=2 IRadAn=         0 AccDes= 0.00D+00
 HarFok:  IExCor= 1009 AccDes= 0.00D+00 IRadAn=         0 IDoV= 1
 ScaDFX=  1.000000  1.000000  1.000000  1.000000
 FoFCou: FMM=F IPFlag=           0 FMFlag=      100000 FMFlg1=           0
         NFxFlg=           0 DoJE=T BraDBF=F KetDBF=T FulRan=T
         Omega=  0.000000  0.000000  1.000000  0.000000  0.000000 ICntrl=     500 IOpCl=  0
         NMat0=    1 NMatS0=    1 NMatT0=    0 NMatD0=    1 NMtDS0=    0 NMtDT0=    0
         I1Cent=           4 NGrid=           0.
 Petite list used in FoFCou.
 Requested convergence on RMS density matrix=1.00D-08 within 128 cycles.
 Requested convergence on MAX density matrix=1.00D-06.
 Requested convergence on             energy=1.00D-06.
 No special actions if energy rises.
 Keep R1 ints in memory in canonical form, NReq=7992901.
 Integral accuracy reduced to 1.0D-05 until final iterations.
 Initial convergence to 1.0D-05 achieved.  Increase integral accuracy.
 SCF Done:  E(RM062X) =  -301.692815821     A.U. after   23 cycles
             Convg  =    0.1208D-08             -V/T =  2.0078
 Calling FoFJK, ICntrl=      2127 FMM=F ISym2X=0 I1Cent= 0 IOpClX= 0 NMat=1 NMatS=1 NMatT=0.
 ***** Axes restored to original set *****
 -------------------------------------------------------------------
 Center     Atomic                   Forces (Hartrees/Bohr)
 Number     Number              X              Y              Z
 -------------------------------------------------------------------
      1        8           0.010610506   -0.008041374    0.013391151
      2        1           0.001884181   -0.000463493   -0.000180120
      3        8          -0.008116565    0.007220936   -0.000806797
      4        8           0.003818587   -0.000159690   -0.012321452
      5        8          -0.007979172    0.001151443    0.001264143
      6        1          -0.000217535    0.000292176   -0.001346924
 -------------------------------------------------------------------
 Cartesian Forces:  Max     0.013391151 RMS     0.006298155

 GradGradGradGradGradGradGradGradGradGradGradGradGradGradGradGradGradGrad
 Berny optimization.
 Internal  Forces:  Max     0.013101092 RMS     0.006674524
 Search for a saddle point.
 Step number   6 out of a maximum of  100
 All quantities printed in internal units (Hartrees-Bohrs-Radians)
 Swaping is turned off.
 Update second derivatives using D2CorX and points    4    5    6
 The second derivative matrix:
                          R1        R2        R3        R4        R5
           R1           0.04412
           R2           0.01485   0.39356
           R3           0.01414   0.02783   0.22178
           R4          -0.01983   0.01431  -0.00304   0.60917
           R5           0.00043  -0.00340  -0.00125   0.00831   0.54321
           A1          -0.00038   0.01163   0.00821   0.00056   0.00112
           A2          -0.00235   0.00634   0.00641   0.06590  -0.00005
           A3           0.00518  -0.00111   0.00999   0.07727  -0.00467
           A4           0.00258  -0.01037   0.00673  -0.00457   0.00020
           A5          -0.00008   0.00610  -0.00450   0.00121  -0.00060
           D1          -0.00779  -0.06217  -0.07035  -0.01835  -0.00440
           D2          -0.00751   0.00089  -0.03012  -0.00450  -0.00034
                          A1        A2        A3        A4        A5
           A1           0.03349
           A2           0.00298   0.19992
           A3          -0.00170   0.01177   0.24113
           A4           0.00174  -0.03167   0.00116   0.02260
           A5           0.01334   0.00503   0.00070  -0.00089   0.01414
           D1           0.00719  -0.00856  -0.00587  -0.00859   0.00034
           D2          -0.00103   0.00268   0.00892   0.00182  -0.00174
                          D1        D2
           D1          -0.02025
           D2          -0.00124   0.01863
     Eigenvalues ---   -0.04976   0.00703   0.01039   0.02107   0.04075
     Eigenvalues ---    0.04305   0.19447   0.21999   0.24241   0.41113
     Eigenvalues ---    0.54294   0.63802
 Eigenvectors required to have negative eigenvalues:
                          D1        R3        A1        D2        A4
   1                    0.93642   0.24327  -0.12855   0.12264   0.12014
                          R2        R1        A2        A5        R4
   1                    0.11924   0.03429   0.03168   0.02976   0.02437
 RFO step:  Lambda0=1.331377769D-04 Lambda=-6.63008476D-03.
 Linear search not attempted -- option 19 set.
 Maximum step size (   0.300) exceeded in Quadratic search.
    -- Step size scaled by   0.628
 Iteration  1 RMS(Cart)=  0.10925242 RMS(Int)=  0.00957379
 Iteration  2 RMS(Cart)=  0.00983531 RMS(Int)=  0.00010043
 Iteration  3 RMS(Cart)=  0.00013422 RMS(Int)=  0.00000002
 Iteration  4 RMS(Cart)=  0.00000001 RMS(Int)=  0.00000000
 Variable       Old X    -DE/DX   Delta X   Delta X   Delta X     New X
                                 (Linear)    (Quad)   (Total)
    R1        3.22515   0.01286   0.00000   0.19143   0.19143   3.41658
    R2        2.27226  -0.01090   0.00000  -0.04047  -0.04047   2.23179
    R3        1.82117   0.01310   0.00000   0.04038   0.04038   1.86155
    R4        2.67509   0.00829   0.00000   0.01885   0.01885   2.69394
    R5        1.82615   0.00072   0.00000  -0.00021  -0.00021   1.82594
    A1        1.84371   0.00018   0.00000   0.01395   0.01395   1.85766
    A2        1.75051   0.00186   0.00000  -0.01954  -0.01954   1.73096
    A3        1.78196   0.00005   0.00000  -0.01797  -0.01797   1.76399
    A4        3.13058  -0.00097   0.00000  -0.10696  -0.10696   3.02362
    A5        3.18781   0.00054   0.00000   0.04405   0.04405   3.23185
    D1        2.58405  -0.00017   0.00000  -0.05616  -0.05616   2.52789
    D2        1.87612   0.00217   0.00000   0.17972   0.17972   2.05584
         Item               Value     Threshold  Converged?
 Maximum Force            0.013101     0.000450     NO 
 RMS     Force            0.006675     0.000300     NO 
 Maximum Displacement     0.144089     0.001800     NO 
 RMS     Displacement     0.111470     0.001200     NO 
 Predicted change in Energy=-3.093745D-03
 GradGradGradGradGradGradGradGradGradGradGradGradGradGradGradGradGradGrad

                          Input orientation:                          
 ---------------------------------------------------------------------
 Center     Atomic      Atomic             Coordinates (Angstroms)
 Number     Number       Type             X           Y           Z
 ---------------------------------------------------------------------
      1          8           0       -0.921202   -0.251725    0.253560
      2          1           0       -1.254492   -0.125792   -1.518960
      3          8           0       -0.086496   -1.077785    0.378767
      4          8           0       -1.558772   -0.107758   -2.455703
      5          8           0       -2.941783    0.162717   -2.240343
      6          1           0       -3.035138    1.016152   -2.683698
 ---------------------------------------------------------------------
                    Distance matrix (angstroms):
                    1          2          3          4          5
     1  O    0.000000
     2  H    1.807974   0.000000
     3  O    1.181011   2.423195   0.000000
     4  O    2.786993   0.985088   3.338079   0.000000
     5  O    3.236366   1.857574   4.068323   1.425572   0.000000
     6  H    3.834544   2.414819   4.738962   1.869441   0.966246
                    6
     6  H    0.000000
 Stoichiometry    H2O4
 Framework group  C1[X(H2O4)]
 Deg. of freedom    12
 Full point group                 C1      NOp   1
 Largest Abelian subgroup         C1      NOp   1
 Largest concise Abelian subgroup C1      NOp   1
                         Standard orientation:                         
 ---------------------------------------------------------------------
 Center     Atomic      Atomic             Coordinates (Angstroms)
 Number     Number       Type             X           Y           Z
 ---------------------------------------------------------------------
      1          8           0        1.310869   -0.515320    0.212982
      2          1           0       -0.276675    0.349816    0.209701
      3          8           0        2.111250    0.253525   -0.190817
      4          8           0       -1.178305    0.734006    0.110404
      5          8           0       -1.895293   -0.452014   -0.223571
      6          1           0       -2.511497   -0.511392    0.518318
 ---------------------------------------------------------------------
 Rotational constants (GHZ):     25.0952699      2.6971163      2.4978812
 Standard basis: 6-31+G(d,p) (6D, 7F)
 There are    86 symmetry adapted basis functions of A   symmetry.
 Integral buffers will be    262144 words long.
 Raffenetti 2 integral format.
 Two-electron integral symmetry is turned on.
    86 basis functions,   142 primitive gaussians,    86 cartesian basis functions
    17 alpha electrons       17 beta electrons
       nuclear repulsion energy       113.0479377702 Hartrees.
 NAtoms=    6 NActive=    6 NUniq=    6 SFac= 7.50D-01 NAtFMM=   80 NAOKFM=F Big=F
 One-electron integrals computed using PRISM.
 NBasis=    86 RedAO= T  NBF=    86
 NBsUse=    86 1.00D-06 NBFU=    86
 Initial guess read from the read-write file.
 B after Tr=     0.000000    0.000000    0.000000
         Rot=    1.000000    0.000000    0.000000    0.000000 Ang=   0.00 deg.
 Initial guess orbital symmetries:
       Occupied  (A) (A) (A) (A) (A) (A) (A) (A) (A) (A) (A) (A)
                 (A) (A) (A) (A) (A)
       Virtual   (A) (A) (A) (A) (A) (A) (A) (A) (A) (A) (A) (A)
                 (A) (A) (A) (A) (A) (A) (A) (A) (A) (A) (A) (A)
                 (A) (A) (A) (A) (A) (A) (A) (A) (A) (A) (A) (A)
                 (A) (A) (A) (A) (A) (A) (A) (A) (A) (A) (A) (A)
                 (A) (A) (A) (A) (A) (A) (A) (A) (A) (A) (A) (A)
                 (A) (A) (A) (A) (A) (A) (A) (A) (A)
 Harris functional with IExCor= 1009 diagonalized for initial guess.
 ExpMin= 8.45D-02 ExpMax= 5.48D+03 ExpMxC= 8.25D+02 IAcc=2 IRadAn=         0 AccDes= 0.00D+00
 HarFok:  IExCor= 1009 AccDes= 0.00D+00 IRadAn=         0 IDoV= 1
 ScaDFX=  1.000000  1.000000  1.000000  1.000000
 FoFCou: FMM=F IPFlag=           0 FMFlag=      100000 FMFlg1=           0
         NFxFlg=           0 DoJE=T BraDBF=F KetDBF=T FulRan=T
         Omega=  0.000000  0.000000  1.000000  0.000000  0.000000 ICntrl=     500 IOpCl=  0
         NMat0=    1 NMatS0=    1 NMatT0=    0 NMatD0=    1 NMtDS0=    0 NMtDT0=    0
         I1Cent=           4 NGrid=           0.
 Petite list used in FoFCou.
 Requested convergence on RMS density matrix=1.00D-08 within 128 cycles.
 Requested convergence on MAX density matrix=1.00D-06.
 Requested convergence on             energy=1.00D-06.
 No special actions if energy rises.
 Keep R1 ints in memory in canonical form, NReq=7993047.
 Integral accuracy reduced to 1.0D-05 until final iterations.
 Initial convergence to 1.0D-05 achieved.  Increase integral accuracy.
 SCF Done:  E(RM062X) =  -301.694750403     A.U. after   21 cycles
             Convg  =    0.2460D-08             -V/T =  2.0077
 Calling FoFJK, ICntrl=      2127 FMM=F ISym2X=0 I1Cent= 0 IOpClX= 0 NMat=1 NMatS=1 NMatT=0.
 ***** Axes restored to original set *****
 -------------------------------------------------------------------
 Center     Atomic                   Forces (Hartrees/Bohr)
 Number     Number              X              Y              Z
[...]
 Traceless Quadrupole moment (field-independent basis, Debye-Ang):
   XX=              0.2285   YY=             -1.2043   ZZ=              0.9757
   XY=              3.0636   XZ=             -3.6295   YZ=             -1.3709
 Octapole moment (field-independent basis, Debye-Ang**2):
  XXX=             -5.3235  YYY=             -0.5571  ZZZ=              1.3827  XYY=              1.2096
  XXY=             -7.2990  XXZ=              8.9664  XZZ=              1.5317  YZZ=             -1.2346
  YYZ=              1.4475  XYZ=              2.1048
 Hexadecapole moment (field-independent basis, Debye-Ang**3):
 XXXX=           -399.8650 YYYY=            -59.7964 ZZZZ=            -17.8674 XXXY=             20.9100
 XXXZ=            -20.5526 YYYX=              4.5175 YYYZ=             -1.3631 ZZZX=             -3.2350
 ZZZY=             -1.1725 XXYY=            -82.7615 XXZZ=            -65.9519 YYZZ=            -13.4419
 XXYZ=             -8.5399 YYXZ=             -2.9173 ZZXY=              2.5708
 N-N= 1.107500557764D+02 E-N=-9.333865354264D+02  KE= 2.993019898200D+02
  Exact polarizability:  26.210   4.513  22.092  -0.009  -0.039  15.341
 Approx polarizability:  29.209   6.894  24.963   0.369   0.072  17.026
 Calling FoFJK, ICntrl=    100127 FMM=F ISym2X=0 I1Cent= 0 IOpClX= 0 NMat=1 NMatS=1 NMatT=0.
 Full mass-weighted force constant matrix:
 Low frequencies ---  -85.9220   -0.0018   -0.0016   -0.0016   10.0408   25.2244
 Low frequencies ---   38.1278   69.0109   93.9092
 ******    1 imaginary frequencies (negative Signs) ****** 
 Diagonal vibrational polarizability:
       73.3794264       9.3310509      28.7165027
 Harmonic frequencies (cm**-1), IR intensities (KM/Mole), Raman scattering
 activities (A**4/AMU), depolarization ratios for plane and unpolarized
 incident light, reduced masses (AMU), force constants (mDyne/A),
 and normal coordinates:
                     1                      2                      3
                     A                      A                      A
 Frequencies --   -78.3873                66.6474                91.1328
 Red. masses --    12.5208                 8.4746                 9.9256
 Frc consts  --     0.0453                 0.0222                 0.0486
 IR Inten    --     1.1573                 1.8340                 0.7439
  Atom  AN      X      Y      Z        X      Y      Z        X      Y      Z
     1   8     0.16  -0.43   0.42     0.30  -0.06  -0.25     0.12   0.25   0.32
     2   1     0.18  -0.27   0.17     0.10  -0.42  -0.27    -0.32   0.03   0.29
     3   8    -0.17   0.36  -0.32     0.15   0.13   0.20     0.41  -0.20  -0.24
     4   8     0.18   0.01   0.12     0.06  -0.07  -0.03    -0.28  -0.02   0.04
     5   8    -0.16   0.07  -0.21    -0.50   0.01   0.09    -0.21  -0.03  -0.12
     6   1    -0.20   0.03  -0.24    -0.32   0.26   0.27    -0.37  -0.12  -0.26
                     4                      5                      6
                     A                      A                      A
 Frequencies --   166.1359               215.2867               436.5951
 Red. masses --     4.4243                 1.2208                 1.0719
 Frc consts  --     0.0719                 0.0333                 0.1204
 IR Inten    --     3.2087               103.5135               195.7567
  Atom  AN      X      Y      Z        X      Y      Z        X      Y      Z
     1   8    -0.17   0.22   0.05     0.04  -0.05  -0.04     0.00  -0.01  -0.01
     2   1     0.27  -0.41   0.44    -0.13   0.07   0.57    -0.13   0.03   0.80
     3   8    -0.03  -0.04  -0.05     0.00   0.02   0.01     0.00   0.00   0.00
     4   8     0.34  -0.12  -0.01    -0.04   0.02  -0.03     0.00  -0.01  -0.05
     5   8    -0.11  -0.05   0.00     0.05   0.00   0.06    -0.03   0.02  -0.01
     6   1    -0.49   0.20  -0.25    -0.64   0.13  -0.46     0.46  -0.09   0.35
                     7                      8                      9
                     A                      A                      A
 Frequencies --  1038.0743              1351.0930              1488.6368
 Red. masses --    14.5721                 1.1022                 1.0941
 Frc consts  --     9.2519                 1.1855                 1.4285
 IR Inten    --     1.1099               100.6264                 6.0169
  Atom  AN      X      Y      Z        X      Y      Z        X      Y      Z
     1   8     0.00   0.00   0.00     0.00   0.00   0.00     0.00   0.00   0.00
     2   1     0.11  -0.07   0.17    -0.01   0.65   0.01     0.03   0.76  -0.04
     3   8     0.00   0.00   0.00     0.00   0.00   0.00     0.00   0.00   0.00
     4   8     0.08   0.67   0.01     0.01  -0.05   0.03     0.05  -0.01  -0.01
     5   8    -0.09  -0.66  -0.04    -0.01  -0.04  -0.04    -0.05   0.00   0.02
     6   1     0.04   0.02   0.21     0.03   0.75   0.12    -0.09  -0.63  -0.10
                    10                     11                     12
                     A                      A                      A
 Frequencies --  1766.1491              3816.9990              3839.4615
 Red. masses --    15.9192                 1.0672                 1.0686
 Frc consts  --    29.2568                 9.1613                 9.2814
 IR Inten    --     0.0257               157.1659                51.0259
  Atom  AN      X      Y      Z        X      Y      Z        X      Y      Z
     1   8     0.63   0.32   0.06     0.00   0.00   0.00     0.00   0.00   0.00
     2   1     0.00   0.07   0.00     0.98   0.03   0.15    -0.05   0.00  -0.01
     3   8    -0.63  -0.32  -0.06     0.00   0.00   0.00     0.00   0.00   0.00
     4   8     0.00   0.00   0.00    -0.06   0.00  -0.01     0.00   0.00   0.00
     5   8     0.00   0.00   0.00     0.00   0.00   0.00    -0.04  -0.01   0.05
     6   1     0.00  -0.01   0.00     0.03   0.01  -0.04     0.61   0.12  -0.78

 -------------------
 - Thermochemistry -
 -------------------
 Temperature   298.150 Kelvin.  Pressure   1.00000 Atm.
 Atom     1 has atomic number  8 and mass  15.99491
 Atom     2 has atomic number  1 and mass   1.00783
 Atom     3 has atomic number  8 and mass  15.99491
 Atom     4 has atomic number  8 and mass  15.99491
 Atom     5 has atomic number  8 and mass  15.99491
 Atom     6 has atomic number  1 and mass   1.00783
 Molecular mass:    65.99531 amu.
 Principal axes and moments of inertia in atomic units:
                           1         2         3
     Eigenvalues --    73.79402 712.42076 781.65276
           X            0.99994   0.00682  -0.00854
           Y           -0.00700   0.99974  -0.02177
           Z            0.00839   0.02182   0.99973
 This molecule is an asymmetric top.
 Rotational symmetry number  1.
 Rotational temperatures (Kelvin)      1.17372     0.12158     0.11081
 Rotational constants (GHZ):          24.45647     2.53325     2.30888
    1 imaginary frequencies ignored.
 Zero-point vibrational energy      85390.7 (Joules/Mol)
                                   20.40887 (Kcal/Mol)
 Warning -- explicit consideration of   5 degrees of freedom as
           vibrations may cause significant error
 Vibrational temperatures:     95.89   131.12   239.03   309.75   628.16
          (Kelvin)           1493.56  1943.92  2141.81  2541.09  5491.80
                             5524.12
 
 Zero-point correction=                           0.032524 (Hartree/Particle)
 Thermal correction to Energy=                    0.038384
 Thermal correction to Enthalpy=                  0.039329
 Thermal correction to Gibbs Free Energy=         0.002734
 Sum of electronic and zero-point Energies=           -301.664859
 Sum of electronic and thermal Energies=              -301.658998
 Sum of electronic and thermal Enthalpies=            -301.658054
 Sum of electronic and thermal Free Energies=         -301.694648
 
                     E (Thermal)             CV                S
                      KCal/Mol        Cal/Mol-Kelvin    Cal/Mol-Kelvin
 Total                   24.087             15.548             77.020
 Electronic               0.000              0.000              0.000
 Translational            0.889              2.981             38.479
 Rotational               0.889              2.981             25.222
 Vibrational             22.309              9.587             13.319
 Vibration     1          0.598              1.970              4.250
 Vibration     2          0.602              1.955              3.636
 Vibration     3          0.624              1.884              2.479
 Vibration     4          0.645              1.818              1.998
 Vibration     5          0.797              1.390              0.837
                       Q            Log10(Q)             Ln(Q)
 Total Bot       0.552726D-01         -1.257490         -2.895478
 Total V=0       0.503845D+14         13.702297         31.550705
 Vib (Bot)       0.361454D-13        -13.441947        -30.951227
 Vib (Bot)    1  0.309591D+01          0.490788          1.130082
 Vib (Bot)    2  0.225566D+01          0.353273          0.813441
 Vib (Bot)    3  0.121453D+01          0.084409          0.194359
 Vib (Bot)    4  0.920590D+00         -0.035934         -0.082740
 Vib (Bot)    5  0.397024D+00         -0.401183         -0.923759
 Vib (V=0)       0.329488D+02          1.517840          3.494956
 Vib (V=0)    1  0.363602D+01          0.560627          1.290891
 Vib (V=0)    2  0.281041D+01          0.448770          1.033330
 Vib (V=0)    3  0.181343D+01          0.258500          0.595218
 Vib (V=0)    4  0.154761D+01          0.189662          0.436712
 Vib (V=0)    5  0.113846D+01          0.056317          0.129674
 Electronic      0.100000D+01          0.000000          0.000000
 Translational   0.210729D+08          7.323725         16.863500
 Rotational      0.725658D+05          4.860732         11.192250
 ***** Axes restored to original set *****
 -------------------------------------------------------------------
 Center     Atomic                   Forces (Hartrees/Bohr)
 Number     Number              X              Y              Z
 -------------------------------------------------------------------
      1        8          -0.000089285    0.000035241   -0.000067417
      2        1           0.000020346    0.000007175    0.000027203
      3        8           0.000122406   -0.000009549    0.000040875
      4        8          -0.000022337    0.000004630   -0.000022837
      5        8          -0.000009832   -0.000016378    0.000014528
      6        1          -0.000021298   -0.000021118    0.000007649
 -------------------------------------------------------------------
 Cartesian Forces:  Max     0.000122406 RMS     0.000043643

 GradGradGradGradGradGradGradGradGradGradGradGradGradGradGradGradGradGrad
 Berny optimization.
 Internal  Forces:  Max     0.000115922 RMS     0.000034749
 Search for a saddle point.
 Step number   1 out of a maximum of    2
 All quantities printed in internal units (Hartrees-Bohrs-Radians)
 Swaping is turned off.
 Second derivative matrix not updated -- analytic derivatives used.
 The second derivative matrix:
                          R1        R2        R3        R4        R5
           R1           0.00735
           R2           0.00090   0.94482
           R3           0.00372   0.00298   0.52442
           R4          -0.00095  -0.00109  -0.00565   0.36870
           R5          -0.00017  -0.00008  -0.00010  -0.00521   0.52860
           A1           0.00117  -0.00087   0.00142  -0.00148  -0.00064
           A2          -0.00274   0.00384   0.00608   0.07309   0.00088
           A3           0.00009  -0.00091   0.00055   0.07232  -0.00103
           A4           0.00310   0.00726   0.00544  -0.00174   0.00045
           A5          -0.00069   0.00029   0.00046  -0.00065   0.00028
           D1           0.00063  -0.00023  -0.00008  -0.00059  -0.00002
           D2          -0.00006   0.00048   0.00188  -0.00204   0.00232
                          A1        A2        A3        A4        A5
           A1           0.00403
           A2           0.00226   0.24755
           A3           0.00006   0.02100   0.22999
           A4           0.00583   0.00903  -0.00080   0.01008
           A5           0.00120   0.00103  -0.00074  -0.00015   0.00564
           D1          -0.00699   0.00137  -0.00035   0.00311   0.00032
           D2           0.00151   0.01011   0.00782   0.00057   0.00204
                          D1        D2
           D1          -0.00001
           D2          -0.00022   0.01141
     Eigenvalues ---   -0.00749   0.00457   0.00558   0.00793   0.01158
     Eigenvalues ---    0.01485   0.19612   0.22039   0.43051   0.52476
     Eigenvalues ---    0.52885   0.94492
 Eigenvectors required to have negative eigenvalues:
                          D1        A1        A4        A5        D2
   1                    0.71337   0.61260  -0.33089  -0.07440  -0.02427
                          R1        R2        A2        R3        R4
   1                   -0.01328   0.00328   0.00314   0.00205   0.00121
 Angle between quadratic step and forces=  77.14 degrees.
 Linear search not attempted -- option 19 set.
 Iteration  1 RMS(Cart)=  0.00073647 RMS(Int)=  0.00000018
 Iteration  2 RMS(Cart)=  0.00000014 RMS(Int)=  0.00000000
 Variable       Old X    -DE/DX   Delta X   Delta X   Delta X     New X
                                 (Linear)    (Quad)   (Total)
    R1        4.08018  -0.00001   0.00000  -0.00143  -0.00143   4.07875
    R2        2.26146   0.00012   0.00000   0.00013   0.00013   2.26159
    R3        1.83172   0.00002   0.00000   0.00006   0.00006   1.83178
    R4        2.69731   0.00000   0.00000   0.00002   0.00002   2.69733
    R5        1.82751   0.00000   0.00000   0.00000   0.00000   1.82751
    A1        2.07387   0.00000   0.00000  -0.00040  -0.00040   2.07347
    A2        1.75411  -0.00001   0.00000  -0.00005  -0.00005   1.75406
    A3        1.76662  -0.00001   0.00000  -0.00004  -0.00004   1.76659
    A4        2.50680  -0.00001   0.00000  -0.00051  -0.00051   2.50629
    A5        3.34626   0.00000   0.00000   0.00061   0.00061   3.34687
    D1       -3.04635   0.00000   0.00000  -0.00013  -0.00013  -3.04648
    D2        2.05493   0.00000   0.00000   0.00024   0.00024   2.05517
         Item               Value     Threshold  Converged?
 Maximum Force            0.000116     0.000450     YES
 RMS     Force            0.000035     0.000300     YES
 Maximum Displacement     0.001145     0.001800     YES
 RMS     Displacement     0.000737     0.001200     YES
 Predicted change in Energy=-2.293662D-08
 Optimization completed.
    -- Stationary point found.
                           ----------------------------
                           !   Optimized Parameters   !
                           ! (Angstroms and Degrees)  !
 --------------------------                            --------------------------
 ! Name  Definition              Value          Derivative Info.                !
 --------------------------------------------------------------------------------
 ! R1    R(1,2)                  2.1591         -DE/DX =    0.0                 !
 ! R2    R(1,3)                  1.1967         -DE/DX =    0.0001              !
 ! R3    R(2,4)                  0.9693         -DE/DX =    0.0                 !
 ! R4    R(4,5)                  1.4274         -DE/DX =    0.0                 !
 ! R5    R(5,6)                  0.9671         -DE/DX =    0.0                 !
 ! A1    A(2,1,3)              118.8243         -DE/DX =    0.0                 !
 ! A2    A(2,4,5)              100.5031         -DE/DX =    0.0                 !
 ! A3    A(4,5,6)              101.2199         -DE/DX =    0.0                 !
 ! A4    L(1,2,4,5,-1)         143.6288         -DE/DX =    0.0                 !
 ! A5    L(1,2,4,5,-2)         191.7268         -DE/DX =    0.0                 !
 ! D1    D(3,1,4,5)           -174.5429         -DE/DX =    0.0                 !
 ! D2    D(2,4,5,6)            117.739          -DE/DX =    0.0                 !
 --------------------------------------------------------------------------------
 GradGradGradGradGradGradGradGradGradGradGradGradGradGradGradGradGradGrad

 1|1|UNPC-DESKTOP-319GPER|Freq|RM062X|6-31+G(d,p)|H2O4|SAGAD|08-Feb-202
 1|0||#N Geom=AllCheck Guess=TCheck SCRF=Check GenChk RM062X/6-31+G(d,p
 ) Freq||ts3||0,1|O,-1.0759319355,-0.4878967428,0.1879589947|H,-1.08899
 78036,-0.2743572763,-1.9605546351|O,-0.0532175732,-0.7888766904,0.7316
 445703|O,-1.6883265227,-0.1861493718,-2.7172385244|O,-2.8799568112,0.2
 398976966,-2.0570488055|H,-3.0114533037,1.1131902748,-2.4511382099||Ve
 rsion=IA32W-G09RevA.02|State=1-A|HF=-301.6973824|RMSD=1.258e-010|RMSF=
 4.364e-005|ZeroPoint=0.0325236|Thermal=0.0383843|Dipole=0.377445,0.556
 2867,0.3559377|DipoleDeriv=0.0379527,-0.0099035,0.0511048,0.0070964,0.
 0126783,0.0058978,-0.053043,0.0248048,-0.0634432,0.2671655,0.0276721,0
 .0092875,0.0185252,0.3592726,-0.0468691,0.1039738,-0.0718522,0.3622138
 ,0.0081129,0.0048693,-0.0324153,-0.0055513,0.0060925,0.0045725,0.01366
 9,-0.0028911,-0.0038016,-0.3225035,-0.0068661,0.0124325,-0.0932768,-0.
 3830478,0.0962182,-0.060358,0.0810821,-0.2486064,-0.277915,-0.0202965,
 -0.108542,0.0832799,-0.2528454,-0.120475,-0.0870117,-0.090163,-0.34566
 77,0.2871874,0.0045246,0.0681325,-0.0100733,0.2578498,0.0606556,0.0827
 699,0.0590194,0.299305|Polar=26.0192297,-4.3524951,17.1147521,3.116475
 6,-1.277357,20.5093011|PG=C01 [X(H2O4)]|NImag=1||0.69083392,-0.2014434
 0,0.05996990,0.36445654,-0.11032725,0.20090452,-0.00085505,-0.00031397
 ,0.00071070,0.23903404,-0.00032580,-0.00104433,0.00063224,-0.04533607,
 0.01654388,-0.00138900,0.00078228,-0.00393857,0.22096765,-0.02455876,0
 .34380110,-0.69036741,0.20168192,-0.36577039,-0.00045393,0.00041653,0.
 00176901,0.69150898,0.20155604,-0.05955660,0.10986294,0.00050012,0.000
 20334,-0.00068758,-0.20216643,0.05961293,-0.36372523,0.10951732,-0.194
 03891,-0.00183962,0.00014379,0.00170958,0.36611006,-0.10989327,0.19435
 558,0.00003039,0.00021196,-0.00046635,-0.19811053,0.02921125,-0.257991
 85,-0.00061727,0.00027390,-0.00071712,0.44475932,0.00032936,0.00068281
 ,-0.00033518,0.03321258,-0.01001718,0.03604397,0.00005087,-0.00024694,
 0.00053195,-0.13384852,0.07465874,0.00086824,-0.00010347,-0.00411709,-
 0.19993226,0.01368313,-0.35259681,-0.00142870,0.00058224,-0.00120423,0
 .13572170,0.00779702,0.45040377,0.00036064,-0.00026817,0.00119377,-0.0
 3508868,0.01039645,0.03336418,-0.00010220,-0.00012146,0.00006734,-0.22
 328639,0.06276050,0.07715893,0.29056031,-0.00025095,-0.00004502,0.0002
 3391,0.01234756,-0.00557275,-0.01136007,0.00017241,-0.00007363,-0.0001
 8575,0.10329657,-0.06099311,-0.02429698,-0.14324380,0.49375773,-0.0001
 3922,0.00017043,0.00096791,-0.02097345,0.00951322,0.01276234,-0.000613
 68,0.00002046,-0.00068331,0.10383580,-0.01458872,-0.09574662,-0.090854
 04,-0.18334254,0.19422624,-0.00000248,0.00013166,-0.00012427,-0.004525
 85,0.00563763,0.00328001,0.00003183,-0.00004217,0.00010457,-0.02277551
 ,0.03749521,-0.01238791,-0.03244368,0.02767820,0.00874458,0.05971569,0
 .00013475,-0.00000675,-0.00006666,-0.00041021,-0.00011296,-0.00021982,
 -0.00015532,0.00006089,-0.00011405,0.00085484,-0.00408433,0.00233805,0
 .07047647,-0.42707323,0.18822716,-0.07090053,0.43121638,-0.00007134,-0
 .00003930,0.00022214,0.00106698,0.00058638,-0.00173764,-0.00006630,0.0
 0011522,-0.00013871,0.01961782,-0.02944904,0.00326098,-0.02093018,0.21
 895143,-0.11152656,0.00038302,-0.19016468,0.10991979||0.00008928,-0.00
 003524,0.00006742,-0.00002035,-0.00000717,-0.00002720,-0.00012241,0.00
 000955,-0.00004087,0.00002234,-0.00000463,0.00002284,0.00000983,0.0000
 1638,-0.00001453,0.00002130,0.00002112,-0.00000765|||@


 ART, GLORY, FREEDOM FAIL, BUT NATURE STILL IS FAIR.

                                           -- BYRON
 Job cpu time:  0 days  0 hours  0 minutes 20.0 seconds.
 File lengths (MBytes):  RWF=      9 Int=      0 D2E=      0 Chk=      1 Scr=      1
 Normal termination of Gaussian 09 at Mon Feb 08 06:50:40 2021.
