 Entering Link 1 = C:\G09W\l1.exe PID=      5892.
  
 Copyright (c) 1988,1990,1992,1993,1995,1998,2003,2009, Gaussian, Inc.
                  All Rights Reserved.
  
 This is part of the Gaussian(R) 09 program.  It is based on
 the Gaussian(R) 03 system (copyright 2003, Gaussian, Inc.),
 the Gaussian(R) 98 system (copyright 1998, Gaussian, Inc.),
 the Gaussian(R) 94 system (copyright 1995, Gaussian, Inc.),
 the Gaussian 92(TM) system (copyright 1992, Gaussian, Inc.),
 the Gaussian 90(TM) system (copyright 1990, Gaussian, Inc.),
 the Gaussian 88(TM) system (copyright 1988, Gaussian, Inc.),
 the Gaussian 86(TM) system (copyright 1986, Carnegie Mellon
 University), and the Gaussian 82(TM) system (copyright 1983,
 Carnegie Mellon University). Gaussian is a federally registered
 trademark of Gaussian, Inc.
  
 This software contains proprietary and confidential information,
 including trade secrets, belonging to Gaussian, Inc.
  
 This software is provided under written license and may be
 used, copied, transmitted, or stored only in accord with that
 written license.
  
 The following legend is applicable only to US Government
 contracts under FAR:
  
                    RESTRICTED RIGHTS LEGEND
  
 Use, reproduction and disclosure by the US Government is
 subject to restrictions as set forth in subparagraphs (a)
 and (c) of the Commercial Computer Software - Restricted
 Rights clause in FAR 52.227-19.
  
 Gaussian, Inc.
 340 Quinnipiac St., Bldg. 40, Wallingford CT 06492
  
  
 ---------------------------------------------------------------
 Warning -- This program may not be used in any manner that
 competes with the business of Gaussian, Inc. or will provide
 assistance to any competitor of Gaussian, Inc.  The licensee
 of this program is prohibited from giving any competitor of
 Gaussian, Inc. access to this program.  By using this program,
 the user acknowledges that Gaussian, Inc. is engaged in the
 business of creating and licensing software in the field of
 computational chemistry and represents and warrants to the
 licensee that it is not a competitor of Gaussian, Inc. and that
 it will not use this program in any manner prohibited above.
 ---------------------------------------------------------------
  

 Cite this work as:
 Gaussian 09, Revision A.02,
 M. J. Frisch, G. W. Trucks, H. B. Schlegel, G. E. Scuseria, 
 M. A. Robb, J. R. Cheeseman, G. Scalmani, V. Barone, B. Mennucci, 
 G. A. Petersson, H. Nakatsuji, M. Caricato, X. Li, H. P. Hratchian, 
 A. F. Izmaylov, J. Bloino, G. Zheng, J. L. Sonnenberg, M. Hada, 
 M. Ehara, K. Toyota, R. Fukuda, J. Hasegawa, M. Ishida, T. Nakajima, 
 Y. Honda, O. Kitao, H. Nakai, T. Vreven, J. A. Montgomery, Jr., 
 J. E. Peralta, F. Ogliaro, M. Bearpark, J. J. Heyd, E. Brothers, 
 K. N. Kudin, V. N. Staroverov, R. Kobayashi, J. Normand, 
 K. Raghavachari, A. Rendell, J. C. Burant, S. S. Iyengar, J. Tomasi, 
 M. Cossi, N. Rega, J. M. Millam, M. Klene, J. E. Knox, J. B. Cross, 
 V. Bakken, C. Adamo, J. Jaramillo, R. Gomperts, R. E. Stratmann, 
 O. Yazyev, A. J. Austin, R. Cammi, C. Pomelli, J. W. Ochterski, 
 R. L. Martin, K. Morokuma, V. G. Zakrzewski, G. A. Voth, 
 P. Salvador, J. J. Dannenberg, S. Dapprich, A. D. Daniels, 
 O. Farkas, J. B. Foresman, J. V. Ortiz, J. Cioslowski, 
 and D. J. Fox, Gaussian, Inc., Wallingford CT, 2009.
 
 ******************************************
 Gaussian 09:  IA32W-G09RevA.02 11-Jun-2009
                09-Feb-2021 
 ******************************************
 %chk=D:\Documents\rayGit\FQ\quimicaComputacional\proyecto\decompositionHydrogenP
 eroxide\descompositionByRadicals\gasPhase\step4\ts\Q2ST\ts\martes\top\backup\r\r
 3\ts.chk
 %mem=1500MB
 %nprocshared=4
 Will use up to    4 processors via shared memory.
 ----------------------------------------------------------------------
 # opt=(calcfc,ts,noeigen,maxcycles=100) freq=noraman 6-31+g(d,p) m062x
 ----------------------------------------------------------------------
 1/5=1,6=100,10=4,11=1,14=-1,18=20,26=3,38=1/1,3;
 2/9=110,12=2,17=6,18=5,40=1/2;
 3/5=1,6=6,7=111,11=2,16=1,25=1,30=1,71=2,74=-55/1,2,3;
 4//1;
 5/5=2,38=5/2;
 8/6=4,10=90,11=11/1;
 11/6=1,8=1,9=11,15=111,16=1/1,2,10;
 10/6=1,7=6,13=1/2;
 6/7=2,8=2,9=2,10=2,28=1/1;
 7/10=1,18=20,25=1/1,2,3,16;
 1/5=1,6=100,10=4,11=1,14=-1,18=20/3(2);
 2/9=110/2;
 99//99;
 2/9=110/2;
 3/5=1,6=6,7=111,11=2,16=1,25=1,30=1,71=1,74=-55/1,2,3;
 4/5=5,16=3/1;
 5/5=2,38=5/2;
 7//1,2,3,16;
 1/5=1,6=100,11=1,14=-1,18=20/3(-5);
 2/9=110/2;
 6/7=2,8=2,9=2,10=2,19=2,28=1/1;
 99/9=1/99;
 ------------
 ts OOH vs OH
 ------------
 Symbolic Z-matrix:
 Charge =  0 Multiplicity = 1
 O                    -2.42784   1.18873   0. 
 O                    -1.16932   0.7906    0. 
 H                     0.01113   0.85092   0. 
 O                     0.6296   -0.17743   0. 
 H                     0.83929  -1.08405   0. 
 

 GradGradGradGradGradGradGradGradGradGradGradGradGradGradGradGradGradGrad
 Berny optimization.
 Initialization pass.
                           ----------------------------
                           !    Initial Parameters    !
                           ! (Angstroms and Degrees)  !
 --------------------------                            --------------------------
 ! Name  Definition              Value          Derivative Info.                !
 --------------------------------------------------------------------------------
 ! R1    R(1,2)                  1.32           calculate D2E/DX2 analytically  !
 ! R2    R(2,3)                  1.182          calculate D2E/DX2 analytically  !
 ! R3    R(3,4)                  1.2            calculate D2E/DX2 analytically  !
 ! R4    R(4,5)                  0.9306         calculate D2E/DX2 analytically  !
 ! A1    A(1,2,3)              159.5204         calculate D2E/DX2 analytically  !
 ! A2    A(2,3,4)              118.0982         calculate D2E/DX2 analytically  !
 ! A3    A(3,4,5)              162.0            calculate D2E/DX2 analytically  !
 ! D1    D(1,2,3,4)            180.0            calculate D2E/DX2 analytically  !
 ! D2    D(2,3,4,5)              0.0            calculate D2E/DX2 analytically  !
 --------------------------------------------------------------------------------
 Trust Radius=3.00D-01 FncErr=1.00D-07 GrdErr=1.00D-06
 Number of steps in this run= 100 maximum allowed number of steps= 100.
 Search for a saddle point of order  1.
 GradGradGradGradGradGradGradGradGradGradGradGradGradGradGradGradGradGrad

                          Input orientation:                          
 ---------------------------------------------------------------------
 Center     Atomic      Atomic             Coordinates (Angstroms)
 Number     Number       Type             X           Y           Z
 ---------------------------------------------------------------------
      1          8           0       -2.427845    1.188726    0.000000
      2          8           0       -1.169316    0.790598    0.000000
      3          1           0        0.011132    0.850916    0.000000
      4          8           0        0.629596   -0.177433    0.000000
      5          1           0        0.839294   -1.084050    0.000000
 ---------------------------------------------------------------------
                    Distance matrix (angstroms):
                    1          2          3          4          5
     1  O    0.000000
     2  O    1.320000   0.000000
     3  H    2.462260   1.181988   0.000000
     4  O    3.348781   2.042834   1.200000   0.000000
     5  H    3.979913   2.747512   2.104744   0.930553   0.000000
 Stoichiometry    H2O3
 Framework group  CS[SG(H2O3)]
 Deg. of freedom     7
 Full point group                 CS      NOp   2
 Largest Abelian subgroup         CS      NOp   2
 Largest concise Abelian subgroup C1      NOp   1
                         Standard orientation:                         
 ---------------------------------------------------------------------
 Center     Atomic      Atomic             Coordinates (Angstroms)
 Number     Number       Type             X           Y           Z
 ---------------------------------------------------------------------
      1          8           0       -0.510628    1.596142    0.000000
      2          8           0        0.000000    0.378908    0.000000
      3          1           0        0.809692   -0.482193    0.000000
      4          8           0        0.425665   -1.619086    0.000000
      5          1           0       -0.129991   -2.365527    0.000000
 ---------------------------------------------------------------------
 Rotational constants (GHZ):    407.1670559      5.2001018      5.1345266
 Standard basis: 6-31+G(d,p) (6D, 7F)
 There are    50 symmetry adapted basis functions of A'  symmetry.
 There are    17 symmetry adapted basis functions of A"  symmetry.
 Integral buffers will be    262144 words long.
 Raffenetti 2 integral format.
 Two-electron integral symmetry is turned on.
    67 basis functions,   110 primitive gaussians,    67 cartesian basis functions
    13 alpha electrons       13 beta electrons
       nuclear repulsion energy        68.5830912721 Hartrees.
 NAtoms=    5 NActive=    5 NUniq=    5 SFac= 7.50D-01 NAtFMM=   80 NAOKFM=F Big=F
 One-electron integrals computed using PRISM.
 NBasis=    67 RedAO= T  NBF=    50    17
 NBsUse=    67 1.00D-06 NBFU=    50    17
 Harris functional with IExCor= 1009 diagonalized for initial guess.
 ExpMin= 8.45D-02 ExpMax= 5.48D+03 ExpMxC= 8.25D+02 IAcc=2 IRadAn=         0 AccDes= 0.00D+00
 HarFok:  IExCor= 1009 AccDes= 0.00D+00 IRadAn=         0 IDoV= 1
 ScaDFX=  1.000000  1.000000  1.000000  1.000000
 FoFCou: FMM=F IPFlag=           0 FMFlag=      100000 FMFlg1=           0
         NFxFlg=           0 DoJE=T BraDBF=F KetDBF=T FulRan=T
         Omega=  0.000000  0.000000  1.000000  0.000000  0.000000 ICntrl=     500 IOpCl=  0
         NMat0=    1 NMatS0=    1 NMatT0=    0 NMatD0=    1 NMtDS0=    0 NMtDT0=    0
         I1Cent=           4 NGrid=           0.
 Petite list used in FoFCou.
 Initial guess orbital symmetries:
       Occupied  (A') (A') (A') (A') (A') (A') (A') (A') (A') (A")
                 (A") (A') (A')
       Virtual   (A") (A') (A') (A') (A') (A") (A') (A') (A') (A")
                 (A') (A") (A') (A') (A') (A') (A') (A') (A") (A')
                 (A') (A") (A') (A') (A") (A') (A') (A') (A") (A')
                 (A") (A') (A") (A') (A') (A") (A') (A") (A') (A')
                 (A') (A") (A') (A") (A') (A') (A") (A') (A') (A')
                 (A') (A') (A') (A')
 The electronic state of the initial guess is 1-A'.
 Requested convergence on RMS density matrix=1.00D-08 within 128 cycles.
 Requested convergence on MAX density matrix=1.00D-06.
 Requested convergence on             energy=1.00D-06.
 No special actions if energy rises.
 Keep R1 ints in memory in canonical form, NReq=3551244.
 Integral accuracy reduced to 1.0D-05 until final iterations.
 Initial convergence to 1.0D-05 achieved.  Increase integral accuracy.
 SCF Done:  E(RM062X) =  -226.459707771     A.U. after   19 cycles
             Convg  =    0.8826D-08             -V/T =  2.0089
 Range of M.O.s used for correlation:     1    67
 NBasis=    67 NAE=    13 NBE=    13 NFC=     0 NFV=     0
 NROrb=     67 NOA=    13 NOB=    13 NVA=    54 NVB=    54

 **** Warning!!: The largest alpha MO coefficient is  0.32899858D+02

 Symmetrizing basis deriv contribution to polar:
 IMax=3 JMax=2 DiffMx= 0.00D+00
 G2DrvN: will do     6 centers at a time, making    1 passes doing MaxLOS=2.
 Calling FoFCou, ICntrl=  3107 FMM=F I1Cent=   0 AccDes= 0.00D+00.
 FoFDir/FoFCou used for L=0 through L=2.
 End of G2Drv Frequency-dependent properties file   721 does not exist.
 End of G2Drv Frequency-dependent properties file   722 does not exist.
          IDoAtm=11111
          Differentiating once with respect to nuclear coordinates.
          Keep R1 ints in memory in canonical form, NReq=3416970.
          There are    18 degrees of freedom in the 1st order CPHF.  IDoFFX=5.
     12 vectors produced by pass  0 Test12= 3.90D-11 5.56D-07 XBig12= 1.55D-01 3.15D-01.
 AX will form    12 AO Fock derivatives at one time.
     12 vectors produced by pass  1 Test12= 3.90D-11 5.56D-07 XBig12= 1.85D-02 9.62D-02.
     12 vectors produced by pass  2 Test12= 3.90D-11 5.56D-07 XBig12= 1.68D-03 1.56D-02.
     12 vectors produced by pass  3 Test12= 3.90D-11 5.56D-07 XBig12= 4.30D-05 1.29D-03.
     12 vectors produced by pass  4 Test12= 3.90D-11 5.56D-07 XBig12= 6.23D-07 1.59D-04.
      9 vectors produced by pass  5 Test12= 3.90D-11 5.56D-07 XBig12= 1.52D-09 9.97D-06.
      1 vectors produced by pass  6 Test12= 3.90D-11 5.56D-07 XBig12= 6.38D-12 9.84D-07.
 Inverted reduced A of dimension    70 with in-core refinement.
 End of Minotr Frequency-dependent properties file   721 does not exist.
 End of Minotr Frequency-dependent properties file   722 does not exist.

 **********************************************************************

            Population analysis using the SCF density.

 **********************************************************************

 Orbital symmetries:
       Occupied  (A') (A') (A') (A') (A') (A') (A') (A') (A") (A')
                 (A') (A") (A')
       Virtual   (A") (A') (A') (A') (A") (A') (A') (A') (A") (A')
                 (A') (A") (A') (A') (A') (A') (A') (A") (A') (A')
                 (A') (A") (A') (A') (A") (A') (A') (A') (A") (A')
                 (A') (A") (A") (A') (A') (A') (A") (A") (A') (A')
                 (A') (A") (A') (A") (A') (A') (A") (A') (A') (A')
                 (A') (A') (A') (A')
 The electronic state is 1-A'.
 Alpha  occ. eigenvalues --  -19.85242 -19.84363 -19.62005  -1.37220  -1.09582
 Alpha  occ. eigenvalues --   -1.00062  -0.71383  -0.61446  -0.58728  -0.54526
 Alpha  occ. eigenvalues --   -0.41715  -0.36044  -0.35723
 Alpha virt. eigenvalues --   -0.18994   0.04888   0.08267   0.11629   0.14079
 Alpha virt. eigenvalues --    0.15425   0.15788   0.18689   0.20678   0.22392
 Alpha virt. eigenvalues --    0.25225   0.26264   0.29802   0.37403   0.41692
 Alpha virt. eigenvalues --    0.47514   0.86042   1.07862   1.08106   1.12015
 Alpha virt. eigenvalues --    1.12428   1.13064   1.16635   1.22684   1.26114
 Alpha virt. eigenvalues --    1.26656   1.31560   1.38666   1.40164   1.55174
 Alpha virt. eigenvalues --    1.59104   1.59415   1.61472   1.62663   1.75953
 Alpha virt. eigenvalues --    1.81418   1.88059   1.89063   1.91802   2.04077
 Alpha virt. eigenvalues --    2.21519   2.21963   2.39747   2.56182   2.58685
 Alpha virt. eigenvalues --    2.67226   2.90942   2.91760   3.28249   3.46532
 Alpha virt. eigenvalues --    3.71961   3.78678   4.17623   4.56494
          Condensed to atoms (all electrons):
              1          2          3          4          5
     1  O    7.962178   0.226543  -0.014804  -0.057649  -0.001054
     2  O    0.226543   7.753299   0.071986  -0.080276   0.004400
     3  H   -0.014804   0.071986   0.239090   0.195526  -0.011194
     4  O   -0.057649  -0.080276   0.195526   8.462032   0.309827
     5  H   -0.001054   0.004400  -0.011194   0.309827   0.296790
 Mulliken atomic charges:
              1
     1  O   -0.115213
     2  O    0.024047
     3  H    0.519395
     4  O   -0.829460
     5  H    0.401231
 Sum of Mulliken atomic charges =   0.00000
 Mulliken charges with hydrogens summed into heavy atoms:
              1
     1  O   -0.115213
     2  O    0.543442
     4  O   -0.428228
 Sum of Mulliken charges with hydrogens summed into heavy atoms =   0.00000
 APT atomic charges:
              1
     1  O    0.259214
     2  O   -0.368230
     3  H    0.433242
     4  O   -1.121227
     5  H    0.797001
 Sum of APT charges=   0.00000
 APT Atomic charges with hydrogens summed into heavy atoms:
              1
     1  O    0.259214
     2  O    0.065012
     3  H    0.000000
     4  O   -0.324226
     5  H    0.000000
 Sum of APT charges=   0.00000
 Electronic spatial extent (au):  <R**2>=            226.1265
 Charge=              0.0000 electrons
 Dipole moment (field-independent basis, Debye):
    X=             -0.4672    Y=              0.9249    Z=              0.0000  Tot=              1.0362
 Quadrupole moment (field-independent basis, Debye-Ang):
   XX=            -17.8178   YY=            -16.5028   ZZ=            -17.4785
   XY=              3.1962   XZ=              0.0000   YZ=              0.0000
 Traceless Quadrupole moment (field-independent basis, Debye-Ang):
   XX=             -0.5514   YY=              0.7636   ZZ=             -0.2121
   XY=              3.1962   XZ=              0.0000   YZ=              0.0000
 Octapole moment (field-independent basis, Debye-Ang**2):
  XXX=             -0.6307  YYY=             -7.1727  ZZZ=              0.0000  XYY=             -9.2947
  XXY=              2.6950  XXZ=              0.0000  XZZ=             -0.9823  YZZ=              3.1806
  YYZ=              0.0000  XYZ=              0.0000
 Hexadecapole moment (field-independent basis, Debye-Ang**3):
 XXXX=            -32.5616 YYYY=           -173.1097 ZZZZ=            -14.9755 XXXY=             29.0262
 XXXZ=              0.0000 YYYX=             41.0840 YYYZ=              0.0000 ZZZX=              0.0000
 ZZZY=              0.0000 XXYY=            -45.1753 XXZZ=             -7.8749 YYZZ=            -38.3169
 XXYZ=              0.0000 YYXZ=              0.0000 ZZXY=              9.0162
 N-N= 6.858309127207D+01 E-N=-6.713484073377D+02  KE= 2.244600074779D+02
 Symmetry A'   KE= 2.158357756950D+02
 Symmetry A"   KE= 8.624231782950D+00
  Exact polarizability:   0.000   0.000   0.000   0.000   0.000   0.000
 Approx polarizability:  19.526 -22.436  94.037   0.000   0.000  12.884
 Calling FoFJK, ICntrl=    100147 FMM=F ISym2X=1 I1Cent= 0 IOpClX= 0 NMat=1 NMatS=1 NMatT=0.
 ***** Axes restored to original set *****
 -------------------------------------------------------------------
 Center     Atomic                   Forces (Hartrees/Bohr)
 Number     Number              X              Y              Z
 -------------------------------------------------------------------
      1        8           0.117909156   -0.012745963    0.000000000
      2        8          -0.189238814    0.017810606    0.000000000
      3        1           0.059663191   -0.066979184    0.000000000
      4        8           0.014816368    0.090214012    0.000000000
      5        1          -0.003149901   -0.028299471    0.000000000
 -------------------------------------------------------------------
 Cartesian Forces:  Max     0.189238814 RMS     0.067036486

 GradGradGradGradGradGradGradGradGradGradGradGradGradGradGradGradGradGrad
 Berny optimization.
 Internal  Forces:  Max     0.116269181 RMS     0.058971722
 Search for a saddle point.
 Step number   1 out of a maximum of  100
 All quantities printed in internal units (Hartrees-Bohrs-Radians)
 Swaping is turned off.
 Second derivative matrix not updated -- analytic derivatives used.
 The second derivative matrix:
                          R1        R2        R3        R4        A1
           R1           0.33834
           R2           0.04828   0.16235
           R3           0.00323   0.17273   0.12988
           R4          -0.00899   0.01004  -0.01519   0.69157
           A1          -0.00232  -0.06749   0.02646   0.00119   0.01277
           A2           0.04644   0.10938   0.10458   0.00634  -0.05098
           A3           0.01549   0.03157  -0.00429   0.00850   0.00867
           D1           0.00000   0.00000   0.00000   0.00000   0.00000
           D2           0.00000   0.00000   0.00000   0.00000   0.00000
                          A2        A3        D1        D2
           A2           0.22586
           A3           0.01003  -0.08974
           D1           0.00000   0.00000  -0.02779
           D2           0.00000   0.00000   0.00599  -0.00301
     Eigenvalues ---   -0.11152  -0.06144  -0.02916  -0.00164   0.05182
     Eigenvalues ---    0.11830   0.31440   0.46708   0.69238
 Eigenvectors required to have negative eigenvalues:
                          A3        R2        A1        R3        A2
   1                    0.77510  -0.37601  -0.36012   0.35128  -0.06677
                          R1        R4        D1        D2
   1                    0.01627   0.00439   0.00000   0.00000
 RFO step:  Lambda0=1.406855945D-02 Lambda=-1.12953673D-01.
 Linear search not attempted -- option 19 set.
 Maximum step size (   0.300) exceeded in Quadratic search.
    -- Step size scaled by   0.252
 Iteration  1 RMS(Cart)=  0.13276108 RMS(Int)=  0.01542981
 Iteration  2 RMS(Cart)=  0.01281497 RMS(Int)=  0.00023198
 Iteration  3 RMS(Cart)=  0.00015873 RMS(Int)=  0.00000007
 Iteration  4 RMS(Cart)=  0.00000007 RMS(Int)=  0.00000000
 ClnCor:  largest displacement from symmetrization is 5.52D-02 for atom     2.
 Variable       Old X    -DE/DX   Delta X   Delta X   Delta X     New X
                                 (Linear)    (Quad)   (Total)
    R1        2.49444  -0.11627   0.00000  -0.08662  -0.08814   2.40630
    R2        2.23363   0.07094   0.00000   0.08450   0.08347   2.31711
    R3        2.26767  -0.04702   0.00000  -0.11777  -0.11777   2.14990
    R4        1.75849   0.02689   0.00000   0.00172   0.00172   1.76021
    A1        2.78416  -0.05855   0.00000  -0.05183  -0.04668   2.73748
    A2        2.06120   0.07815   0.00000   0.06467   0.06503   2.12624
    A3        2.82743  -0.01669   0.00000   0.18647   0.18647   3.01391
    D1        3.14159   0.00000   0.00000  -0.13688   0.00000   3.14159
    D2        0.00000   0.00000   0.00000  -0.03327   0.00000   0.00000
         Item               Value     Threshold  Converged?
 Maximum Force            0.116269     0.000450     NO 
 RMS     Force            0.058972     0.000300     NO 
 Maximum Displacement     0.237205     0.001800     NO 
 RMS     Displacement     0.127543     0.001200     NO 
 Predicted change in Energy=-2.629525D-02
 GradGradGradGradGradGradGradGradGradGradGradGradGradGradGradGradGradGrad

                          Input orientation:                          
 ---------------------------------------------------------------------
 Center     Atomic      Atomic             Coordinates (Angstroms)
 Number     Number       Type             X           Y           Z
 ---------------------------------------------------------------------
      1          8           0       -2.409161    1.278423    0.000000
      2          8           0       -1.240381    0.773052    0.000000
      3          1           0       -0.014229    0.768147    0.000000
      4          8           0        0.581815   -0.200894    0.000000
      5          1           0        0.964817   -1.049969    0.000000
 ---------------------------------------------------------------------
                    Distance matrix (angstroms):
                    1          2          3          4          5
     1  O    0.000000
     2  O    1.273361   0.000000
     3  H    2.448689   1.226161   0.000000
     4  O    3.336812   2.066148   1.137677   0.000000
     5  H    4.099407   2.861172   2.064965   0.931461   0.000000
 Stoichiometry    H2O3
 Framework group  CS[SG(H2O3)]
 Deg. of freedom     7
 Full point group                 CS      NOp   2
 Largest Abelian subgroup         CS      NOp   2
 Largest concise Abelian subgroup C1      NOp   1
                         Standard orientation:                         
 ---------------------------------------------------------------------
 Center     Atomic      Atomic             Coordinates (Angstroms)
 Number     Number       Type             X           Y           Z
 ---------------------------------------------------------------------
      1          8           0       -0.207972    1.652379    0.000000
      2          8           0        0.000000    0.396117    0.000000
      3          1           0        0.659790   -0.637396    0.000000
      4          8           0        0.167827   -1.663204    0.000000
      5          1           0       -0.338631   -2.444945    0.000000
 ---------------------------------------------------------------------
 Rotational constants (GHZ):    676.0229468      5.1769157      5.1375727
 Standard basis: 6-31+G(d,p) (6D, 7F)
 There are    50 symmetry adapted basis functions of A'  symmetry.
 There are    17 symmetry adapted basis functions of A"  symmetry.
 Integral buffers will be    262144 words long.
 Raffenetti 2 integral format.
 Two-electron integral symmetry is turned on.
    67 basis functions,   110 primitive gaussians,    67 cartesian basis functions
    13 alpha electrons       13 beta electrons
       nuclear repulsion energy        69.3539888644 Hartrees.
 NAtoms=    5 NActive=    5 NUniq=    5 SFac= 7.50D-01 NAtFMM=   80 NAOKFM=F Big=F
 One-electron integrals computed using PRISM.
 NBasis=    67 RedAO= T  NBF=    50    17
 NBsUse=    67 1.00D-06 NBFU=    50    17
 Initial guess read from the read-write file.
 B after Tr=     0.000000    0.000000    0.000000
         Rot=    1.000000    0.000000    0.000000    0.000000 Ang=   0.00 deg.
 Initial guess orbital symmetries:
       Occupied  (A') (A') (A') (A') (A') (A') (A') (A') (A") (A')
                 (A') (A") (A')
       Virtual   (A") (A') (A') (A') (A") (A') (A') (A') (A") (A')
                 (A') (A") (A') (A') (A') (A') (A') (A") (A') (A')
                 (A') (A") (A') (A') (A") (A') (A') (A') (A") (A')
                 (A') (A") (A") (A') (A') (A') (A") (A") (A') (A')
                 (A') (A") (A') (A") (A') (A') (A") (A') (A') (A')
                 (A') (A') (A') (A')
 Harris functional with IExCor= 1009 diagonalized for initial guess.
 ExpMin= 8.45D-02 ExpMax= 5.48D+03 ExpMxC= 8.25D+02 IAcc=2 IRadAn=         0 AccDes= 0.00D+00
 HarFok:  IExCor= 1009 AccDes= 0.00D+00 IRadAn=         0 IDoV= 1
 ScaDFX=  1.000000  1.000000  1.000000  1.000000
 FoFCou: FMM=F IPFlag=           0 FMFlag=      100000 FMFlg1=           0
         NFxFlg=           0 DoJE=T BraDBF=F KetDBF=T FulRan=T
         Omega=  0.000000  0.000000  1.000000  0.000000  0.000000 ICntrl=     500 IOpCl=  0
         NMat0=    1 NMatS0=    1 NMatT0=    0 NMatD0=    1 NMtDS0=    0 NMtDT0=    0
         I1Cent=           4 NGrid=           0.
 Petite list used in FoFCou.
 Requested convergence on RMS density matrix=1.00D-08 within 128 cycles.
 Requested convergence on MAX density matrix=1.00D-06.
 Requested convergence on             energy=1.00D-06.
 No special actions if energy rises.
 Keep R1 ints in memory in canonical form, NReq=3551244.
 Integral accuracy reduced to 1.0D-05 until final iterations.
 Initial convergence to 1.0D-05 achieved.  Increase integral accuracy.
 SCF Done:  E(RM062X) =  -226.485801329     A.U. after   18 cycles
             Convg  =    0.8051D-08             -V/T =  2.0086
 Calling FoFJK, ICntrl=      2127 FMM=F ISym2X=1 I1Cent= 0 IOpClX= 0 NMat=1 NMatS=1 NMatT=0.
 ***** Axes restored to original set *****
 -------------------------------------------------------------------
 Center     Atomic                   Forces (Hartrees/Bohr)
 Number     Number              X              Y              Z
 -------------------------------------------------------------------
      1        8           0.088955236   -0.016879988    0.000000000
      2        8          -0.156171387    0.025416472    0.000000000
      3        1           0.065194280   -0.064306160    0.000000000
      4        8          -0.006784953    0.075025750    0.000000000
      5        1           0.008806823   -0.019256074    0.000000000
 -------------------------------------------------------------------
 Cartesian Forces:  Max     0.156171387 RMS     0.056416486

 GradGradGradGradGradGradGradGradGradGradGradGradGradGradGradGradGradGrad
 Berny optimization.
 Internal  Forces:  Max     0.088348204 RMS     0.049059927
 Search for a saddle point.
 Step number   2 out of a maximum of  100
 All quantities printed in internal units (Hartrees-Bohrs-Radians)
 Swaping is turned off.
 Update second derivatives using D2CorX and points    1    2
 The second derivative matrix:
                          R1        R2        R3        R4        A1
           R1           0.36202
           R2           0.04337   0.15850
           R3           0.02248   0.17218   0.14310
           R4          -0.00750   0.00919  -0.01359   0.69161
           A1           0.00217  -0.06619   0.02854   0.00173   0.01260
           A2           0.04093   0.10720   0.10245   0.00562  -0.05051
           A3           0.00250   0.02397  -0.00757   0.00653   0.01093
           D1           0.00000   0.00000   0.00000   0.00000   0.00000
           D2           0.00000   0.00000   0.00000   0.00000   0.00000
                          A2        A3        D1        D2
           A2           0.22487
           A3           0.00602  -0.10442
           D1           0.00000   0.00000  -0.02779
           D2           0.00000   0.00000   0.00599  -0.00301
     Eigenvalues ---   -0.11909  -0.06310  -0.02916  -0.00164   0.05419
     Eigenvalues ---    0.12431   0.32792   0.47180   0.69225
 Eigenvectors required to have negative eigenvalues:
                          A3        A1        R2        R3        A2
   1                    0.86410  -0.29867  -0.29722   0.27051  -0.04876
                          R1        R4        D1        D2
   1                    0.01520   0.00206   0.00000   0.00000
 RFO step:  Lambda0=4.179570207D-03 Lambda=-1.02434219D-01.
 Linear search not attempted -- option 19 set.
 Maximum step size (   0.300) exceeded in Quadratic search.
    -- Step size scaled by   0.271
 New curvilinear step failed, DQL= 3.12D+00 SP=-3.18D-02.
 New curvilinear step failed, DQL= 3.13D+00 SP=-3.66D-02.
 Iteration  1 RMS(Cart)=  0.08338607 RMS(Int)=  0.00570951
 Iteration  2 RMS(Cart)=  0.00493906 RMS(Int)=  0.00008360
 Iteration  3 RMS(Cart)=  0.00003580 RMS(Int)=  0.00000001
 Iteration  4 RMS(Cart)=  0.00000001 RMS(Int)=  0.00000000
 ClnCor:  largest displacement from symmetrization is 4.81D-02 for atom     2.
 Variable       Old X    -DE/DX   Delta X   Delta X   Delta X     New X
                                 (Linear)    (Quad)   (Total)
    R1        2.40630  -0.08835   0.00000  -0.06215  -0.05095   2.35535
    R2        2.31711   0.06726   0.00000   0.12665   0.10065   2.41776
    R3        2.14990  -0.04645   0.00000  -0.14594  -0.11676   2.03314
    R4        1.76021   0.02117   0.00000   0.00108   0.00086   1.76107
    A1        2.73748  -0.04764   0.00000  -0.00918  -0.00358   2.73390
    A2        2.12624   0.06676   0.00000   0.06182   0.04968   2.17592
    A3        3.01391   0.00021   0.00000   0.14833   0.11866   3.13257
    D1        3.14159   0.00000   0.00000  -0.14701   0.00000   3.14159
    D2        0.00000   0.00000   0.00000  -0.03573   0.00000   0.00000
         Item               Value     Threshold  Converged?
 Maximum Force            0.088348     0.000450     NO 
 RMS     Force            0.049060     0.000300     NO 
 Maximum Displacement     0.127105     0.001800     NO 
 RMS     Displacement     0.079957     0.001200     NO 
 Predicted change in Energy=-2.025226D-02
 GradGradGradGradGradGradGradGradGradGradGradGradGradGradGradGradGradGrad

                          Input orientation:                          
 ---------------------------------------------------------------------
 Center     Atomic      Atomic             Coordinates (Angstroms)
 Number     Number       Type             X           Y           Z
 ---------------------------------------------------------------------
      1          8           0       -2.403149    1.327710    0.000000
      2          8           0       -1.287824    0.771331    0.000000
      3          1           0       -0.010340    0.700956    0.000000
      4          8           0        0.552095   -0.216219    0.000000
      5          1           0        1.032079   -1.015021    0.000000
 ---------------------------------------------------------------------
                    Distance matrix (angstroms):
                    1          2          3          4          5
     1  O    0.000000
     2  O    1.246397   0.000000
     3  H    2.473531   1.279421   0.000000
     4  O    3.334244   2.088195   1.075892   0.000000
     5  H    4.158025   2.927969   2.007788   0.931917   0.000000
 Stoichiometry    H2O3
 Framework group  CS[SG(H2O3)]
 Deg. of freedom     7
 Full point group                 CS      NOp   2
 Largest Abelian subgroup         CS      NOp   2
 Largest concise Abelian subgroup C1      NOp   1
                         Standard orientation:                         
 ---------------------------------------------------------------------
 Center     Atomic      Atomic             Coordinates (Angstroms)
 Number     Number       Type             X           Y           Z
 ---------------------------------------------------------------------
      1          8           0       -0.064076    1.659714    0.000000
      2          8           0        0.000000    0.414965    0.000000
      3          1           0        0.566993   -0.731960    0.000000
      4          8           0        0.045009   -1.672744    0.000000
      5          1           0       -0.414457   -2.483522    0.000000
 ---------------------------------------------------------------------
 Rotational constants (GHZ):    933.0853173      5.1477071      5.1194637
 Standard basis: 6-31+G(d,p) (6D, 7F)
 There are    50 symmetry adapted basis functions of A'  symmetry.
 There are    17 symmetry adapted basis functions of A"  symmetry.
 Integral buffers will be    262144 words long.
 Raffenetti 2 integral format.
 Two-electron integral symmetry is turned on.
    67 basis functions,   110 primitive gaussians,    67 cartesian basis functions
    13 alpha electrons       13 beta electrons
       nuclear repulsion energy        69.7734804212 Hartrees.
 NAtoms=    5 NActive=    5 NUniq=    5 SFac= 7.50D-01 NAtFMM=   80 NAOKFM=F Big=F
 One-electron integrals computed using PRISM.
 NBasis=    67 RedAO= T  NBF=    50    17
 NBsUse=    67 1.00D-06 NBFU=    50    17
 Initial guess read from the read-write file.
 B after Tr=     0.000000    0.000000    0.000000
         Rot=    1.000000    0.000000    0.000000    0.000000 Ang=   0.00 deg.
 Initial guess orbital symmetries:
       Occupied  (A') (A') (A') (A') (A') (A') (A') (A') (A") (A')
                 (A') (A") (A')
       Virtual   (A") (A') (A') (A') (A") (A') (A') (A') (A") (A')
                 (A') (A") (A') (A') (A') (A') (A') (A") (A') (A')
                 (A") (A') (A') (A') (A") (A') (A') (A") (A') (A')
                 (A") (A') (A") (A') (A') (A') (A") (A") (A') (A')
                 (A") (A') (A') (A") (A') (A') (A') (A") (A') (A')
                 (A') (A') (A') (A')
 Harris functional with IExCor= 1009 diagonalized for initial guess.
 ExpMin= 8.45D-02 ExpMax= 5.48D+03 ExpMxC= 8.25D+02 IAcc=2 IRadAn=         0 AccDes= 0.00D+00
 HarFok:  IExCor= 1009 AccDes= 0.00D+00 IRadAn=         0 IDoV= 1
 ScaDFX=  1.000000  1.000000  1.000000  1.000000
 FoFCou: FMM=F IPFlag=           0 FMFlag=      100000 FMFlg1=           0
         NFxFlg=           0 DoJE=T BraDBF=F KetDBF=T FulRan=T
         Omega=  0.000000  0.000000  1.000000  0.000000  0.000000 ICntrl=     500 IOpCl=  0
         NMat0=    1 NMatS0=    1 NMatT0=    0 NMatD0=    1 NMtDS0=    0 NMtDT0=    0
         I1Cent=           4 NGrid=           0.
 Petite list used in FoFCou.
 Requested convergence on RMS density matrix=1.00D-08 within 128 cycles.
 Requested convergence on MAX density matrix=1.00D-06.
 Requested convergence on             energy=1.00D-06.
 No special actions if energy rises.
 Keep R1 ints in memory in canonical form, NReq=3551244.
 Integral accuracy reduced to 1.0D-05 until final iterations.
 Initial convergence to 1.0D-05 achieved.  Increase integral accuracy.
 SCF Done:  E(RM062X) =  -226.505357220     A.U. after   17 cycles
             Convg  =    0.7977D-08             -V/T =  2.0083
 Calling FoFJK, ICntrl=      2127 FMM=F ISym2X=1 I1Cent= 0 IOpClX= 0 NMat=1 NMatS=1 NMatT=0.
 ***** Axes restored to original set *****
 -------------------------------------------------------------------
 Center     Atomic                   Forces (Hartrees/Bohr)
 Number     Number              X              Y              Z
 -------------------------------------------------------------------
      1        8           0.065425322   -0.015111530    0.000000000
      2        8          -0.129992358    0.026902743    0.000000000
      3        1           0.064577143   -0.055194508    0.000000000
      4        8          -0.014374296    0.054931678    0.000000000
      5        1           0.014364189   -0.011528384    0.000000000
 -------------------------------------------------------------------
 Cartesian Forces:  Max     0.129992358 RMS     0.046840571

 GradGradGradGradGradGradGradGradGradGradGradGradGradGradGradGradGradGrad
 Berny optimization.
 Internal  Forces:  Max     0.065291319 RMS     0.040724151
 Search for a saddle point.
 Step number   3 out of a maximum of  100
 All quantities printed in internal units (Hartrees-Bohrs-Radians)
 Swaping is turned off.
 Update second derivatives using D2CorX and points    1    2    3
 The second derivative matrix:
                          R1        R2        R3        R4        A1
           R1           0.38799
           R2           0.03320   0.15283
           R3           0.06449   0.15869   0.21004
           R4          -0.00608   0.00809  -0.01113   0.69165
           A1           0.00160  -0.06425   0.02718   0.00180   0.01223
           A2           0.03364   0.10535   0.09206   0.00495  -0.04948
           A3          -0.00640   0.01296  -0.01769   0.00521   0.01387
           D1           0.00000   0.00000   0.00000   0.00000   0.00000
           D2           0.00000   0.00000   0.00000   0.00000   0.00000
                          A2        A3        D1        D2
           A2           0.22461
           A3           0.00139  -0.12349
           D1           0.00000   0.00000  -0.02779
           D2           0.00000   0.00000   0.00599  -0.00301
     Eigenvalues ---   -0.13139  -0.04512  -0.02916  -0.00164   0.06248
     Eigenvalues ---    0.14786   0.33537   0.49449   0.69218
 Eigenvectors required to have negative eigenvalues:
                          A3        A1        R2        R3        A2
   1                    0.95487  -0.20005  -0.16275   0.14565  -0.02157
                          R1        R4        D1        D2
   1                    0.00608  -0.00186   0.00000   0.00000
 RFO step:  Lambda0=1.325947208D-06 Lambda=-7.46451378D-02.
 Linear search not attempted -- option 19 set.
 Maximum step size (   0.300) exceeded in Quadratic search.
    -- Step size scaled by   0.284
 New curvilinear step failed, DQL= 3.12D+00 SP=-3.41D-02.
 New curvilinear step failed, DQL= 3.12D+00 SP=-4.34D-02.
 New curvilinear step failed, DQL= 3.12D+00 SP=-5.27D-02.
 New curvilinear step failed, DQL= 3.12D+00 SP=-6.19D-02.
 New curvilinear step failed, DQL= 3.13D+00 SP=-7.10D-02.
 New curvilinear step failed, DQL= 3.13D+00 SP=-8.00D-02.
 New curvilinear step failed, DQL= 3.13D+00 SP=-8.89D-02.
 New curvilinear step failed, DQL= 3.13D+00 SP=-9.77D-02.
 New curvilinear step failed, DQL= 3.14D+00 SP=-1.06D-01.
 Iteration  1 RMS(Cart)=  0.00703988 RMS(Int)=  0.00019226
 Iteration  2 RMS(Cart)=  0.00006395 RMS(Int)=  0.00000107
 Iteration  3 RMS(Cart)=  0.00000071 RMS(Int)=  0.00000000
 ClnCor:  largest displacement from symmetrization is 6.10D-03 for atom     2.
 Variable       Old X    -DE/DX   Delta X   Delta X   Delta X     New X
                                 (Linear)    (Quad)   (Total)
    R1        2.35535  -0.06529   0.00000  -0.03558  -0.00358   2.35177
    R2        2.41776   0.06509   0.00000   0.17672   0.01766   2.43542
    R3        2.03314  -0.03698   0.00000  -0.14467  -0.01447   2.01867
    R4        1.76107   0.01729   0.00000   0.00124   0.00012   1.76119
    A1        2.73390  -0.03707   0.00000   0.06636   0.00670   2.74060
    A2        2.17592   0.05712   0.00000   0.05087   0.00509   2.18101
    A3        3.13257   0.01115   0.00000   0.06652   0.00665   3.13922
    D1        3.14159   0.00000   0.00000  -0.15412   0.00000   3.14159
    D2        0.00000   0.00000   0.00000  -0.03746   0.00000   0.00000
         Item               Value     Threshold  Converged?
 Maximum Force            0.065291     0.000450     NO 
 RMS     Force            0.040724     0.000300     NO 
 Maximum Displacement     0.011691     0.001800     NO 
 RMS     Displacement     0.006646     0.001200     NO 
 Predicted change in Energy=-2.033256D-03
 GradGradGradGradGradGradGradGradGradGradGradGradGradGradGradGradGradGrad

                          Input orientation:                          
 ---------------------------------------------------------------------
 Center     Atomic      Atomic             Coordinates (Angstroms)
 Number     Number       Type             X           Y           Z
 ---------------------------------------------------------------------
      1          8           0       -2.405773    1.329672    0.000000
      2          8           0       -1.292111    0.774202    0.000000
      3          1           0       -0.005794    0.694770    0.000000
      4          8           0        0.551226   -0.216744    0.000000
      5          1           0        1.035313   -1.013142    0.000000
 ---------------------------------------------------------------------
                    Distance matrix (angstroms):
                    1          2          3          4          5
     1  O    0.000000
     2  O    1.244504   0.000000
     3  H    2.482538   1.288767   0.000000
     4  O    3.336951   2.092813   1.068236   0.000000
     5  H    4.162913   2.934536   2.000217   0.931982   0.000000
 Stoichiometry    H2O3
 Framework group  CS[SG(H2O3)]
 Deg. of freedom     7
 Full point group                 CS      NOp   2
 Largest Abelian subgroup         CS      NOp   2
 Largest concise Abelian subgroup C1      NOp   1
                         Standard orientation:                         
 ---------------------------------------------------------------------
 Center     Atomic      Atomic             Coordinates (Angstroms)
 Number     Number       Type             X           Y           Z
 ---------------------------------------------------------------------
      1          8           0       -0.065274    1.660506    0.000000
      2          8           0        0.000000    0.417716    0.000000
      3          1           0        0.564593   -0.740798    0.000000
      4          8           0        0.045795   -1.674596    0.000000
      5          1           0       -0.408759   -2.488212    0.000000
 ---------------------------------------------------------------------
 Rotational constants (GHZ):    945.4284785      5.1364095      5.1086547
 Standard basis: 6-31+G(d,p) (6D, 7F)
 There are    50 symmetry adapted basis functions of A'  symmetry.
 There are    17 symmetry adapted basis functions of A"  symmetry.
 Integral buffers will be    262144 words long.
 Raffenetti 2 integral format.
 Two-electron integral symmetry is turned on.
    67 basis functions,   110 primitive gaussians,    67 cartesian basis functions
    13 alpha electrons       13 beta electrons
       nuclear repulsion energy        69.7650415310 Hartrees.
 NAtoms=    5 NActive=    5 NUniq=    5 SFac= 7.50D-01 NAtFMM=   80 NAOKFM=F Big=F
 One-electron integrals computed using PRISM.
 NBasis=    67 RedAO= T  NBF=    50    17
 NBsUse=    67 1.00D-06 NBFU=    50    17
 Initial guess read from the read-write file.
 B after Tr=     0.000000    0.000000    0.000000
         Rot=    1.000000    0.000000    0.000000    0.000000 Ang=   0.00 deg.
 Initial guess orbital symmetries:
       Occupied  (A') (A') (A') (A') (A') (A') (A') (A') (A") (A')
                 (A') (A") (A')
       Virtual   (A") (A') (A') (A') (A") (A') (A') (A') (A") (A')
                 (A') (A") (A') (A') (A') (A') (A') (A') (A") (A')
                 (A") (A') (A') (A') (A") (A') (A') (A") (A') (A')
                 (A") (A') (A") (A') (A') (A') (A") (A") (A') (A')
                 (A") (A') (A') (A") (A') (A') (A') (A") (A') (A')
                 (A') (A') (A') (A')
 Requested convergence on RMS density matrix=1.00D-08 within 128 cycles.
 Requested convergence on MAX density matrix=1.00D-06.
 Requested convergence on             energy=1.00D-06.
 No special actions if energy rises.
 Keep R1 ints in memory in canonical form, NReq=3551244.
 SCF Done:  E(RM062X) =  -226.507379650     A.U. after   11 cycles
             Convg  =    0.2419D-08             -V/T =  2.0082
 Calling FoFJK, ICntrl=      2127 FMM=F ISym2X=1 I1Cent= 0 IOpClX= 0 NMat=1 NMatS=1 NMatT=0.
 ***** Axes restored to original set *****
 -------------------------------------------------------------------
 Center     Atomic                   Forces (Hartrees/Bohr)
 Number     Number              X              Y              Z
 -------------------------------------------------------------------
      1        8           0.063715612   -0.014770672    0.000000000
      2        8          -0.127551688    0.026873150    0.000000000
      3        1           0.063711006   -0.054101428    0.000000000
      4        8          -0.014264179    0.052864158    0.000000000
      5        1           0.014389249   -0.010865207    0.000000000
 -------------------------------------------------------------------
 Cartesian Forces:  Max     0.127551688 RMS     0.045882965

 GradGradGradGradGradGradGradGradGradGradGradGradGradGradGradGradGradGrad
 Berny optimization.
 Internal  Forces:  Max     0.064429971 RMS     0.039874601
 Search for a saddle point.
 Step number   4 out of a maximum of  100
 All quantities printed in internal units (Hartrees-Bohrs-Radians)
 Swaping is turned off.
 Update second derivatives using D2CorX and points    1    2    3    4
 The second derivative matrix:
                          R1        R2        R3        R4        A1
           R1           0.38622
           R2           0.03218   0.14866
           R3           0.06957   0.13972   0.26741
           R4          -0.00638   0.00874  -0.01258   0.69169
           A1          -0.00168  -0.05860   0.00509   0.00220   0.01982
           A2           0.03441   0.10268   0.09014   0.00515  -0.04893
           A3          -0.00361   0.00532  -0.01116   0.00546   0.01088
           D1           0.00000   0.00000   0.00000   0.00000   0.00000
           D2           0.00000   0.00000   0.00000   0.00000   0.00000
                          A2        A3        D1        D2
           A2           0.22346
           A3          -0.00075  -0.12482
           D1           0.00000   0.00000  -0.02779
           D2           0.00000   0.00000   0.00599  -0.00301
     Eigenvalues ---   -0.12695  -0.02916  -0.01716  -0.00164   0.06598
     Eigenvalues ---    0.16248   0.33184   0.50389   0.69238
 Eigenvectors required to have negative eigenvalues:
                          A3        A1        R2        R3        A2
   1                    0.99090  -0.10391  -0.06605   0.05358  -0.00712
                          R4        R1        D1        D2
   1                   -0.00473   0.00392   0.00000   0.00000
 RFO step:  Lambda0=5.489899097D-04 Lambda=-5.97822461D-02.
 Linear search not attempted -- option 19 set.
 Maximum step size (   0.300) exceeded in Quadratic search.
    -- Step size scaled by   0.280
 Iteration  1 RMS(Cart)=  0.00580964 RMS(Int)=  0.08972729
 Iteration  2 RMS(Cart)=  0.00300219 RMS(Int)=  0.08446246
 Iteration  3 RMS(Cart)=  0.00251865 RMS(Int)=  0.08004168
 Iteration  4 RMS(Cart)=  0.00216034 RMS(Int)=  0.07624643
 Iteration  5 RMS(Cart)=  0.00188458 RMS(Int)=  0.07293273
 Iteration  6 RMS(Cart)=  0.00166652 RMS(Int)=  0.06999996
 Iteration  7 RMS(Cart)=  0.00149012 RMS(Int)=  0.06737553
 Iteration  8 RMS(Cart)=  0.00134464 RMS(Int)=  0.06500554
 Iteration  9 RMS(Cart)=  0.00122273 RMS(Int)=  0.06284888
 Iteration 10 RMS(Cart)=  0.00111918 RMS(Int)=  0.06087355
 Iteration 11 RMS(Cart)=  0.00103021 RMS(Int)=  0.05905410
 Iteration 12 RMS(Cart)=  0.00095301 RMS(Int)=  0.05737001
 Iteration 13 RMS(Cart)=  0.00088542 RMS(Int)=  0.05580448
 Iteration 14 RMS(Cart)=  0.00082579 RMS(Int)=  0.05434359
 Iteration 15 RMS(Cart)=  0.00077283 RMS(Int)=  0.05297571
 Iteration 16 RMS(Cart)=  0.00072551 RMS(Int)=  0.05169098
 Iteration 17 RMS(Cart)=  0.00068298 RMS(Int)=  0.05048101
 Iteration 18 RMS(Cart)=  0.00064458 RMS(Int)=  0.04933858
 Iteration 19 RMS(Cart)=  0.00060975 RMS(Int)=  0.04825744
 Iteration 20 RMS(Cart)=  0.00057802 RMS(Int)=  0.04723216
 Iteration 21 RMS(Cart)=  0.00054901 RMS(Int)=  0.04625798
 Iteration 22 RMS(Cart)=  0.00052239 RMS(Int)=  0.04533069
 Iteration 23 RMS(Cart)=  0.00049789 RMS(Int)=  0.04444659
 Iteration 24 RMS(Cart)=  0.00047528 RMS(Int)=  0.04360237
 Iteration 25 RMS(Cart)=  0.00045434 RMS(Int)=  0.04279509
 Iteration 26 RMS(Cart)=  0.00043487 RMS(Int)=  0.04202217
 Iteration 27 RMS(Cart)=  0.00041680 RMS(Int)=  0.04128115
 Iteration 28 RMS(Cart)=  0.00039996 RMS(Int)=  0.04056987
 Iteration 29 RMS(Cart)=  0.00038422 RMS(Int)=  0.03988641
 Iteration 30 RMS(Cart)=  0.00036949 RMS(Int)=  0.03922897
 Iteration 31 RMS(Cart)=  0.00035567 RMS(Int)=  0.03859597
 Iteration 32 RMS(Cart)=  0.00034269 RMS(Int)=  0.03798592
 Iteration 33 RMS(Cart)=  0.00033047 RMS(Int)=  0.03739747
 Iteration 34 RMS(Cart)=  0.00031896 RMS(Int)=  0.03682941
 Iteration 35 RMS(Cart)=  0.00030809 RMS(Int)=  0.03628057
 Iteration 36 RMS(Cart)=  0.00029782 RMS(Int)=  0.03574992
 Iteration 37 RMS(Cart)=  0.00028810 RMS(Int)=  0.03523649
 Iteration 38 RMS(Cart)=  0.00027889 RMS(Int)=  0.03473938
 Iteration 39 RMS(Cart)=  0.00027015 RMS(Int)=  0.03425775
 Iteration 40 RMS(Cart)=  0.00026185 RMS(Int)=  0.03379083
 Iteration 41 RMS(Cart)=  0.00025395 RMS(Int)=  0.03333791
 Iteration 42 RMS(Cart)=  0.00024644 RMS(Int)=  0.03289831
 Iteration 43 RMS(Cart)=  0.00023928 RMS(Int)=  0.03247141
 Iteration 44 RMS(Cart)=  0.00023245 RMS(Int)=  0.03205662
 Iteration 45 RMS(Cart)=  0.00022594 RMS(Int)=  0.03165340
 Iteration 46 RMS(Cart)=  0.00021971 RMS(Int)=  0.03126122
 Iteration 47 RMS(Cart)=  0.00021376 RMS(Int)=  0.03087962
 Iteration 48 RMS(Cart)=  0.00020806 RMS(Int)=  0.03050813
 Iteration 49 RMS(Cart)=  0.00020260 RMS(Int)=  0.03014633
 Iteration 50 RMS(Cart)=  0.00019737 RMS(Int)=  0.02979382
 Iteration 51 RMS(Cart)=  0.00019235 RMS(Int)=  0.02945023
 Iteration 52 RMS(Cart)=  0.00018754 RMS(Int)=  0.02911519
 Iteration 53 RMS(Cart)=  0.00018291 RMS(Int)=  0.02878837
 Iteration 54 RMS(Cart)=  0.00017847 RMS(Int)=  0.02846945
 Iteration 55 RMS(Cart)=  0.00017420 RMS(Int)=  0.02815814
 Iteration 56 RMS(Cart)=  0.00017008 RMS(Int)=  0.02785413
 Iteration 57 RMS(Cart)=  0.00016612 RMS(Int)=  0.02755717
 Iteration 58 RMS(Cart)=  0.00016231 RMS(Int)=  0.02726699
 Iteration 59 RMS(Cart)=  0.00015863 RMS(Int)=  0.02698335
 Iteration 60 RMS(Cart)=  0.00015508 RMS(Int)=  0.02670603
 Iteration 61 RMS(Cart)=  0.00015166 RMS(Int)=  0.02643479
 Iteration 62 RMS(Cart)=  0.00014836 RMS(Int)=  0.02616944
 Iteration 63 RMS(Cart)=  0.00014517 RMS(Int)=  0.02590976
 Iteration 64 RMS(Cart)=  0.00014209 RMS(Int)=  0.02565557
 Iteration 65 RMS(Cart)=  0.00013911 RMS(Int)=  0.02540669
 Iteration 66 RMS(Cart)=  0.00013622 RMS(Int)=  0.02516294
 Iteration 67 RMS(Cart)=  0.00013343 RMS(Int)=  0.02492416
 Iteration 68 RMS(Cart)=  0.00013073 RMS(Int)=  0.02469019
 Iteration 69 RMS(Cart)=  0.00012812 RMS(Int)=  0.02446088
 Iteration 70 RMS(Cart)=  0.00012559 RMS(Int)=  0.02423608
 Iteration 71 RMS(Cart)=  0.00012313 RMS(Int)=  0.02401566
 Iteration 72 RMS(Cart)=  0.00012075 RMS(Int)=  0.02379948
 Iteration 73 RMS(Cart)=  0.00011844 RMS(Int)=  0.02358741
 Iteration 74 RMS(Cart)=  0.00011620 RMS(Int)=  0.02337933
 Iteration 75 RMS(Cart)=  0.00011403 RMS(Int)=  0.02317513
 Iteration 76 RMS(Cart)=  0.00011192 RMS(Int)=  0.02297469
 Iteration 77 RMS(Cart)=  0.00010987 RMS(Int)=  0.02277791
 Iteration 78 RMS(Cart)=  0.00010788 RMS(Int)=  0.02258468
 Iteration 79 RMS(Cart)=  0.00010594 RMS(Int)=  0.02239490
 Iteration 80 RMS(Cart)=  0.00010406 RMS(Int)=  0.02220847
 Iteration 81 RMS(Cart)=  0.00010223 RMS(Int)=  0.02202531
 Iteration 82 RMS(Cart)=  0.00010045 RMS(Int)=  0.02184533
 Iteration 83 RMS(Cart)=  0.00009872 RMS(Int)=  0.02166843
 Iteration 84 RMS(Cart)=  0.00009704 RMS(Int)=  0.02149454
 Iteration 85 RMS(Cart)=  0.00009540 RMS(Int)=  0.02132358
 Iteration 86 RMS(Cart)=  0.00009380 RMS(Int)=  0.02115547
 Iteration 87 RMS(Cart)=  0.00009224 RMS(Int)=  0.02099014
 Iteration 88 RMS(Cart)=  0.00009073 RMS(Int)=  0.02082751
 Iteration 89 RMS(Cart)=  0.00008925 RMS(Int)=  0.02066752
 Iteration 90 RMS(Cart)=  0.00008781 RMS(Int)=  0.02051011
 Iteration 91 RMS(Cart)=  0.00008641 RMS(Int)=  0.02035520
 Iteration 92 RMS(Cart)=  0.00008504 RMS(Int)=  0.02020273
 Iteration 93 RMS(Cart)=  0.00008370 RMS(Int)=  0.02005266
 Iteration 94 RMS(Cart)=  0.00008240 RMS(Int)=  0.01990491
 Iteration 95 RMS(Cart)=  0.00008113 RMS(Int)=  0.01975944
 Iteration 96 RMS(Cart)=  0.00007988 RMS(Int)=  0.01961618
 Iteration 97 RMS(Cart)=  0.00007867 RMS(Int)=  0.01947509
 Iteration 98 RMS(Cart)=  0.00007749 RMS(Int)=  0.01933612
 Iteration 99 RMS(Cart)=  0.00007633 RMS(Int)=  0.01919921
 Iteration100 RMS(Cart)=  0.00007520 RMS(Int)=  0.01906432
 New curvilinear step not converged.
 Iteration  1 RMS(Cart)=  0.00529083 RMS(Int)=  0.08066873
 Iteration  2 RMS(Cart)=  0.00413863 RMS(Int)=  0.07337222
 Iteration  3 RMS(Cart)=  0.00337866 RMS(Int)=  0.06741405
 Iteration  4 RMS(Cart)=  0.00284770 RMS(Int)=  0.06238951
 Iteration  5 RMS(Cart)=  0.00245777 RMS(Int)=  0.05805013
 Iteration  6 RMS(Cart)=  0.00216642 RMS(Int)=  0.05422232
 Iteration  7 RMS(Cart)=  0.00193440 RMS(Int)=  0.05080198
 Iteration  8 RMS(Cart)=  0.00175013 RMS(Int)=  0.04770521
 Iteration  9 RMS(Cart)=  0.00160196 RMS(Int)=  0.04486857
 Iteration 10 RMS(Cart)=  0.00148207 RMS(Int)=  0.04224231
 Iteration 11 RMS(Cart)=  0.00138477 RMS(Int)=  0.03978668
 Iteration 12 RMS(Cart)=  0.00130587 RMS(Int)=  0.03746925
 Iteration 13 RMS(Cart)=  0.00124228 RMS(Int)=  0.03526303
 Iteration 14 RMS(Cart)=  0.00119168 RMS(Int)=  0.03314507
 Iteration 15 RMS(Cart)=  0.00115233 RMS(Int)=  0.03109542
 Iteration 16 RMS(Cart)=  0.00112294 RMS(Int)=  0.02909644
 Iteration 17 RMS(Cart)=  0.00110252 RMS(Int)=  0.02713217
 Iteration 18 RMS(Cart)=  0.00109036 RMS(Int)=  0.02518786
 Iteration 19 RMS(Cart)=  0.00108599 RMS(Int)=  0.02324957
 Iteration 20 RMS(Cart)=  0.00108917 RMS(Int)=  0.02130371
 Iteration 21 RMS(Cart)=  0.00109994 RMS(Int)=  0.01933659
 Iteration 22 RMS(Cart)=  0.00111869 RMS(Int)=  0.01733379
 Iteration 23 RMS(Cart)=  0.00114644 RMS(Int)=  0.01527897
 Iteration 24 RMS(Cart)=  0.00118534 RMS(Int)=  0.01315189
 Iteration 25 RMS(Cart)=  0.00123907 RMS(Int)=  0.01092579
 Iteration 26 RMS(Cart)=  0.00131407 RMS(Int)=  0.00856280
 Iteration 27 RMS(Cart)=  0.00142117 RMS(Int)=  0.00600917
 Iteration 28 RMS(Cart)=  0.00158570 RMS(Int)=  0.00319496
 Iteration 29 RMS(Cart)=  0.00165700 RMS(Int)=  0.00075806
 Iteration 30 RMS(Cart)=  0.00020994 RMS(Int)=  0.00005816
 Iteration 31 RMS(Cart)=  0.00003440 RMS(Int)=  0.00000050
 Iteration 32 RMS(Cart)=  0.00000005 RMS(Int)=  0.00000000
 ClnCor:  largest displacement from symmetrization is 6.06D-02 for atom     2.
 Variable       Old X    -DE/DX   Delta X   Delta X   Delta X     New X
                                 (Linear)    (Quad)   (Total)
    R1        2.35177  -0.06361   0.00000  -0.03827  -0.03651   2.31526
    R2        2.43542   0.06443   0.00000   0.15736   0.14070   2.57611
    R3        2.01867  -0.03575   0.00000  -0.10406  -0.09365   1.92502
    R4        1.76119   0.01677   0.00000   0.00188   0.00169   1.76288
    A1        2.74060  -0.03592   0.00000   0.04339   0.04561   2.78621
    A2        2.18101   0.05593   0.00000   0.04402   0.03991   2.22091
    A3        3.13922   0.01164   0.00000   0.00258   0.00232   3.14154
    D1        3.14159   0.00000   0.00000   0.18929   0.00000   3.14159
    D2        0.00000   0.00000   0.00000  -0.11527   0.00000   0.00000
         Item               Value     Threshold  Converged?
 Maximum Force            0.064430     0.000450     NO 
 RMS     Force            0.039875     0.000300     NO 
 Maximum Displacement     0.071601     0.001800     NO 
 RMS     Displacement     0.044668     0.001200     NO 
 Predicted change in Energy=-1.433560D-02
 GradGradGradGradGradGradGradGradGradGradGradGradGradGradGradGradGradGrad

                          Input orientation:                          
 ---------------------------------------------------------------------
 Center     Atomic      Atomic             Coordinates (Angstroms)
 Number     Number       Type             X           Y           Z
 ---------------------------------------------------------------------
      1          8           0       -2.425667    1.337641    0.000000
      2          8           0       -1.326620    0.796190    0.000000
      3          1           0        0.029464    0.656880    0.000000
      4          8           0        0.559956   -0.212766    0.000000
      5          1           0        1.045728   -1.009187    0.000000
 ---------------------------------------------------------------------
                    Distance matrix (angstroms):
                    1          2          3          4          5
     1  O    0.000000
     2  O    1.225183   0.000000
     3  H    2.547764   1.363220   0.000000
     4  O    3.364180   2.139430   1.018678   0.000000
     5  H    4.190248   2.981177   1.951556   0.932878   0.000000
 Stoichiometry    H2O3
 Framework group  CS[SG(H2O3)]
 Deg. of freedom     7
 Full point group                 CS      NOp   2
 Largest Abelian subgroup         CS      NOp   2
 Largest concise Abelian subgroup C1      NOp   1
                         Standard orientation:                         
 ---------------------------------------------------------------------
 Center     Atomic      Atomic             Coordinates (Angstroms)
 Number     Number       Type             X           Y           Z
 ---------------------------------------------------------------------
      1          8           0       -0.070937    1.666505    0.000000
      2          8           0        0.000000    0.443377    0.000000
      3          1           0        0.547535   -0.805053    0.000000
      4          8           0        0.052585   -1.695407    0.000000
      5          1           0       -0.400717   -2.510746    0.000000
 ---------------------------------------------------------------------
 Rotational constants (GHZ):    984.7901458      5.0332996      5.0077051
 Standard basis: 6-31+G(d,p) (6D, 7F)
 There are    50 symmetry adapted basis functions of A'  symmetry.
 There are    17 symmetry adapted basis functions of A"  symmetry.
 Integral buffers will be    262144 words long.
 Raffenetti 2 integral format.
 Two-electron integral symmetry is turned on.
    67 basis functions,   110 primitive gaussians,    67 cartesian basis functions
    13 alpha electrons       13 beta electrons
       nuclear repulsion energy        69.7021898661 Hartrees.
 NAtoms=    5 NActive=    5 NUniq=    5 SFac= 7.50D-01 NAtFMM=   80 NAOKFM=F Big=F
 One-electron integrals computed using PRISM.
 NBasis=    67 RedAO= T  NBF=    50    17
 NBsUse=    67 1.00D-06 NBFU=    50    17
 Initial guess read from the read-write file.
 B after Tr=     0.000000    0.000000    0.000000
         Rot=    1.000000    0.000000    0.000000    0.000000 Ang=   0.00 deg.
 Initial guess orbital symmetries:
       Occupied  (A') (A') (A') (A') (A') (A') (A') (A') (A") (A')
                 (A') (A") (A')
       Virtual   (A") (A') (A') (A') (A") (A') (A') (A') (A") (A')
                 (A') (A") (A') (A') (A') (A') (A') (A') (A") (A')
                 (A") (A') (A') (A') (A") (A') (A') (A") (A') (A')
                 (A") (A') (A") (A') (A') (A') (A") (A") (A') (A')
                 (A") (A') (A') (A") (A') (A') (A') (A") (A') (A')
                 (A') (A') (A') (A')
 Harris functional with IExCor= 1009 diagonalized for initial guess.
 ExpMin= 8.45D-02 ExpMax= 5.48D+03 ExpMxC= 8.25D+02 IAcc=2 IRadAn=         0 AccDes= 0.00D+00
 HarFok:  IExCor= 1009 AccDes= 0.00D+00 IRadAn=         0 IDoV= 1
 ScaDFX=  1.000000  1.000000  1.000000  1.000000
 FoFCou: FMM=F IPFlag=           0 FMFlag=      100000 FMFlg1=           0
         NFxFlg=           0 DoJE=T BraDBF=F KetDBF=T FulRan=T
         Omega=  0.000000  0.000000  1.000000  0.000000  0.000000 ICntrl=     500 IOpCl=  0
         NMat0=    1 NMatS0=    1 NMatT0=    0 NMatD0=    1 NMtDS0=    0 NMtDT0=    0
         I1Cent=           4 NGrid=           0.
 Petite list used in FoFCou.
 Requested convergence on RMS density matrix=1.00D-08 within 128 cycles.
 Requested convergence on MAX density matrix=1.00D-06.
 Requested convergence on             energy=1.00D-06.
 No special actions if energy rises.
 Keep R1 ints in memory in canonical form, NReq=3551244.
 Integral accuracy reduced to 1.0D-05 until final iterations.
 Initial convergence to 1.0D-05 achieved.  Increase integral accuracy.
 SCF Done:  E(RM062X) =  -226.521415256     A.U. after   15 cycles
             Convg  =    0.5998D-08             -V/T =  2.0080
 Calling FoFJK, ICntrl=      2127 FMM=F ISym2X=1 I1Cent= 0 IOpClX= 0 NMat=1 NMatS=1 NMatT=0.
 ***** Axes restored to original set *****
 -------------------------------------------------------------------
 Center     Atomic                   Forces (Hartrees/Bohr)
 Number     Number              X              Y              Z
 -------------------------------------------------------------------
      1        8           0.042765744   -0.007551943    0.000000000
      2        8          -0.099182402    0.020336927    0.000000000
      3        1           0.052779686   -0.043039121    0.000000000
      4        8          -0.007782313    0.037849804    0.000000000
      5        1           0.011419284   -0.007595667    0.000000000
 -------------------------------------------------------------------
 Cartesian Forces:  Max     0.099182402 RMS     0.035077065

 GradGradGradGradGradGradGradGradGradGradGradGradGradGradGradGradGradGrad
 Berny optimization.
 Internal  Forces:  Max     0.057398406 RMS     0.031272793
 Search for a saddle point.
 Step number   5 out of a maximum of  100
 All quantities printed in internal units (Hartrees-Bohrs-Radians)
 Swaping is turned off.
 Update second derivatives using D2CorX and points    2    3    4    5
 The second derivative matrix:
                          R1        R2        R3        R4        A1
           R1           0.40555
           R2           0.01254   0.13062
           R3           0.10197   0.12785   0.31333
           R4          -0.00703   0.00910  -0.01370   0.69172
           A1          -0.01119  -0.05771  -0.00946   0.00261   0.02446
           A2           0.03069   0.09261   0.09309   0.00510  -0.05099
           A3          -0.00846   0.00238  -0.00870   0.00532   0.00879
           D1           0.00000   0.00000   0.00000   0.00000   0.00000
           D2           0.00000   0.00000   0.00000   0.00000   0.00000
                          A2        A3        D1        D2
           A2           0.21933
           A3          -0.00195  -0.12262
           D1           0.00000   0.00000  -0.02779
           D2           0.00000   0.00000   0.00599  -0.00301
     Eigenvalues ---   -0.12370  -0.02916  -0.00995  -0.00164   0.06519
     Eigenvalues ---    0.16767   0.33743   0.53303   0.69273
 Eigenvectors required to have negative eigenvalues:
                          A3        A1        R2        R3        R1
   1                    0.99613  -0.07270  -0.03900   0.02778   0.01006
                          R4        A2        D1        D2
   1                   -0.00526  -0.00297   0.00000   0.00000
 RFO step:  Lambda0=5.974864059D-04 Lambda=-4.05585442D-02.
 Linear search not attempted -- option 19 set.
 Maximum step size (   0.300) exceeded in Quadratic search.
    -- Step size scaled by   0.287
 SLEqS1 Cycle:    45 Max:0.538829E-03 RMS: 154.366     Conv:0.487937E-03
 Iteration  1 RMS(Cart)=  0.05558945 RMS(Int)=  0.01077736
 Iteration  2 RMS(Cart)=  0.00645495 RMS(Int)=  0.00064440
 Iteration  3 RMS(Cart)=  0.00010903 RMS(Int)=  0.00000024
 Iteration  4 RMS(Cart)=  0.00000006 RMS(Int)=  0.00000000
 ClnCor:  largest displacement from symmetrization is 6.58D-02 for atom     2.
 Variable       Old X    -DE/DX   Delta X   Delta X   Delta X     New X
                                 (Linear)    (Quad)   (Total)
    R1        2.31526  -0.04170   0.00000  -0.01332  -0.01581   2.29945
    R2        2.57611   0.05740   0.00000   0.16383   0.16281   2.73892
    R3        1.92502  -0.02391   0.00000  -0.08369  -0.08369   1.84133
    R4        1.76288   0.01244   0.00000   0.00073   0.00073   1.76361
    A1        2.78621  -0.02820   0.00000   0.05605   0.06521   2.85141
    A2        2.22091   0.04630   0.00000   0.03568   0.03599   2.25691
    A3        3.14154   0.01013   0.00000  -0.00690  -0.00690   3.13465
    D1        3.14159   0.00000   0.00000  -0.22591   0.00000   3.14159
    D2        0.00000   0.00000   0.00000  -0.02188   0.00000   0.00000
         Item               Value     Threshold  Converged?
 Maximum Force            0.057398     0.000450     NO 
 RMS     Force            0.031273     0.000300     NO 
 Maximum Displacement     0.085447     0.001800     NO 
 RMS     Displacement     0.054015     0.001200     NO 
 Predicted change in Energy=-1.077502D-02
 GradGradGradGradGradGradGradGradGradGradGradGradGradGradGradGradGradGrad

                          Input orientation:                          
 ---------------------------------------------------------------------
 Center     Atomic      Atomic             Coordinates (Angstroms)
 Number     Number       Type             X           Y           Z
 ---------------------------------------------------------------------
      1          8           0       -2.463943    1.341533    0.000000
      2          8           0       -1.359790    0.830168    0.000000
      3          1           0        0.074681    0.622840    0.000000
      4          8           0        0.577798   -0.211612    0.000000
      5          1           0        1.054116   -1.014171    0.000000
 ---------------------------------------------------------------------
                    Distance matrix (angstroms):
                    1          2          3          4          5
     1  O    0.000000
     2  O    1.216819   0.000000
     3  H    2.638396   1.449376   0.000000
     4  O    3.415326   2.199898   0.974391   0.000000
     5  H    4.233920   3.037849   1.907642   0.933263   0.000000
 Stoichiometry    H2O3
 Framework group  CS[SG(H2O3)]
 Deg. of freedom     7
 Full point group                 CS      NOp   2
 Largest Abelian subgroup         CS      NOp   2
 Largest concise Abelian subgroup C1      NOp   1
                         Standard orientation:                         
 ---------------------------------------------------------------------
 Center     Atomic      Atomic             Coordinates (Angstroms)
 Number     Number       Type             X           Y           Z
 ---------------------------------------------------------------------
      1          8           0       -0.128362    1.681415    0.000000
      2          8           0        0.000000    0.471386    0.000000
      3          1           0        0.558888   -0.865901    0.000000
      4          8           0        0.101329   -1.726178    0.000000
      5          1           0       -0.342630   -2.547080    0.000000
 ---------------------------------------------------------------------
 Rotational constants (GHZ):    956.5268915      4.8673335      4.8426912
 Standard basis: 6-31+G(d,p) (6D, 7F)
 There are    50 symmetry adapted basis functions of A'  symmetry.
 There are    17 symmetry adapted basis functions of A"  symmetry.
 Integral buffers will be    262144 words long.
 Raffenetti 2 integral format.
 Two-electron integral symmetry is turned on.
    67 basis functions,   110 primitive gaussians,    67 cartesian basis functions
    13 alpha electrons       13 beta electrons
       nuclear repulsion energy        69.2209938379 Hartrees.
 NAtoms=    5 NActive=    5 NUniq=    5 SFac= 7.50D-01 NAtFMM=   80 NAOKFM=F Big=F
 One-electron integrals computed using PRISM.
 NBasis=    67 RedAO= T  NBF=    50    17
 NBsUse=    67 1.00D-06 NBFU=    50    17
 Initial guess read from the read-write file.
 B after Tr=     0.000000    0.000000    0.000000
         Rot=    1.000000    0.000000    0.000000    0.000000 Ang=   0.00 deg.
 Initial guess orbital symmetries:
       Occupied  (A') (A') (A') (A') (A') (A') (A') (A') (A") (A')
                 (A') (A") (A')
       Virtual   (A") (A') (A') (A') (A") (A') (A') (A') (A") (A')
                 (A") (A') (A') (A') (A') (A') (A') (A') (A") (A')
                 (A') (A") (A') (A') (A") (A') (A') (A") (A') (A')
                 (A") (A') (A") (A') (A') (A') (A") (A") (A') (A')
                 (A") (A') (A') (A") (A') (A') (A') (A") (A') (A')
                 (A') (A') (A') (A')
 Harris functional with IExCor= 1009 diagonalized for initial guess.
 ExpMin= 8.45D-02 ExpMax= 5.48D+03 ExpMxC= 8.25D+02 IAcc=2 IRadAn=         0 AccDes= 0.00D+00
 HarFok:  IExCor= 1009 AccDes= 0.00D+00 IRadAn=         0 IDoV= 1
 ScaDFX=  1.000000  1.000000  1.000000  1.000000
 FoFCou: FMM=F IPFlag=           0 FMFlag=      100000 FMFlg1=           0
         NFxFlg=           0 DoJE=T BraDBF=F KetDBF=T FulRan=T
         Omega=  0.000000  0.000000  1.000000  0.000000  0.000000 ICntrl=     500 IOpCl=  0
         NMat0=    1 NMatS0=    1 NMatT0=    0 NMatD0=    1 NMtDS0=    0 NMtDT0=    0
         I1Cent=           4 NGrid=           0.
 Petite list used in FoFCou.
 Requested convergence on RMS density matrix=1.00D-08 within 128 cycles.
 Requested convergence on MAX density matrix=1.00D-06.
 Requested convergence on             energy=1.00D-06.
 No special actions if energy rises.
 Keep R1 ints in memory in canonical form, NReq=3551244.
 Integral accuracy reduced to 1.0D-05 until final iterations.
 Initial convergence to 1.0D-05 achieved.  Increase integral accuracy.
 SCF Done:  E(RM062X) =  -226.531717786     A.U. after   16 cycles
             Convg  =    0.3272D-08             -V/T =  2.0078
 Calling FoFJK, ICntrl=      2127 FMM=F ISym2X=1 I1Cent= 0 IOpClX= 0 NMat=1 NMatS=1 NMatT=0.
 ***** Axes restored to original set *****
 -------------------------------------------------------------------
 Center     Atomic                   Forces (Hartrees/Bohr)
 Number     Number              X              Y              Z
 -------------------------------------------------------------------
      1        8           0.032511570   -0.004871258    0.000000000
      2        8          -0.080024659    0.017188925    0.000000000
      3        1           0.036032193   -0.023717052    0.000000000
      4        8           0.003214111    0.017179160    0.000000000
      5        1           0.008266785   -0.005779776    0.000000000
 -------------------------------------------------------------------
 Cartesian Forces:  Max     0.080024659 RMS     0.025881980

 GradGradGradGradGradGradGradGradGradGradGradGradGradGradGradGradGradGrad
 Berny optimization.
 Internal  Forces:  Max     0.048774277 RMS     0.024244154
 Search for a saddle point.
 Step number   6 out of a maximum of  100
 All quantities printed in internal units (Hartrees-Bohrs-Radians)
 Swaping is turned off.
 Update second derivatives using D2CorX and points    2    3    4    5    6
 The second derivative matrix:
                          R1        R2        R3        R4        A1
           R1           0.39722
           R2           0.02521   0.10628
           R3           0.10441   0.08783   0.40193
           R4          -0.00643   0.00778  -0.01315   0.69168
           A1          -0.00801  -0.06033  -0.03545   0.00216   0.02792
           A2           0.03453   0.08418   0.08809   0.00476  -0.05351
           A3          -0.00640   0.00451  -0.00783   0.00516   0.00814
           D1           0.00000   0.00000   0.00000   0.00000   0.00000
           D2           0.00000   0.00000   0.00000   0.00000   0.00000
                          A2        A3        D1        D2
           A2           0.21713
           A3          -0.00072  -0.12099
           D1           0.00000   0.00000  -0.02779
           D2           0.00000   0.00000   0.00599  -0.00301
     Eigenvalues ---   -0.12196  -0.02916  -0.00485  -0.00164   0.06807
     Eigenvalues ---    0.20429   0.32323   0.55955   0.69285
 Eigenvectors required to have negative eigenvalues:
                          A3        A1        R2        R3        R1
   1                    0.99650  -0.06838  -0.04376   0.01591   0.01028
                          R4        A2        D1        D2
   1                   -0.00536  -0.00292   0.00000   0.00000
 RFO step:  Lambda0=2.999192285D-04 Lambda=-2.91582051D-02.
 Linear search not attempted -- option 19 set.
 Maximum step size (   0.300) exceeded in Quadratic search.
    -- Step size scaled by   0.299
 Iteration  1 RMS(Cart)=  0.05169153 RMS(Int)=  0.01463923
 Iteration  2 RMS(Cart)=  0.01150890 RMS(Int)=  0.00066469
 Iteration  3 RMS(Cart)=  0.00036694 RMS(Int)=  0.00000164
 Iteration  4 RMS(Cart)=  0.00000093 RMS(Int)=  0.00000000
 ClnCor:  largest displacement from symmetrization is 4.63D-02 for atom     2.
 Variable       Old X    -DE/DX   Delta X   Delta X   Delta X     New X
                                 (Linear)    (Quad)   (Total)
    R1        2.29945  -0.03155   0.00000  -0.02519  -0.02643   2.27302
    R2        2.73892   0.04877   0.00000   0.15966   0.15916   2.89809
    R3        1.84133  -0.00382   0.00000  -0.02660  -0.02660   1.81473
    R4        1.76361   0.00920   0.00000   0.00098   0.00098   1.76459
    A1        2.85141  -0.02131   0.00000   0.08344   0.08994   2.94135
    A2        2.25691   0.03618   0.00000   0.02082   0.02098   2.27789
    A3        3.13465   0.00730   0.00000  -0.00136  -0.00136   3.13329
    D1        3.14159   0.00000   0.00000  -0.23506   0.00000   3.14159
    D2        0.00000   0.00000   0.00000  -0.02276   0.00000   0.00000
         Item               Value     Threshold  Converged?
 Maximum Force            0.048774     0.000450     NO 
 RMS     Force            0.024244     0.000300     NO 
 Maximum Displacement     0.101168     0.001800     NO 
 RMS     Displacement     0.059668     0.001200     NO 
 Predicted change in Energy=-6.805299D-03
 GradGradGradGradGradGradGradGradGradGradGradGradGradGradGradGradGradGrad

                          Input orientation:                          
 ---------------------------------------------------------------------
 Center     Atomic      Atomic             Coordinates (Angstroms)
 Number     Number       Type             X           Y           Z
 ---------------------------------------------------------------------
      1          8           0       -2.507733    1.330511    0.000000
      2          8           0       -1.390968    0.883704    0.000000
      3          1           0        0.117763    0.608630    0.000000
      4          8           0        0.600540   -0.221506    0.000000
      5          1           0        1.063259   -1.032580    0.000000
 ---------------------------------------------------------------------
                    Distance matrix (angstroms):
                    1          2          3          4          5
     1  O    0.000000
     2  O    1.202830   0.000000
     3  H    2.722930   1.533603   0.000000
     4  O    3.474208   2.277629   0.960312   0.000000
     5  H    4.282077   3.113739   1.894078   0.933782   0.000000
 Stoichiometry    H2O3
 Framework group  CS[SG(H2O3)]
 Deg. of freedom     7
 Full point group                 CS      NOp   2
 Largest Abelian subgroup         CS      NOp   2
 Largest concise Abelian subgroup C1      NOp   1
                         Standard orientation:                         
 ---------------------------------------------------------------------
 Center     Atomic      Atomic             Coordinates (Angstroms)
 Number     Number       Type             X           Y           Z
 ---------------------------------------------------------------------
      1          8           0       -0.258871    1.684562    0.000000
      2          8           0        0.000000    0.509919    0.000000
      3          1           0        0.621361   -0.892167    0.000000
      4          8           0        0.206649   -1.758316    0.000000
      5          1           0       -0.203587   -2.597157    0.000000
 ---------------------------------------------------------------------
 Rotational constants (GHZ):    793.9576063      4.6834997      4.6560341
 Standard basis: 6-31+G(d,p) (6D, 7F)
 There are    50 symmetry adapted basis functions of A'  symmetry.
 There are    17 symmetry adapted basis functions of A"  symmetry.
 Integral buffers will be    262144 words long.
 Raffenetti 2 integral format.
 Two-electron integral symmetry is turned on.
    67 basis functions,   110 primitive gaussians,    67 cartesian basis functions
    13 alpha electrons       13 beta electrons
       nuclear repulsion energy        68.6589395398 Hartrees.
 NAtoms=    5 NActive=    5 NUniq=    5 SFac= 7.50D-01 NAtFMM=   80 NAOKFM=F Big=F
 One-electron integrals computed using PRISM.
 NBasis=    67 RedAO= T  NBF=    50    17
 NBsUse=    67 1.00D-06 NBFU=    50    17
 Initial guess read from the read-write file.
 B after Tr=     0.000000    0.000000    0.000000
         Rot=    1.000000    0.000000    0.000000    0.000000 Ang=   0.00 deg.
 Initial guess orbital symmetries:
       Occupied  (A') (A') (A') (A') (A') (A') (A') (A') (A") (A')
                 (A') (A") (A')
       Virtual   (A") (A') (A') (A') (A") (A') (A') (A') (A") (A')
                 (A") (A') (A') (A') (A') (A') (A') (A') (A") (A')
                 (A') (A") (A') (A') (A") (A') (A') (A") (A') (A')
                 (A") (A') (A") (A') (A') (A') (A") (A") (A') (A')
                 (A") (A') (A') (A") (A') (A') (A') (A") (A') (A')
                 (A') (A') (A') (A')
 Harris functional with IExCor= 1009 diagonalized for initial guess.
 ExpMin= 8.45D-02 ExpMax= 5.48D+03 ExpMxC= 8.25D+02 IAcc=2 IRadAn=         0 AccDes= 0.00D+00
 HarFok:  IExCor= 1009 AccDes= 0.00D+00 IRadAn=         0 IDoV= 1
 ScaDFX=  1.000000  1.000000  1.000000  1.000000
 FoFCou: FMM=F IPFlag=           0 FMFlag=      100000 FMFlg1=           0
         NFxFlg=           0 DoJE=T BraDBF=F KetDBF=T FulRan=T
         Omega=  0.000000  0.000000  1.000000  0.000000  0.000000 ICntrl=     500 IOpCl=  0
         NMat0=    1 NMatS0=    1 NMatT0=    0 NMatD0=    1 NMtDS0=    0 NMtDT0=    0
         I1Cent=           4 NGrid=           0.
 Petite list used in FoFCou.
 Requested convergence on RMS density matrix=1.00D-08 within 128 cycles.
 Requested convergence on MAX density matrix=1.00D-06.
 Requested convergence on             energy=1.00D-06.
 No special actions if energy rises.
 Keep R1 ints in memory in canonical form, NReq=3551244.
 Integral accuracy reduced to 1.0D-05 until final iterations.
 Initial convergence to 1.0D-05 achieved.  Increase integral accuracy.
 SCF Done:  E(RM062X) =  -226.538301886     A.U. after   15 cycles
             Convg  =    0.8741D-08             -V/T =  2.0077
 Calling FoFJK, ICntrl=      2127 FMM=F ISym2X=1 I1Cent= 0 IOpClX= 0 NMat=1 NMatS=1 NMatT=0.
 ***** Axes restored to original set *****
 -------------------------------------------------------------------
 Center     Atomic                   Forces (Hartrees/Bohr)
 Number     Number              X              Y              Z
[...]

 **********************************************************************

 Orbital symmetries:
       Occupied  (A') (A') (A') (A') (A') (A') (A') (A') (A') (A")
                 (A") (A') (A')
       Virtual   (A") (A') (A') (A') (A") (A') (A') (A") (A') (A')
                 (A") (A') (A') (A') (A') (A') (A') (A') (A") (A')
                 (A') (A') (A") (A") (A') (A') (A') (A') (A") (A')
                 (A") (A') (A") (A') (A') (A') (A") (A') (A") (A')
                 (A") (A') (A') (A") (A') (A') (A') (A") (A') (A')
                 (A') (A') (A') (A')
 The electronic state is 1-A'.
 Alpha  occ. eigenvalues --  -19.84107 -19.83783 -19.60966  -1.46158  -1.09867
 Alpha  occ. eigenvalues --   -0.94181  -0.68736  -0.64913  -0.64234  -0.62705
 Alpha  occ. eigenvalues --   -0.37615  -0.37614  -0.36737
 Alpha virt. eigenvalues --   -0.14167   0.07257   0.09633   0.10437   0.13073
 Alpha virt. eigenvalues --    0.15645   0.18243   0.20317   0.20985   0.21774
 Alpha virt. eigenvalues --    0.22661   0.25618   0.31907   0.33814   0.34926
 Alpha virt. eigenvalues --    0.43149   0.94021   1.03346   1.10145   1.11223
 Alpha virt. eigenvalues --    1.13320   1.16557   1.17249   1.21846   1.21982
 Alpha virt. eigenvalues --    1.22710   1.36705   1.39408   1.50465   1.51320
 Alpha virt. eigenvalues --    1.53138   1.54834   1.56067   1.58932   1.63176
 Alpha virt. eigenvalues --    1.85252   1.87207   1.87498   1.96196   2.03262
 Alpha virt. eigenvalues --    2.31096   2.31671   2.54317   2.60500   2.61891
 Alpha virt. eigenvalues --    2.68356   2.94346   3.06995   3.09898   3.40883
 Alpha virt. eigenvalues --    3.73498   3.80565   4.12458   5.61603
          Condensed to atoms (all electrons):
              1          2          3          4          5
     1  O    7.624097   0.344802  -0.010058   0.008069  -0.000033
     2  O    0.344802   7.648927   0.027479  -0.006057   0.001088
     3  H   -0.010058   0.027479   0.251686   0.297296  -0.017152
     4  O    0.008069  -0.006057   0.297296   8.282323   0.320481
     5  H   -0.000033   0.001088  -0.017152   0.320481   0.261138
 Mulliken atomic charges:
              1
     1  O    0.033123
     2  O   -0.016239
     3  H    0.450749
     4  O   -0.902112
     5  H    0.434478
 Sum of Mulliken atomic charges =   0.00000
 Mulliken charges with hydrogens summed into heavy atoms:
              1
     1  O    0.033123
     2  O   -0.016239
     4  O   -0.016884
 Sum of Mulliken charges with hydrogens summed into heavy atoms =   0.00000
 APT atomic charges:
              1
     1  O    0.032875
     2  O   -0.044836
     3  H    0.624737
     4  O   -1.142445
     5  H    0.529669
 Sum of APT charges=   0.00000
 APT Atomic charges with hydrogens summed into heavy atoms:
              1
     1  O    0.032875
     2  O   -0.044836
     3  H    0.000000
     4  O    0.011961
     5  H    0.000000
 Sum of APT charges=   0.00000
 Electronic spatial extent (au):  <R**2>=            275.4497
 Charge=              0.0000 electrons
 Dipole moment (field-independent basis, Debye):
    X=             -0.0017    Y=             -0.4316    Z=              0.0000  Tot=              0.4316
 Quadrupole moment (field-independent basis, Debye-Ang):
   XX=            -17.5242   YY=            -14.2295   ZZ=            -17.1038
   XY=             -1.9557   XZ=              0.0000   YZ=              0.0000
 Traceless Quadrupole moment (field-independent basis, Debye-Ang):
   XX=             -1.2384   YY=              2.0564   ZZ=             -0.8180
   XY=             -1.9557   XZ=              0.0000   YZ=              0.0000
 Octapole moment (field-independent basis, Debye-Ang**2):
  XXX=              0.0055  YYY=             16.6780  ZZZ=              0.0000  XYY=            -10.1919
  XXY=              1.8577  XXZ=              0.0000  XZZ=              0.9074  YZZ=             -4.1405
  YYZ=              0.0000  XYZ=              0.0000
 Hexadecapole moment (field-independent basis, Debye-Ang**3):
 XXXX=            -41.1312 YYYY=           -184.8298 ZZZZ=            -14.2005 XXXY=             19.9556
 XXXZ=              0.0000 YYYX=            -10.3997 YYYZ=              0.0000 ZZZX=              0.0000
 ZZZY=              0.0000 XXYY=            -40.0216 XXZZ=             -8.9874 YYZZ=            -46.3771
 XXYZ=              0.0000 YYXZ=              0.0000 ZZXY=              7.7368
 N-N= 6.516490012234D+01 E-N=-6.646885768970D+02  KE= 2.247348689011D+02
 Symmetry A'   KE= 2.159544434495D+02
 Symmetry A"   KE= 8.780425451553D+00
  Exact polarizability:  15.704   2.075  19.378   0.000   0.000  11.338
 Approx polarizability:  18.919   4.873  20.421   0.000   0.000  11.905
 Calling FoFJK, ICntrl=    100127 FMM=F ISym2X=1 I1Cent= 0 IOpClX= 0 NMat=1 NMatS=1 NMatT=0.
 Full mass-weighted force constant matrix:
 Low frequencies ----1540.0293-1537.2950    0.0002    0.0013    0.0016   30.4747
 Low frequencies ---   30.6513   75.7036   92.1672
 ******    2 imaginary frequencies (negative Signs) ****** 
 Diagonal vibrational polarizability:
        5.1157898       4.7181271       6.2414876
 Harmonic frequencies (cm**-1), IR intensities (KM/Mole), Raman scattering
 activities (A**4/AMU), depolarization ratios for plane and unpolarized
 incident light, reduced masses (AMU), force constants (mDyne/A),
 and normal coordinates:
                     1                      2                      3
                    A"                     A'                     A'
 Frequencies -- -1540.0236             -1537.2949                91.2036
 Red. masses --     1.1263                 1.1295                 6.6737
 Frc consts  --     1.5739                 1.5727                 0.0327
 IR Inten    --   544.5809               511.2861                 0.1191
  Atom  AN      X      Y      Z        X      Y      Z        X      Y      Z
     1   8     0.00   0.00   0.00     0.00   0.00   0.00    -0.19   0.42   0.00
     2   8     0.00   0.00   0.00     0.00   0.00   0.00     0.19  -0.02   0.00
     3   1     0.00   0.00   0.70     0.61   0.31   0.00     0.37  -0.17   0.00
     4   8     0.00   0.00  -0.09    -0.08  -0.04   0.00     0.00  -0.36   0.00
     5   1     0.00   0.00   0.71     0.64   0.33   0.00    -0.39  -0.55   0.00
                     4                      5                      6
                    A'                     A"                     A'
 Frequencies --   188.1578               320.5451               398.6444
 Red. masses --     6.8882                 1.0356                 1.1284
 Frc consts  --     0.1437                 0.0627                 0.1057
 IR Inten    --     2.1966                 0.2374                 0.6082
  Atom  AN      X      Y      Z        X      Y      Z        X      Y      Z
     1   8    -0.11   0.05   0.00     0.00   0.00   0.00    -0.01   0.04   0.00
     2   8     0.29  -0.41   0.00     0.00   0.00   0.03     0.06  -0.03   0.00
     3   1     0.20   0.51   0.00     0.00   0.00  -0.74    -0.68  -0.34   0.00
     4   8    -0.16   0.32   0.00     0.00   0.00  -0.03    -0.04  -0.01   0.00
     5   1    -0.54   0.13   0.00     0.00   0.00   0.67     0.57   0.30   0.00
                     7                      8                      9
                    A'                     A'                     A'
 Frequencies --  1776.5693              3991.9962              4426.8439
 Red. masses --    15.9833                 1.0116                 1.1220
 Frc consts  --    29.7221                 9.4985                12.9550
 IR Inten    --     0.2549               221.8045              1075.6760
  Atom  AN      X      Y      Z        X      Y      Z        X      Y      Z
     1   8     0.53   0.47   0.00     0.00   0.00   0.00     0.00   0.00   0.00
     2   8    -0.53  -0.47   0.00     0.00   0.00   0.00     0.00   0.00   0.00
     3   1    -0.02  -0.02   0.00    -0.37   0.73   0.00    -0.25   0.49   0.00
     4   8     0.00   0.00   0.00     0.01  -0.01   0.00     0.04  -0.08   0.00
     5   1     0.01   0.01   0.00     0.26  -0.51   0.00    -0.38   0.74   0.00

 -------------------
 - Thermochemistry -
 -------------------
 Temperature   298.150 Kelvin.  Pressure   1.00000 Atm.
 Atom     1 has atomic number  8 and mass  15.99491
 Atom     2 has atomic number  8 and mass  15.99491
 Atom     3 has atomic number  1 and mass   1.00783
 Atom     4 has atomic number  8 and mass  15.99491
 Atom     5 has atomic number  1 and mass   1.00783
 Molecular mass:    50.00039 amu.
 Principal axes and moments of inertia in atomic units:
                           1         2         3
     Eigenvalues --    31.25650 413.69759 444.95409
           X           -0.18491   0.98276   0.00000
           Y            0.98276   0.18491   0.00000
           Z            0.00000   0.00000   1.00000
 This molecule is an asymmetric top.
 Rotational symmetry number  1.
 Rotational temperatures (Kelvin)      2.77107     0.20937     0.19466
 Rotational constants (GHZ):          57.73971     4.36246     4.05602
    2 imaginary frequencies ignored.
 Zero-point vibrational energy      66954.8 (Joules/Mol)
                                   16.00257 (Kcal/Mol)
 Warning -- explicit consideration of   4 degrees of freedom as
           vibrations may cause significant error
 Vibrational temperatures:    131.22   270.72   461.19   573.56  2556.08
          (Kelvin)           5743.58  6369.23
 
 Zero-point correction=                           0.025502 (Hartree/Particle)
 Thermal correction to Energy=                    0.030373
 Thermal correction to Enthalpy=                  0.031317
 Thermal correction to Gibbs Free Energy=        -0.001505
 Sum of electronic and zero-point Energies=           -226.533568
 Sum of electronic and thermal Energies=              -226.528697
 Sum of electronic and thermal Enthalpies=            -226.527753
 Sum of electronic and thermal Free Energies=         -226.560574
 
                     E (Thermal)             CV                S
                      KCal/Mol        Cal/Mol-Kelvin    Cal/Mol-Kelvin
 Total                   19.059             12.908             69.079
 Electronic               0.000              0.000              0.000
 Translational            0.889              2.981             37.652
 Rotational               0.889              2.981             23.269
 Vibrational             17.282              6.946              8.159
 Vibration     1          0.602              1.955              3.634
 Vibration     2          0.633              1.856              2.246
 Vibration     3          0.706              1.634              1.307
 Vibration     4          0.765              1.473              0.968
                       Q            Log10(Q)             Ln(Q)
 Total Bot       0.492250D+01          0.692186          1.593817
 Total V=0       0.264324D+13         12.422137         28.603027
 Vib (Bot)       0.130453D-10        -10.884545        -25.062591
 Vib (Bot)    1  0.225388D+01          0.352930          0.812652
 Vib (Bot)    2  0.106439D+01          0.027102          0.062405
 Vib (Bot)    3  0.586255D+00         -0.231913         -0.534000
 Vib (Bot)    4  0.447549D+00         -0.349159         -0.803968
 Vib (V=0)       0.700496D+01          0.845406          1.946619
 Vib (V=0)    1  0.280867D+01          0.448501          1.032712
 Vib (V=0)    2  0.167598D+01          0.224269          0.516399
 Vib (V=0)    3  0.127052D+01          0.103980          0.239423
 Vib (V=0)    4  0.117104D+01          0.068573          0.157896
 Electronic      0.100000D+01          0.000000          0.000000
 Translational   0.138968D+08          7.142915         16.447170
 Rotational      0.271529D+05          4.433816         10.209238
 ***** Axes restored to original set *****
 -------------------------------------------------------------------
 Center     Atomic                   Forces (Hartrees/Bohr)
 Number     Number              X              Y              Z
 -------------------------------------------------------------------
      1        8          -0.000015220   -0.000048181    0.000000000
      2        8          -0.000005853    0.000021152    0.000000000
      3        1          -0.000238314    0.000070440    0.000000000
      4        8           0.000256984   -0.000060570    0.000000000
      5        1           0.000002403    0.000017159    0.000000000
 -------------------------------------------------------------------
 Cartesian Forces:  Max     0.000256984 RMS     0.000094798

 GradGradGradGradGradGradGradGradGradGradGradGradGradGradGradGradGradGrad
 Berny optimization.
 Internal  Forces:  Max     0.000256279 RMS     0.000086246
 Search for a saddle point.
 Step number   1 out of a maximum of    2
 All quantities printed in internal units (Hartrees-Bohrs-Radians)
 Swaping is turned off.
 Second derivative matrix not updated -- analytic derivatives used.
 The second derivative matrix:
                          R1        R2        R3        R4        A1
           R1           0.95634
           R2          -0.00109   0.00971
           R3           0.00320   0.01308   0.62799
           R4           0.00034  -0.00014  -0.02331   0.66009
           A1           0.00416  -0.00104  -0.00140  -0.00015   0.02760
           A2          -0.00523   0.00056   0.00114   0.00065  -0.00229
           A3          -0.00160   0.00046  -0.00005   0.00092  -0.00051
           D1           0.00000   0.00000   0.00000   0.00000   0.00000
           D2           0.00000   0.00000   0.00000   0.00000   0.00000
                          A2        A3        D1        D2
           A2           0.01094
           A3           0.00651  -0.12469
           D1           0.00000   0.00000   0.00012
           D2           0.00000   0.00000   0.00000   0.00000
     Eigenvalues ---   -0.12501   0.00000   0.00012   0.00927   0.01100
     Eigenvalues ---    0.02796   0.61594   0.67240   0.95642
 Eigenvectors required to have negative eigenvalues:
                          A3        A2        R2        A1        R1
   1                    0.99885  -0.04769  -0.00318   0.00257   0.00123
                          R4        R3        D1        D2
   1                   -0.00113   0.00016   0.00000   0.00000
 Eigenvalue     2 is  -4.28D-07 should be greater than     0.000000 Eigenvector:
                          D2        D1        A1        R3        R2
   1                    0.99997  -0.00810   0.00000   0.00000   0.00000
                          R4        A2        A3        R1
   1                    0.00000   0.00000   0.00000   0.00000
 Angle between quadratic step and forces=  50.02 degrees.
 Linear search not attempted -- option 19 set.
 Iteration  1 RMS(Cart)=  0.00041793 RMS(Int)=  0.00000007
 Iteration  2 RMS(Cart)=  0.00000008 RMS(Int)=  0.00000000
 ClnCor:  largest displacement from symmetrization is 1.26D-10 for atom     3.
 Variable       Old X    -DE/DX   Delta X   Delta X   Delta X     New X
                                 (Linear)    (Quad)   (Total)
    R1        2.25951  -0.00003   0.00000  -0.00004  -0.00004   2.25948
    R2        3.64603   0.00001   0.00000  -0.00004  -0.00004   3.64599
    R3        1.78684   0.00026   0.00000   0.00041   0.00041   1.78725
    R4        1.77328   0.00000   0.00000   0.00001   0.00001   1.77329
    A1        1.91519   0.00000   0.00000   0.00018   0.00018   1.91536
    A2        3.04940   0.00001   0.00000   0.00048   0.00048   3.04988
    A3        3.13975   0.00000   0.00000   0.00000   0.00000   3.13976
    D1        0.00000   0.00000   0.00000   0.00000   0.00000   0.00000
    D2        0.00000   0.00000   0.00000   0.00000   0.00000   0.00000
         Item               Value     Threshold  Converged?
 Maximum Force            0.000256     0.000450     YES
 RMS     Force            0.000086     0.000300     YES
 Maximum Displacement     0.000732     0.001800     YES
 RMS     Displacement     0.000418     0.001200     YES
 Predicted change in Energy=-5.446178D-08
 Optimization completed.
    -- Stationary point found.
                           ----------------------------
                           !   Optimized Parameters   !
                           ! (Angstroms and Degrees)  !
 --------------------------                            --------------------------
 ! Name  Definition              Value          Derivative Info.                !
 --------------------------------------------------------------------------------
 ! R1    R(1,2)                  1.1957         -DE/DX =    0.0                 !
 ! R2    R(2,3)                  1.9294         -DE/DX =    0.0                 !
 ! R3    R(3,4)                  0.9456         -DE/DX =    0.0003              !
 ! R4    R(4,5)                  0.9384         -DE/DX =    0.0                 !
 ! A1    A(1,2,3)              109.7321         -DE/DX =    0.0                 !
 ! A2    A(2,3,4)              174.7176         -DE/DX =    0.0                 !
 ! A3    A(3,4,5)              179.8946         -DE/DX =    0.0                 !
 ! D1    D(1,2,3,4)              0.0            -DE/DX =    0.0                 !
 ! D2    D(2,3,4,5)              0.0            -DE/DX =    0.0                 !
 --------------------------------------------------------------------------------
 GradGradGradGradGradGradGradGradGradGradGradGradGradGradGradGradGradGrad

 1|1|UNPC-DESKTOP-319GPER|Freq|RM062X|6-31+G(d,p)|H2O3|SAGAD|09-Feb-202
 1|0||#N Geom=AllCheck Guess=TCheck SCRF=Check GenChk RM062X/6-31+G(d,p
 ) Freq||ts OOH vs OH||0,1|O,-2.0328095003,1.8326426239,0.|O,-2.0553633
 834,0.6371736393,0.|H,-0.251869886,-0.0483738142,0.|O,0.6591622811,-0.
 3015475184,0.|H,1.5637415086,-0.5511368006,0.||Version=IA32W-G09RevA.0
 2|State=1-A'|HF=-226.5590695|RMSD=1.644e-009|RMSF=9.480e-005|ZeroPoint
 =0.0255017|Thermal=0.0303727|Dipole=-0.1245217,0.1154705,0.|DipoleDeri
 v=0.0198226,-0.0058789,0.,0.0504566,0.0503486,0.,0.,0.,0.0284536,-0.10
 35321,0.0937964,0.,0.0043797,-0.0383857,0.,0.,0.,0.007409,0.8614648,-0
 .2526113,0.,-0.1341671,0.530179,0.,0.,0.,0.4825675,-1.3386672,0.187531
 9,0.,0.0928263,-1.0570624,0.,0.,0.,-1.0316054,0.560912,-0.0228381,0.,-
 0.0134954,0.5149205,0.,0.,0.,0.5131753|Polar=15.6268773,-2.0032736,19.
 4555766,0.,0.,11.337546|PG=CS [SG(H2O3)]|NImag=2||0.00627276,0.0166300
 8,0.95655120,0.,0.,0.00156184,-0.00758085,-0.01436666,0.,0.01812656,-0
 .01925484,-0.95404520,0.,0.01515290,0.95506125,0.,0.,-0.00198101,0.,0.
 ,0.00398542,0.00097402,-0.00573377,0.,0.00164316,0.00328736,0.,0.56516
 094,0.00380813,-0.00313508,0.,-0.00561087,-0.00022039,0.,-0.16688523,0
 .01166394,0.,0.,0.00067529,0.,0.,-0.00270826,0.,0.,-0.03732436,0.00041
 464,0.00298860,0.,-0.01252982,0.00117237,0.,-0.58625576,0.18550450,0.,
 1.22738340,-0.00061626,0.00020848,0.,0.00377146,-0.00127973,0.,0.18646
 158,0.02950039,0.,-0.38619343,-0.05505614,0.,0.,-0.00013963,0.,0.,-0.0
 0021863,0.,0.,0.08132448,0.,0.,-0.16126385,-0.00008056,0.00048176,0.,0
 .00034096,-0.00035779,0.,0.01847764,-0.01681653,0.,-0.62901245,0.19657
 665,0.,0.61027442,-0.00056710,0.00042060,0.,0.00105317,0.00048408,0.,-
 0.01712993,-0.03780887,0.,0.19652796,0.02662700,0.,-0.17988409,0.01027
 719,0.,0.,-0.00011650,0.,0.,0.00092249,0.,0.,-0.04196715,0.,0.,0.08029
 763,0.,0.,-0.03913647||0.00001522,0.00004818,0.,0.00000585,-0.00002115
 ,0.,0.00023831,-0.00007044,0.,-0.00025698,0.00006057,0.,-0.00000240,-0
 .00001716,0.|||@


 We make a living by what we get,
 we make a life by what we give.
                   -- Sir Winston Churchill
 There are more things in heaven and earth, Horatio,
 than are dreamt of in your philosophy.
                   -- Hamlet, Act I, Scene 5
 The chemist is a guest at the physicist's table and
 frequently dines well.
                   -- Richard Bersohn
 Job cpu time:  0 days  0 hours  0 minutes  8.0 seconds.
 File lengths (MBytes):  RWF=      6 Int=      0 D2E=      0 Chk=      1 Scr=      1
 Normal termination of Gaussian 09 at Tue Feb 09 17:10:57 2021.
