 Entering Link 1 = C:\G09W\l1.exe PID=     12832.
  
 Copyright (c) 1988,1990,1992,1993,1995,1998,2003,2009, Gaussian, Inc.
                  All Rights Reserved.
  
 This is part of the Gaussian(R) 09 program.  It is based on
 the Gaussian(R) 03 system (copyright 2003, Gaussian, Inc.),
 the Gaussian(R) 98 system (copyright 1998, Gaussian, Inc.),
 the Gaussian(R) 94 system (copyright 1995, Gaussian, Inc.),
 the Gaussian 92(TM) system (copyright 1992, Gaussian, Inc.),
 the Gaussian 90(TM) system (copyright 1990, Gaussian, Inc.),
 the Gaussian 88(TM) system (copyright 1988, Gaussian, Inc.),
 the Gaussian 86(TM) system (copyright 1986, Carnegie Mellon
 University), and the Gaussian 82(TM) system (copyright 1983,
 Carnegie Mellon University). Gaussian is a federally registered
 trademark of Gaussian, Inc.
  
 This software contains proprietary and confidential information,
 including trade secrets, belonging to Gaussian, Inc.
  
 This software is provided under written license and may be
 used, copied, transmitted, or stored only in accord with that
 written license.
  
 The following legend is applicable only to US Government
 contracts under FAR:
  
                    RESTRICTED RIGHTS LEGEND
  
 Use, reproduction and disclosure by the US Government is
 subject to restrictions as set forth in subparagraphs (a)
 and (c) of the Commercial Computer Software - Restricted
 Rights clause in FAR 52.227-19.
  
 Gaussian, Inc.
 340 Quinnipiac St., Bldg. 40, Wallingford CT 06492
  
  
 ---------------------------------------------------------------
 Warning -- This program may not be used in any manner that
 competes with the business of Gaussian, Inc. or will provide
 assistance to any competitor of Gaussian, Inc.  The licensee
 of this program is prohibited from giving any competitor of
 Gaussian, Inc. access to this program.  By using this program,
 the user acknowledges that Gaussian, Inc. is engaged in the
 business of creating and licensing software in the field of
 computational chemistry and represents and warrants to the
 licensee that it is not a competitor of Gaussian, Inc. and that
 it will not use this program in any manner prohibited above.
 ---------------------------------------------------------------
  

 Cite this work as:
 Gaussian 09, Revision A.02,
 M. J. Frisch, G. W. Trucks, H. B. Schlegel, G. E. Scuseria, 
 M. A. Robb, J. R. Cheeseman, G. Scalmani, V. Barone, B. Mennucci, 
 G. A. Petersson, H. Nakatsuji, M. Caricato, X. Li, H. P. Hratchian, 
 A. F. Izmaylov, J. Bloino, G. Zheng, J. L. Sonnenberg, M. Hada, 
 M. Ehara, K. Toyota, R. Fukuda, J. Hasegawa, M. Ishida, T. Nakajima, 
 Y. Honda, O. Kitao, H. Nakai, T. Vreven, J. A. Montgomery, Jr., 
 J. E. Peralta, F. Ogliaro, M. Bearpark, J. J. Heyd, E. Brothers, 
 K. N. Kudin, V. N. Staroverov, R. Kobayashi, J. Normand, 
 K. Raghavachari, A. Rendell, J. C. Burant, S. S. Iyengar, J. Tomasi, 
 M. Cossi, N. Rega, J. M. Millam, M. Klene, J. E. Knox, J. B. Cross, 
 V. Bakken, C. Adamo, J. Jaramillo, R. Gomperts, R. E. Stratmann, 
 O. Yazyev, A. J. Austin, R. Cammi, C. Pomelli, J. W. Ochterski, 
 R. L. Martin, K. Morokuma, V. G. Zakrzewski, G. A. Voth, 
 P. Salvador, J. J. Dannenberg, S. Dapprich, A. D. Daniels, 
 O. Farkas, J. B. Foresman, J. V. Ortiz, J. Cioslowski, 
 and D. J. Fox, Gaussian, Inc., Wallingford CT, 2009.
 
 ******************************************
 Gaussian 09:  IA32W-G09RevA.02 11-Jun-2009
                16-Nov-2020 
 ******************************************
 %chk=C:\Users\sagad\Documents\rayGit\FQ\quimicaComputacional\clase8Pka\reactivos
 \formicAcidHF.chk
 %mem=1500mb
 %nproc=4
 Will use up to    4 processors via shared memory.
 -------------------------
 # hf/6-31+g(d,p) opt freq
 -------------------------
 1/18=20,19=15,38=1/1,3;
 2/9=110,12=2,17=6,18=5,40=1/2;
 3/5=1,6=6,7=111,11=9,16=1,25=1,30=1,71=1/1,2,3;
 4//1;
 5/5=2,38=5/2;
 6/7=2,8=2,9=2,10=2,28=1/1;
 7//1,2,3,16;
 1/18=20,19=15/3(2);
 2/9=110/2;
 99//99;
 2/9=110/2;
 3/5=1,6=6,7=111,11=9,16=1,25=1,30=1,71=1/1,2,3;
 4/5=5,16=3/1;
 5/5=2,38=5/2;
 7//1,2,3,16;
 1/18=20,19=15/3(-5);
 2/9=110/2;
 6/7=2,8=2,9=2,10=2,19=2,28=1/1;
 99/9=1/99;
 --------------
 Formic Acid HF
 --------------
 Symbolic Z-matrix:
 Charge =  0 Multiplicity = 1
 C                     0.85954   0.85954   0. 
 H                     1.21621   1.36394  -0.87365 
 O                    -0.57046   0.85956   0. 
 O                     1.33621   1.53364   1.16759 
 H                    -0.89045   1.76466   0. 
 

 GradGradGradGradGradGradGradGradGradGradGradGradGradGradGradGradGradGrad
 Berny optimization.
 Initialization pass.
                           ----------------------------
                           !    Initial Parameters    !
                           ! (Angstroms and Degrees)  !
 --------------------------                            --------------------------
 ! Name  Definition              Value          Derivative Info.                !
 --------------------------------------------------------------------------------
 ! R1    R(1,2)                  1.07           estimate D2E/DX2                !
 ! R2    R(1,3)                  1.43           estimate D2E/DX2                !
 ! R3    R(1,4)                  1.43           estimate D2E/DX2                !
 ! R4    R(3,5)                  0.96           estimate D2E/DX2                !
 ! A1    A(2,1,3)              109.4712         estimate D2E/DX2                !
 ! A2    A(2,1,4)              109.4713         estimate D2E/DX2                !
 ! A3    A(3,1,4)              109.4712         estimate D2E/DX2                !
 ! A4    A(1,3,5)              109.4712         estimate D2E/DX2                !
 ! D1    D(2,1,3,5)            -60.0            estimate D2E/DX2                !
 ! D2    D(4,1,3,5)             60.0            estimate D2E/DX2                !
 --------------------------------------------------------------------------------
 Trust Radius=3.00D-01 FncErr=1.00D-07 GrdErr=1.00D-07
 Number of steps in this run=  20 maximum allowed number of steps= 100.
 GradGradGradGradGradGradGradGradGradGradGradGradGradGradGradGradGradGrad

                          Input orientation:                          
 ---------------------------------------------------------------------
 Center     Atomic      Atomic             Coordinates (Angstroms)
 Number     Number       Type             X           Y           Z
 ---------------------------------------------------------------------
      1          6           0        0.859539    0.859539    0.000000
      2          1           0        1.216212    1.363937   -0.873652
      3          8           0       -0.570461    0.859556    0.000000
      4          8           0        1.336214    1.533641    1.167590
      5          1           0       -0.890450    1.764657    0.000000
 ---------------------------------------------------------------------
                    Distance matrix (angstroms):
                    1          2          3          4          5
     1  C    0.000000
     2  H    1.070000   0.000000
     3  O    1.430000   2.051796   0.000000
     4  O    1.430000   2.051796   2.335180   0.000000
     5  H    1.970203   2.315571   0.960000   2.524810   0.000000
 Stoichiometry    CH2O2
 Framework group  C1[X(CH2O2)]
 Deg. of freedom     9
 Full point group                 C1      NOp   1
 Largest Abelian subgroup         C1      NOp   1
 Largest concise Abelian subgroup C1      NOp   1
                         Standard orientation:                         
 ---------------------------------------------------------------------
 Center     Atomic      Atomic             Coordinates (Angstroms)
 Number     Number       Type             X           Y           Z
 ---------------------------------------------------------------------
      1          6           0        0.080442    0.566795   -0.135357
      2          1           0        0.079239    1.284539    0.658206
      3          8           0       -1.126463   -0.198708   -0.087534
      4          8           0        1.204150   -0.305199    0.012314
      5          1           0       -1.183393   -0.654049    0.755689
 ---------------------------------------------------------------------
 Rotational constants (GHZ):     54.1145091     10.9214613      9.5255018
 Standard basis: 6-31+G(d,p) (6D, 7F)
 There are    67 symmetry adapted basis functions of A   symmetry.
 Integral buffers will be    262144 words long.
 Raffenetti 1 integral format.
 Two-electron integral symmetry is turned on.
    67 basis functions,   110 primitive gaussians,    67 cartesian basis functions
    12 alpha electrons       12 beta electrons
       nuclear repulsion energy        65.0487838364 Hartrees.
 NAtoms=    5 NActive=    5 NUniq=    5 SFac= 7.50D-01 NAtFMM=   80 NAOKFM=F Big=F
 One-electron integrals computed using PRISM.
 NBasis=    67 RedAO= T  NBF=    67
 NBsUse=    67 1.00D-06 NBFU=    67
 Harris functional with IExCor=  205 diagonalized for initial guess.
 ExpMin= 4.38D-02 ExpMax= 5.48D+03 ExpMxC= 8.25D+02 IAcc=2 IRadAn=         0 AccDes= 0.00D+00
 HarFok:  IExCor=  205 AccDes= 0.00D+00 IRadAn=         0 IDoV= 1
 ScaDFX=  1.000000  1.000000  1.000000  1.000000
 FoFCou: FMM=F IPFlag=           0 FMFlag=      100000 FMFlg1=           0
         NFxFlg=           0 DoJE=T BraDBF=F KetDBF=T FulRan=T
         Omega=  0.000000  0.000000  1.000000  0.000000  0.000000 ICntrl=     500 IOpCl=  0
         NMat0=    1 NMatS0=    1 NMatT0=    0 NMatD0=    1 NMtDS0=    0 NMtDT0=    0
         I1Cent=           4 NGrid=           0.
 Petite list used in FoFCou.
 Initial guess orbital symmetries:
       Occupied  (A) (A) (A) (A) (A) (A) (A) (A) (A) (A) (A) (A)
       Virtual   (A) (A) (A) (A) (A) (A) (A) (A) (A) (A) (A) (A)
                 (A) (A) (A) (A) (A) (A) (A) (A) (A) (A) (A) (A)
                 (A) (A) (A) (A) (A) (A) (A) (A) (A) (A) (A) (A)
                 (A) (A) (A) (A) (A) (A) (A) (A) (A) (A) (A) (A)
                 (A) (A) (A) (A) (A) (A) (A)
 The electronic state of the initial guess is 1-A.
 Requested convergence on RMS density matrix=1.00D-08 within 128 cycles.
 Requested convergence on MAX density matrix=1.00D-06.
 Requested convergence on             energy=1.00D-06.
 No special actions if energy rises.
 Keep R1 ints in memory in canonical form, NReq=3448218.
 SCF Done:  E(RHF) =  -188.618990908     A.U. after   16 cycles
             Convg  =    0.9173D-08             -V/T =  2.0063

 **********************************************************************

            Population analysis using the SCF density.

 **********************************************************************

 Orbital symmetries:
       Occupied  (A) (A) (A) (A) (A) (A) (A) (A) (A) (A) (A) (A)
       Virtual   (A) (A) (A) (A) (A) (A) (A) (A) (A) (A) (A) (A)
                 (A) (A) (A) (A) (A) (A) (A) (A) (A) (A) (A) (A)
                 (A) (A) (A) (A) (A) (A) (A) (A) (A) (A) (A) (A)
                 (A) (A) (A) (A) (A) (A) (A) (A) (A) (A) (A) (A)
                 (A) (A) (A) (A) (A) (A) (A)
 The electronic state is 1-A.
 Alpha  occ. eigenvalues --  -20.63130 -20.62474 -11.44377  -1.42445  -1.30004
 Alpha  occ. eigenvalues --   -0.90195  -0.74807  -0.66229  -0.61516  -0.51671
 Alpha  occ. eigenvalues --   -0.48842  -0.47090
 Alpha virt. eigenvalues --   -0.00123   0.06782   0.09154   0.10213   0.11803
 Alpha virt. eigenvalues --    0.23503   0.26552   0.27455   0.29059   0.31123
 Alpha virt. eigenvalues --    0.33592   0.35941   0.36343   0.38046   0.42289
 Alpha virt. eigenvalues --    0.43396   0.47361   0.78879   0.88861   0.90617
 Alpha virt. eigenvalues --    1.11661   1.21009   1.23957   1.31133   1.37462
 Alpha virt. eigenvalues --    1.41338   1.48043   1.51821   1.56233   1.62209
 Alpha virt. eigenvalues --    1.66358   1.73151   1.80056   1.83664   2.02297
 Alpha virt. eigenvalues --    2.07573   2.08787   2.16761   2.22051   2.26953
 Alpha virt. eigenvalues --    2.36503   2.48576   2.66032   2.69609   2.90506
 Alpha virt. eigenvalues --    2.95220   2.97306   3.06311   3.19093   3.25710
 Alpha virt. eigenvalues --    3.67513   3.81671   4.44637   4.54888   4.71237
          Condensed to atoms (all electrons):
              1          2          3          4          5
     1  C    4.584265   0.425215   0.184386   0.385121  -0.005465
     2  H    0.425215   0.496547  -0.074454  -0.042415   0.001066
     3  O    0.184386  -0.074454   8.241627  -0.064443   0.294216
     4  O    0.385121  -0.042415  -0.064443   8.174337  -0.011593
     5  H   -0.005465   0.001066   0.294216  -0.011593   0.319958
 Mulliken atomic charges:
              1
     1  C    0.426478
     2  H    0.194042
     3  O   -0.581331
     4  O   -0.441006
     5  H    0.401817
 Sum of Mulliken atomic charges =   0.00000
 Mulliken charges with hydrogens summed into heavy atoms:
              1
     1  C    0.620521
     3  O   -0.179514
     4  O   -0.441006
 Sum of Mulliken charges with hydrogens summed into heavy atoms =   0.00000
 Electronic spatial extent (au):  <R**2>=            144.9071
 Charge=              0.0000 electrons
 Dipole moment (field-independent basis, Debye):
    X=             -1.6844    Y=              1.8287    Z=              1.9577  Tot=              3.1645
 Quadrupole moment (field-independent basis, Debye-Ang):
   XX=            -22.5665   YY=            -15.5079   ZZ=            -15.4249
   XY=              1.6141   XZ=             -2.0351   YZ=             -1.2025
 Traceless Quadrupole moment (field-independent basis, Debye-Ang):
   XX=             -4.7334   YY=              2.3252   ZZ=              2.4082
   XY=              1.6141   XZ=             -2.0351   YZ=             -1.2025
 Octapole moment (field-independent basis, Debye-Ang**2):
  XXX=             -4.0531  YYY=              0.0742  ZZZ=              2.8482  XYY=             -1.7716
  XXY=             -1.8235  XXZ=              3.5612  XZZ=             -2.2268  YZZ=             -0.4095
  YYZ=              2.4581  XYZ=              1.6934
 Hexadecapole moment (field-independent basis, Debye-Ang**3):
 XXXX=           -124.4148 YYYY=            -34.8803 ZZZZ=            -17.6141 XXXY=              3.0415
 XXXZ=             -4.1833 YYYX=              1.5616 YYYZ=              0.2019 ZZZX=             -1.8670
 ZZZY=             -0.7186 XXYY=            -24.0573 XXZZ=            -20.7490 YYZZ=             -7.4690
 XXYZ=             -2.5880 YYXZ=             -0.8936 ZZXY=              1.0518
 N-N= 6.504878383643D+01 E-N=-5.751087948691D+02  KE= 1.874288494316D+02
 Calling FoFJK, ICntrl=      2127 FMM=F ISym2X=0 I1Cent= 0 IOpClX= 0 NMat=1 NMatS=1 NMatT=0.
 ***** Axes restored to original set *****
 -------------------------------------------------------------------
 Center     Atomic                   Forces (Hartrees/Bohr)
 Number     Number              X              Y              Z
 -------------------------------------------------------------------
      1        6          -0.042393421    0.207571101    0.196062326
      2        1           0.027012014   -0.035411481   -0.023990320
      3        8           0.048678493   -0.031510603   -0.012906160
      4        8          -0.044488262   -0.127903779   -0.163464613
      5        1           0.011191175   -0.012745238    0.004298767
 -------------------------------------------------------------------
 Cartesian Forces:  Max     0.207571101 RMS     0.094789966

 GradGradGradGradGradGradGradGradGradGradGradGradGradGradGradGradGradGrad
 Berny optimization.
 Internal  Forces:  Max     0.208591857 RMS     0.081087021
 Search for a local minimum.
 Step number   1 out of a maximum of   20
 All quantities printed in internal units (Hartrees-Bohrs-Radians)
 Mixed Optimization -- RFO/linear search
 Second derivative matrix not updated -- first step.
 The second derivative matrix:
                          R1        R2        R3        R4        A1
           R1           0.37230
           R2           0.00000   0.40989
           R3           0.00000   0.00000   0.40989
           R4           0.00000   0.00000   0.00000   0.55473
           A1           0.00000   0.00000   0.00000   0.00000   0.16000
           A2           0.00000   0.00000   0.00000   0.00000   0.00000
           A3           0.00000   0.00000   0.00000   0.00000   0.00000
           A4           0.00000   0.00000   0.00000   0.00000   0.00000
           D1           0.00000   0.00000   0.00000   0.00000   0.00000
           D2           0.00000   0.00000   0.00000   0.00000   0.00000
                          A2        A3        A4        D1        D2
           A2           0.16000
           A3           0.00000   0.25000
           A4           0.00000   0.00000   0.16000
           D1           0.00000   0.00000   0.00000   0.01295
           D2           0.00000   0.00000   0.00000   0.00000   0.01295
     Eigenvalues ---    0.01295   0.08566   0.16000   0.16000   0.23855
     Eigenvalues ---    0.37230   0.40989   0.40989   0.554731000.00000
 RFO step:  Lambda=-1.50881096D-01 EMin= 1.29493782D-02
 Linear search not attempted -- first point.
 Maximum step size (   0.300) exceeded in Quadratic search.
    -- Step size scaled by   0.473
 Iteration  1 RMS(Cart)=  0.08764104 RMS(Int)=  0.01202342
 Iteration  2 RMS(Cart)=  0.01013059 RMS(Int)=  0.00812685
 Iteration  3 RMS(Cart)=  0.00010045 RMS(Int)=  0.00812639
 Iteration  4 RMS(Cart)=  0.00000301 RMS(Int)=  0.00812639
 Iteration  5 RMS(Cart)=  0.00000008 RMS(Int)=  0.00812639
 Variable       Old X    -DE/DX   Delta X   Delta X   Delta X     New X
                                 (Linear)    (Quad)   (Total)
    R1        2.02201   0.01190   0.00000   0.01077   0.01077   2.03277
    R2        2.70231  -0.05987   0.00000  -0.05054  -0.05054   2.65177
    R3        2.70231  -0.20859   0.00000  -0.17607  -0.17607   2.52623
    R4        1.81414  -0.01575   0.00000  -0.01056  -0.01056   1.80357
    A1        1.91063   0.06111   0.00000   0.11129   0.10043   2.01106
    A2        1.91063   0.02337   0.00000   0.07206   0.05676   1.96739
    A3        1.91063   0.08346   0.00000   0.11270   0.10185   2.01248
    A4        1.91063  -0.01143   0.00000  -0.01741  -0.01741   1.89322
    D1       -1.04720  -0.06225   0.00000  -0.12333  -0.13309  -1.18029
    D2        1.04720   0.05490   0.00000   0.10209   0.11185   1.15904
         Item               Value     Threshold  Converged?
 Maximum Force            0.208592     0.000450     NO 
 RMS     Force            0.081087     0.000300     NO 
 Maximum Displacement     0.173792     0.001800     NO 
 RMS     Displacement     0.084503     0.001200     NO 
 Predicted change in Energy=-6.112517D-02
 GradGradGradGradGradGradGradGradGradGradGradGradGradGradGradGradGradGrad

                          Input orientation:                          
 ---------------------------------------------------------------------
 Center     Atomic      Atomic             Coordinates (Angstroms)
 Number     Number       Type             X           Y           Z
 ---------------------------------------------------------------------
      1          6           0        0.828357    0.951505    0.027304
      2          1           0        1.271942    1.336613   -0.873833
      3          8           0       -0.571871    0.860466    0.013021
      4          8           0        1.354837    1.488692    1.132452
      5          1           0       -0.932213    1.744054   -0.005005
 ---------------------------------------------------------------------
                    Distance matrix (angstroms):
                    1          2          3          4          5
     1  C    0.000000
     2  H    1.075697   0.000000
     3  O    1.403257   2.100684   0.000000
     4  O    1.336826   2.013748   2.315167   0.000000
     5  H    1.931006   2.403991   0.954410   2.567024   0.000000
 Stoichiometry    CH2O2
 Framework group  C1[X(CH2O2)]
 Deg. of freedom     9
 Full point group                 C1      NOp   1
 Largest Abelian subgroup         C1      NOp   1
 Largest concise Abelian subgroup C1      NOp   1
                         Standard orientation:                         
 ---------------------------------------------------------------------
 Center     Atomic      Atomic             Coordinates (Angstroms)
 Number     Number       Type             X           Y           Z
 ---------------------------------------------------------------------
      1          6           0        0.108648    0.489189   -0.115145
      2          1           0        0.165125    1.375757    0.491430
      3          8           0       -1.127297   -0.174846   -0.090075
      4          8           0        1.182184   -0.296357    0.017289
      5          1           0       -1.256107   -0.541271    0.781727
 ---------------------------------------------------------------------
 Rotational constants (GHZ):     62.9276289     11.0969755      9.8326251
 Standard basis: 6-31+G(d,p) (6D, 7F)
 There are    67 symmetry adapted basis functions of A   symmetry.
 Integral buffers will be    262144 words long.
 Raffenetti 1 integral format.
 Two-electron integral symmetry is turned on.
    67 basis functions,   110 primitive gaussians,    67 cartesian basis functions
    12 alpha electrons       12 beta electrons
       nuclear repulsion energy        66.7485095097 Hartrees.
 NAtoms=    5 NActive=    5 NUniq=    5 SFac= 7.50D-01 NAtFMM=   80 NAOKFM=F Big=F
 One-electron integrals computed using PRISM.
 NBasis=    67 RedAO= T  NBF=    67
 NBsUse=    67 1.00D-06 NBFU=    67
 Initial guess read from the read-write file.
 B after Tr=     0.000000    0.000000    0.000000
         Rot=    1.000000    0.000000    0.000000    0.000000 Ang=   0.00 deg.
 Initial guess orbital symmetries:
       Occupied  (A) (A) (A) (A) (A) (A) (A) (A) (A) (A) (A) (A)
       Virtual   (A) (A) (A) (A) (A) (A) (A) (A) (A) (A) (A) (A)
                 (A) (A) (A) (A) (A) (A) (A) (A) (A) (A) (A) (A)
                 (A) (A) (A) (A) (A) (A) (A) (A) (A) (A) (A) (A)
                 (A) (A) (A) (A) (A) (A) (A) (A) (A) (A) (A) (A)
                 (A) (A) (A) (A) (A) (A) (A)
 Harris functional with IExCor=  205 diagonalized for initial guess.
 ExpMin= 4.38D-02 ExpMax= 5.48D+03 ExpMxC= 8.25D+02 IAcc=2 IRadAn=         0 AccDes= 0.00D+00
 HarFok:  IExCor=  205 AccDes= 0.00D+00 IRadAn=         0 IDoV= 1
 ScaDFX=  1.000000  1.000000  1.000000  1.000000
 FoFCou: FMM=F IPFlag=           0 FMFlag=      100000 FMFlg1=           0
         NFxFlg=           0 DoJE=T BraDBF=F KetDBF=T FulRan=T
         Omega=  0.000000  0.000000  1.000000  0.000000  0.000000 ICntrl=     500 IOpCl=  0
         NMat0=    1 NMatS0=    1 NMatT0=    0 NMatD0=    1 NMtDS0=    0 NMtDT0=    0
         I1Cent=           4 NGrid=           0.
 Petite list used in FoFCou.
 Requested convergence on RMS density matrix=1.00D-08 within 128 cycles.
 Requested convergence on MAX density matrix=1.00D-06.
 Requested convergence on             energy=1.00D-06.
 No special actions if energy rises.
 Keep R1 ints in memory in canonical form, NReq=3448218.
 SCF Done:  E(RHF) =  -188.684768581     A.U. after   15 cycles
             Convg  =    0.8446D-08             -V/T =  2.0056
 Calling FoFJK, ICntrl=      2127 FMM=F ISym2X=0 I1Cent= 0 IOpClX= 0 NMat=1 NMatS=1 NMatT=0.
 ***** Axes restored to original set *****
 -------------------------------------------------------------------
 Center     Atomic                   Forces (Hartrees/Bohr)
 Number     Number              X              Y              Z
 -------------------------------------------------------------------
      1        6          -0.007449140    0.167613334    0.169361159
      2        1           0.012164122   -0.035867794   -0.016034107
      3        8           0.045979086   -0.023038257   -0.012267161
      4        8          -0.056443755   -0.101878186   -0.145424433
      5        1           0.005749688   -0.006829098    0.004364542
 -------------------------------------------------------------------
 Cartesian Forces:  Max     0.169361159 RMS     0.080054928

 GradGradGradGradGradGradGradGradGradGradGradGradGradGradGradGradGradGrad
 Berny optimization.
 Using GEDIIS/GDIIS optimizer.
 Internal  Forces:  Max     0.183389385 RMS     0.068501369
 Search for a local minimum.
 Step number   2 out of a maximum of   20
 All quantities printed in internal units (Hartrees-Bohrs-Radians)
 Mixed Optimization -- RFO/linear search
 Update second derivatives using D2CorX and points    1    2
 DE= -6.58D-02 DEPred=-6.11D-02 R= 1.08D+00
 SS=  1.41D+00  RLast= 2.97D-01 DXNew= 5.0454D-01 8.8989D-01
 Trust test= 1.08D+00 RLast= 2.97D-01 DXMaxT set to 5.05D-01
 The second derivative matrix:
                          R1        R2        R3        R4        A1
           R1           0.37475
           R2          -0.00101   0.39612
           R3           0.00201  -0.05705   0.18893
           R4          -0.00252  -0.00025  -0.00719   0.55721
           A1           0.01351  -0.01008  -0.00671  -0.01431   0.23306
           A2           0.00107   0.00502   0.02250  -0.00060   0.00763
           A3           0.01132   0.00048   0.02976  -0.01118   0.06407
           A4          -0.00279   0.00248   0.00296   0.00299  -0.01497
           D1           0.00033  -0.00183  -0.00642  -0.00050   0.00131
           D2          -0.00037   0.00169   0.00577   0.00052  -0.00157
                          A2        A3        A4        D1        D2
           A2           0.15837
           A3           0.00296   0.30045
           A4          -0.00173  -0.01338   0.16305
           D1           0.00080   0.00216  -0.00022   0.01279
           D2          -0.00075  -0.00228   0.00028   0.00013   0.01284
 Use linear search instead of GDIIS.
     Eigenvalues ---    0.01295   0.06207   0.15711   0.16094   0.20984
     Eigenvalues ---    0.26302   0.37599   0.41129   0.558071000.00000
 RFO step:  Lambda=-3.54251579D-02 EMin= 1.29469962D-02
 Quartic linear search produced a step of  1.58059.
 Iteration  1 RMS(Cart)=  0.09033079 RMS(Int)=  0.12538019
 Iteration  2 RMS(Cart)=  0.05844302 RMS(Int)=  0.06307567
 Iteration  3 RMS(Cart)=  0.05274169 RMS(Int)=  0.01569775
 Iteration  4 RMS(Cart)=  0.00033653 RMS(Int)=  0.01569372
 Iteration  5 RMS(Cart)=  0.00001507 RMS(Int)=  0.01569371
 Iteration  6 RMS(Cart)=  0.00000083 RMS(Int)=  0.01569371
 Variable       Old X    -DE/DX   Delta X   Delta X   Delta X     New X
                                 (Linear)    (Quad)   (Total)
    R1        2.03277   0.00561   0.01702  -0.01318   0.00384   2.03661
    R2        2.65177  -0.04960  -0.07988  -0.06974  -0.14961   2.50216
    R3        2.52623  -0.18339  -0.27830  -0.30509  -0.58339   1.94284
    R4        1.80357  -0.00858  -0.01670   0.00318  -0.01352   1.79005
    A1        2.01106   0.02885   0.15874  -0.21036  -0.07626   1.93480
    A2        1.96739   0.01767   0.08971   0.04011   0.10051   2.06791
    A3        2.01248   0.05160   0.16098  -0.03133   0.10605   2.11853
    A4        1.89322  -0.00498  -0.02752   0.05358   0.02606   1.91928
    D1       -1.18029  -0.06220  -0.21036   0.12796  -0.09723  -1.27752
    D2        1.15904   0.05503   0.17678  -0.07797   0.11364   1.27268
         Item               Value     Threshold  Converged?
 Maximum Force            0.183389     0.000450     NO 
 RMS     Force            0.068501     0.000300     NO 
 Maximum Displacement     0.288710     0.001800     NO 
 RMS     Displacement     0.157095     0.001200     NO 
 Predicted change in Energy=-1.019153D-01
 GradGradGradGradGradGradGradGradGradGradGradGradGradGradGradGradGradGrad

                          Input orientation:                          
 ---------------------------------------------------------------------
 Center     Atomic      Atomic             Coordinates (Angstroms)
 Number     Number       Type             X           Y           Z
 ---------------------------------------------------------------------
      1          6           0        0.829201    1.042417    0.126659
      2          1           0        1.240951    1.326297   -0.827999
      3          8           0       -0.482449    0.880821    0.045052
      4          8           0        1.271544    1.408073    0.979673
      5          1           0       -0.908193    1.723723   -0.029446
 ---------------------------------------------------------------------
                    Distance matrix (angstroms):
                    1          2          3          4          5
     1  C    0.000000
     2  H    1.077728   0.000000
     3  O    1.324084   1.982618   0.000000
     4  O    1.028107   1.809780   2.056211   0.000000
     5  H    1.872721   2.326898   0.947255   2.422645   0.000000
 Stoichiometry    CH2O2
 Framework group  C1[X(CH2O2)]
 Deg. of freedom     9
 Full point group                 C1      NOp   1
 Largest Abelian subgroup         C1      NOp   1
 Largest concise Abelian subgroup C1      NOp   1
                         Standard orientation:                         
 ---------------------------------------------------------------------
 Center     Atomic      Atomic             Coordinates (Angstroms)
 Number     Number       Type             X           Y           Z
 ---------------------------------------------------------------------
      1          6           0        0.203797    0.352791   -0.095956
      2          1           0        0.240296    1.336922    0.341824
      3          8           0       -1.034209   -0.116825   -0.097529
      4          8           0        1.012398   -0.269735    0.029069
      5          1           0       -1.288590   -0.361183    0.781602
 ---------------------------------------------------------------------
 Rotational constants (GHZ):     88.2548141     13.7698927     12.4691858
 Standard basis: 6-31+G(d,p) (6D, 7F)
 There are    67 symmetry adapted basis functions of A   symmetry.
 Integral buffers will be    262144 words long.
 Raffenetti 1 integral format.
 Two-electron integral symmetry is turned on.
    67 basis functions,   110 primitive gaussians,    67 cartesian basis functions
    12 alpha electrons       12 beta electrons
       nuclear repulsion energy        75.9202324227 Hartrees.
 NAtoms=    5 NActive=    5 NUniq=    5 SFac= 7.50D-01 NAtFMM=   80 NAOKFM=F Big=F
 One-electron integrals computed using PRISM.
 NBasis=    67 RedAO= T  NBF=    67
 NBsUse=    67 1.00D-06 NBFU=    67
 Initial guess read from the read-write file.
 B after Tr=     0.000000    0.000000    0.000000
         Rot=    1.000000    0.000000    0.000000    0.000000 Ang=   0.00 deg.
 Initial guess orbital symmetries:
       Occupied  (A) (A) (A) (A) (A) (A) (A) (A) (A) (A) (A) (A)
       Virtual   (A) (A) (A) (A) (A) (A) (A) (A) (A) (A) (A) (A)
                 (A) (A) (A) (A) (A) (A) (A) (A) (A) (A) (A) (A)
                 (A) (A) (A) (A) (A) (A) (A) (A) (A) (A) (A) (A)
                 (A) (A) (A) (A) (A) (A) (A) (A) (A) (A) (A) (A)
                 (A) (A) (A) (A) (A) (A) (A)
 Harris functional with IExCor=  205 diagonalized for initial guess.
 ExpMin= 4.38D-02 ExpMax= 5.48D+03 ExpMxC= 8.25D+02 IAcc=2 IRadAn=         0 AccDes= 0.00D+00
 HarFok:  IExCor=  205 AccDes= 0.00D+00 IRadAn=         0 IDoV= 1
 ScaDFX=  1.000000  1.000000  1.000000  1.000000
 FoFCou: FMM=F IPFlag=           0 FMFlag=      100000 FMFlg1=           0
         NFxFlg=           0 DoJE=T BraDBF=F KetDBF=T FulRan=T
         Omega=  0.000000  0.000000  1.000000  0.000000  0.000000 ICntrl=     500 IOpCl=  0
         NMat0=    1 NMatS0=    1 NMatT0=    0 NMatD0=    1 NMtDS0=    0 NMtDT0=    0
         I1Cent=           4 NGrid=           0.
 Petite list used in FoFCou.
 Requested convergence on RMS density matrix=1.00D-08 within 128 cycles.
 Requested convergence on MAX density matrix=1.00D-06.
 Requested convergence on             energy=1.00D-06.
 No special actions if energy rises.
 Keep R1 ints in memory in canonical form, NReq=3448218.
 SCF Done:  E(RHF) =  -188.668389697     A.U. after   14 cycles
             Convg  =    0.2315D-08             -V/T =  1.9963
 Calling FoFJK, ICntrl=      2127 FMM=F ISym2X=0 I1Cent= 0 IOpClX= 0 NMat=1 NMatS=1 NMatT=0.
 ***** Axes restored to original set *****
 -------------------------------------------------------------------
 Center     Atomic                   Forces (Hartrees/Bohr)
 Number     Number              X              Y              Z
 -------------------------------------------------------------------
      1        6          -0.204292818   -0.067915051   -0.406767307
      2        1           0.014885617   -0.034998342   -0.030487113
      3        8          -0.061454657   -0.038670092   -0.016372654
      4        8           0.250340035    0.144845704    0.451189015
      5        1           0.000521824   -0.003262218    0.002438058
 -------------------------------------------------------------------
 Cartesian Forces:  Max     0.451189015 RMS     0.183840963

 GradGradGradGradGradGradGradGradGradGradGradGradGradGradGradGradGradGrad
 Berny optimization.
 Using GEDIIS/GDIIS optimizer.
 Internal  Forces:  Max     0.533573162 RMS     0.173964463
 Search for a local minimum.
 Step number   3 out of a maximum of   20
 All quantities printed in internal units (Hartrees-Bohrs-Radians)
 Mixed Optimization -- RFO/linear search
 Update second derivatives using D2CorX and points    1    3    2
 DE=  1.64D-02 DEPred=-1.02D-01 R=-1.61D-01
 Trust test=-1.61D-01 RLast= 6.43D-01 DXMaxT set to 2.52D-01
 The second derivative matrix:
                          R1        R2        R3        R4        A1
           R1           0.37548
           R2           0.00402   0.41739
           R3           0.03258   0.09707   1.22969
           R4          -0.00227  -0.00017  -0.00367   0.55709
           A1           0.01301  -0.01577  -0.03702  -0.01476   0.23301
           A2           0.00106   0.00572   0.02538  -0.00051   0.00776
           A3           0.01117   0.00378   0.04159  -0.01069   0.06493
           A4          -0.00253   0.00495   0.01666   0.00317  -0.01502
           D1          -0.00011  -0.00331  -0.01835  -0.00046   0.00188
           D2           0.00021   0.00434   0.02439   0.00056  -0.00219
                          A2        A3        A4        D1        D2
           A2           0.15833
           A3           0.00271   0.29903
           A4          -0.00177  -0.01367   0.16311
           D1           0.00071   0.00174  -0.00046   0.01288
           D2          -0.00068  -0.00197   0.00056  -0.00006   0.01317
 Use linear search instead of GDIIS.
     Eigenvalues ---    0.01294   0.04717   0.15998   0.18336   0.24713
     Eigenvalues ---    0.37523   0.40652   0.55763   1.247101000.00000
 RFO step:  Lambda=-1.28005623D-01 EMin= 1.29433520D-02
 Quartic linear search produced a step of -0.45764.
 Maximum step size (   0.252) exceeded in Quadratic search.
    -- Step size scaled by   0.307
 Iteration  1 RMS(Cart)=  0.08919499 RMS(Int)=  0.02194129
 Iteration  2 RMS(Cart)=  0.01986495 RMS(Int)=  0.00315014
 Iteration  3 RMS(Cart)=  0.00008108 RMS(Int)=  0.00314899
 Iteration  4 RMS(Cart)=  0.00000051 RMS(Int)=  0.00314899
 Variable       Old X    -DE/DX   Delta X   Delta X   Delta X     New X
                                 (Linear)    (Quad)   (Total)
    R1        2.03661   0.02347  -0.00176   0.00733   0.00557   2.04218
    R2        2.50216   0.06634   0.06847  -0.01787   0.05060   2.55276
    R3        1.94284   0.53357   0.26699   0.00623   0.27322   2.21606
    R4        1.79005  -0.00333   0.00619  -0.00272   0.00347   1.79352
    A1        1.93480   0.01557   0.03490   0.01564   0.04511   1.97991
    A2        2.06791   0.01790  -0.04600   0.08590   0.03409   2.10199
    A3        2.11853   0.04995  -0.04853   0.07535   0.02145   2.13998
    A4        1.91928   0.00165  -0.01193   0.00972  -0.00221   1.91708
    D1       -1.27752  -0.07224   0.04450  -0.15934  -0.11672  -1.39424
    D2        1.27268   0.06851  -0.05201   0.15632   0.10619   1.37888
         Item               Value     Threshold  Converged?
 Maximum Force            0.533573     0.000450     NO 
 RMS     Force            0.173964     0.000300     NO 
 Maximum Displacement     0.192603     0.001800     NO 
 RMS     Displacement     0.104445     0.001200     NO 
 Predicted change in Energy=-1.012023D-01
 GradGradGradGradGradGradGradGradGradGradGradGradGradGradGradGradGradGrad

                          Input orientation:                          
 ---------------------------------------------------------------------
 Center     Atomic      Atomic             Coordinates (Angstroms)
 Number     Number       Type             X           Y           Z
 ---------------------------------------------------------------------
      1          6           0        0.815400    1.088535    0.090023
      2          1           0        1.267722    1.294364   -0.869613
      3          8           0       -0.517761    0.881345    0.022342
      4          8           0        1.356524    1.403445    1.081595
      5          1           0       -0.970832    1.713641   -0.030408
 ---------------------------------------------------------------------
                    Distance matrix (angstroms):
                    1          2          3          4          5
     1  C    0.000000
     2  H    1.080676   0.000000
     3  O    1.350862   2.038166   0.000000
     4  O    1.172688   1.956270   2.215299   0.000000
     5  H    1.896282   2.427176   0.949090   2.597952   0.000000
 Stoichiometry    CH2O2
 Framework group  C1[X(CH2O2)]
 Deg. of freedom     9
 Full point group                 C1      NOp   1
 Largest Abelian subgroup         C1      NOp   1
 Largest concise Abelian subgroup C1      NOp   1
                         Standard orientation:                         
 ---------------------------------------------------------------------
 Center     Atomic      Atomic             Coordinates (Angstroms)
 Number     Number       Type             X           Y           Z
 ---------------------------------------------------------------------
      1          6           0        0.152859    0.386435   -0.059696
      2          1           0        0.164331    1.420097    0.255383
      3          8           0       -1.086822   -0.148519   -0.102644
      4          8           0        1.121828   -0.269381    0.019043
      5          1           0       -1.361538   -0.395510    0.771598
 ---------------------------------------------------------------------
 Rotational constants (GHZ):     80.3202870     12.0206554     10.8292747
 Standard basis: 6-31+G(d,p) (6D, 7F)
 There are    67 symmetry adapted basis functions of A   symmetry.
 Integral buffers will be    262144 words long.
 Raffenetti 1 integral format.
 Two-electron integral symmetry is turned on.
    67 basis functions,   110 primitive gaussians,    67 cartesian basis functions
    12 alpha electrons       12 beta electrons
       nuclear repulsion energy        70.9127230773 Hartrees.
 NAtoms=    5 NActive=    5 NUniq=    5 SFac= 7.50D-01 NAtFMM=   80 NAOKFM=F Big=F
 One-electron integrals computed using PRISM.
 NBasis=    67 RedAO= T  NBF=    67
 NBsUse=    67 1.00D-06 NBFU=    67
 Initial guess read from the read-write file.
 B after Tr=     0.000000    0.000000    0.000000
         Rot=    1.000000    0.000000    0.000000    0.000000 Ang=   0.00 deg.
 Initial guess orbital symmetries:
       Occupied  (A) (A) (A) (A) (A) (A) (A) (A) (A) (A) (A) (A)
       Virtual   (A) (A) (A) (A) (A) (A) (A) (A) (A) (A) (A) (A)
                 (A) (A) (A) (A) (A) (A) (A) (A) (A) (A) (A) (A)
                 (A) (A) (A) (A) (A) (A) (A) (A) (A) (A) (A) (A)
                 (A) (A) (A) (A) (A) (A) (A) (A) (A) (A) (A) (A)
                 (A) (A) (A) (A) (A) (A) (A)
 Harris functional with IExCor=  205 diagonalized for initial guess.
 ExpMin= 4.38D-02 ExpMax= 5.48D+03 ExpMxC= 8.25D+02 IAcc=2 IRadAn=         0 AccDes= 0.00D+00
 HarFok:  IExCor=  205 AccDes= 0.00D+00 IRadAn=         0 IDoV= 1
 ScaDFX=  1.000000  1.000000  1.000000  1.000000
 FoFCou: FMM=F IPFlag=           0 FMFlag=      100000 FMFlg1=           0
         NFxFlg=           0 DoJE=T BraDBF=F KetDBF=T FulRan=T
         Omega=  0.000000  0.000000  1.000000  0.000000  0.000000 ICntrl=     500 IOpCl=  0
         NMat0=    1 NMatS0=    1 NMatT0=    0 NMatD0=    1 NMtDS0=    0 NMtDT0=    0
         I1Cent=           4 NGrid=           0.
 Petite list used in FoFCou.
 Requested convergence on RMS density matrix=1.00D-08 within 128 cycles.
 Requested convergence on MAX density matrix=1.00D-06.
 Requested convergence on             energy=1.00D-06.
 No special actions if energy rises.
 Keep R1 ints in memory in canonical form, NReq=3448218.
 SCF Done:  E(RHF) =  -188.748210245     A.U. after   14 cycles
             Convg  =    0.7275D-08             -V/T =  2.0023
 Calling FoFJK, ICntrl=      2127 FMM=F ISym2X=0 I1Cent= 0 IOpClX= 0 NMat=1 NMatS=1 NMatT=0.
 ***** Axes restored to original set *****
 -------------------------------------------------------------------
 Center     Atomic                   Forces (Hartrees/Bohr)
 Number     Number              X              Y              Z
 -------------------------------------------------------------------
      1        6          -0.019024013    0.056369682   -0.003371333
      2        1           0.006770879   -0.021937200   -0.008587912
      3        8          -0.000280377   -0.014305981   -0.005083907
      4        8           0.012280866   -0.017024922    0.014272932
      5        1           0.000252644   -0.003101579    0.002770219
 -------------------------------------------------------------------
 Cartesian Forces:  Max     0.056369682 RMS     0.018337549

 GradGradGradGradGradGradGradGradGradGradGradGradGradGradGradGradGradGrad
 Berny optimization.
 Using GEDIIS/GDIIS optimizer.
 Internal  Forces:  Max     0.042319384 RMS     0.019354054
 Search for a local minimum.
 Step number   4 out of a maximum of   20
 All quantities printed in internal units (Hartrees-Bohrs-Radians)
 Mixed Optimization -- RFO/linear search
 Update second derivatives using D2CorX and points    3    2    4
 DE= -6.34D-02 DEPred=-1.01D-01 R= 6.27D-01
 SS=  1.41D+00  RLast= 4.86D-01 DXNew= 4.2426D-01 1.4581D+00
 Trust test= 6.27D-01 RLast= 4.86D-01 DXMaxT set to 4.24D-01
 The second derivative matrix:
                          R1        R2        R3        R4        A1
           R1           0.37535
           R2           0.00088   0.41557
           R3           0.01899   0.01927   0.61998
           R4          -0.00256   0.00096  -0.00663   0.55734
           A1           0.01410  -0.02375  -0.04336  -0.01612   0.23929
           A2           0.00161   0.00434   0.04037  -0.00089   0.01078
           A3           0.01292  -0.01139   0.02878  -0.01314   0.07673
           A4          -0.00289   0.00823   0.02366   0.00369  -0.01708
           D1          -0.00092   0.01331   0.03480   0.00177  -0.00631
           D2           0.00088  -0.01141  -0.02802  -0.00151   0.00532
                          A2        A3        A4        D1        D2
           A2           0.15768
           A3           0.00713   0.32015
           A4          -0.00336  -0.01790   0.16361
           D1          -0.00592  -0.01472   0.00146   0.01910
           D2           0.00550   0.01312  -0.00118  -0.00550   0.01789
 Use linear search instead of GDIIS.
     Eigenvalues ---    0.01294   0.04423   0.16012   0.17270   0.24414
     Eigenvalues ---    0.37520   0.41613   0.55780   0.637031000.00000
 RFO step:  Lambda=-3.27216319D-02 EMin= 1.29407269D-02
 Quartic linear search produced a step of  0.11161.
 Maximum step size (   0.424) exceeded in Quadratic search.
    -- Step size scaled by   0.680
 Iteration  1 RMS(Cart)=  0.10275935 RMS(Int)=  0.05489679
 Iteration  2 RMS(Cart)=  0.04237109 RMS(Int)=  0.03269271
 Iteration  3 RMS(Cart)=  0.00505297 RMS(Int)=  0.03230696
 Iteration  4 RMS(Cart)=  0.00047297 RMS(Int)=  0.03230348
 Iteration  5 RMS(Cart)=  0.00005213 RMS(Int)=  0.03230344
 Iteration  6 RMS(Cart)=  0.00000575 RMS(Int)=  0.03230344
 Iteration  7 RMS(Cart)=  0.00000063 RMS(Int)=  0.03230344
 Variable       Old X    -DE/DX   Delta X   Delta X   Delta X     New X
                                 (Linear)    (Quad)   (Total)
    R1        2.04218   0.00628   0.00105   0.00172   0.00277   2.04495
    R2        2.55276   0.00281  -0.01105   0.03389   0.02284   2.57560
    R3        2.21606   0.01316  -0.03462   0.07092   0.03630   2.25236
    R4        1.79352  -0.00299  -0.00112   0.00274   0.00162   1.79514
    A1        1.97991   0.00686  -0.00348   0.08191   0.02065   2.00056
    A2        2.10199   0.00640   0.01502   0.08229   0.03811   2.14010
    A3        2.13998   0.01415   0.01423   0.02405  -0.01930   2.12068
    A4        1.91708   0.00210   0.00266   0.01224   0.01490   1.93197
    D1       -1.39424  -0.04232  -0.02388  -0.31343  -0.32554  -1.71978
    D2        1.37888   0.03785   0.02454   0.24773   0.26050   1.63938
         Item               Value     Threshold  Converged?
 Maximum Force            0.042319     0.000450     NO 
 RMS     Force            0.019354     0.000300     NO 
 Maximum Displacement     0.298204     0.001800     NO 
 RMS     Displacement     0.133813     0.001200     NO 
 Predicted change in Energy=-2.229703D-02
 GradGradGradGradGradGradGradGradGradGradGradGradGradGradGradGradGradGrad

                          Input orientation:                          
 ---------------------------------------------------------------------
 Center     Atomic      Atomic             Coordinates (Angstroms)
 Number     Number       Type             X           Y           Z
 ---------------------------------------------------------------------
      1          6           0        0.808845    1.246338    0.068428
      2          1           0        1.322660    1.214435   -0.883415
      3          8           0       -0.508859    0.902318    0.014264
      4          8           0        1.385753    1.340778    1.107118
      5          1           0       -1.057346    1.677461   -0.012456
 ---------------------------------------------------------------------
                    Distance matrix (angstroms):
                    1          2          3          4          5
     1  C    0.000000
     2  H    1.082141   0.000000
     3  O    1.362948   2.063420   0.000000
     4  O    1.191897   1.995536   2.230724   0.000000
     5  H    1.917050   2.576314   0.949947   2.708419   0.000000
 Stoichiometry    CH2O2
 Framework group  C1[X(CH2O2)]
 Deg. of freedom     9
 Full point group                 C1      NOp   1
 Largest Abelian subgroup         C1      NOp   1
 Largest concise Abelian subgroup C1      NOp   1
                         Standard orientation:                         
 ---------------------------------------------------------------------
 Center     Atomic      Atomic             Coordinates (Angstroms)
 Number     Number       Type             X           Y           Z
 ---------------------------------------------------------------------
      1          6           0        0.150355    0.391324    0.044455
      2          1           0        0.175039    1.472516    0.006486
      3          8           0       -1.087532   -0.154587   -0.120605
      4          8           0        1.136809   -0.275930   -0.003494
      5          1           0       -1.471377   -0.376325    0.719571
 ---------------------------------------------------------------------
 Rotational constants (GHZ):     78.1915246     11.8062289     10.5688213
 Standard basis: 6-31+G(d,p) (6D, 7F)
 There are    67 symmetry adapted basis functions of A   symmetry.
 Integral buffers will be    262144 words long.
 Raffenetti 1 integral format.
 Two-electron integral symmetry is turned on.
    67 basis functions,   110 primitive gaussians,    67 cartesian basis functions
    12 alpha electrons       12 beta electrons
       nuclear repulsion energy        70.1179767954 Hartrees.
 NAtoms=    5 NActive=    5 NUniq=    5 SFac= 7.50D-01 NAtFMM=   80 NAOKFM=F Big=F
 One-electron integrals computed using PRISM.
 NBasis=    67 RedAO= T  NBF=    67
 NBsUse=    67 1.00D-06 NBFU=    67
 Initial guess read from the read-write file.
 B after Tr=     0.000000    0.000000    0.000000
         Rot=    1.000000    0.000000    0.000000    0.000000 Ang=   0.00 deg.
 Initial guess orbital symmetries:
       Occupied  (A) (A) (A) (A) (A) (A) (A) (A) (A) (A) (A) (A)
       Virtual   (A) (A) (A) (A) (A) (A) (A) (A) (A) (A) (A) (A)
                 (A) (A) (A) (A) (A) (A) (A) (A) (A) (A) (A) (A)
                 (A) (A) (A) (A) (A) (A) (A) (A) (A) (A) (A) (A)
                 (A) (A) (A) (A) (A) (A) (A) (A) (A) (A) (A) (A)
                 (A) (A) (A) (A) (A) (A) (A)
 Harris functional with IExCor=  205 diagonalized for initial guess.
 ExpMin= 4.38D-02 ExpMax= 5.48D+03 ExpMxC= 8.25D+02 IAcc=2 IRadAn=         0 AccDes= 0.00D+00
 HarFok:  IExCor=  205 AccDes= 0.00D+00 IRadAn=         0 IDoV= 1
 ScaDFX=  1.000000  1.000000  1.000000  1.000000
 FoFCou: FMM=F IPFlag=           0 FMFlag=      100000 FMFlg1=           0
         NFxFlg=           0 DoJE=T BraDBF=F KetDBF=T FulRan=T
         Omega=  0.000000  0.000000  1.000000  0.000000  0.000000 ICntrl=     500 IOpCl=  0
         NMat0=    1 NMatS0=    1 NMatT0=    0 NMatD0=    1 NMtDS0=    0 NMtDT0=    0
         I1Cent=           4 NGrid=           0.
 Petite list used in FoFCou.
 Requested convergence on RMS density matrix=1.00D-08 within 128 cycles.
 Requested convergence on MAX density matrix=1.00D-06.
 Requested convergence on             energy=1.00D-06.
 No special actions if energy rises.
 Keep R1 ints in memory in canonical form, NReq=3448218.
 SCF Done:  E(RHF) =  -188.754381426     A.U. after   14 cycles
             Convg  =    0.6216D-08             -V/T =  2.0030
 Calling FoFJK, ICntrl=      2127 FMM=F ISym2X=0 I1Cent= 0 IOpClX= 0 NMat=1 NMatS=1 NMatT=0.
 ***** Axes restored to original set *****
 -------------------------------------------------------------------
 Center     Atomic                   Forces (Hartrees/Bohr)
 Number     Number              X              Y              Z
 -------------------------------------------------------------------
      1        6           0.007317980   -0.029729613    0.039976311
      2        1          -0.002582611    0.008080091   -0.004101127
      3        8           0.008955195    0.017212404   -0.008647118
      4        8          -0.012156085    0.009005668   -0.028909588
      5        1          -0.001534479   -0.004568550    0.001681522
 -------------------------------------------------------------------
 Cartesian Forces:  Max     0.039976311 RMS     0.016665755

 GradGradGradGradGradGradGradGradGradGradGradGradGradGradGradGradGradGrad
 Berny optimization.
 Using GEDIIS/GDIIS optimizer.
 Internal  Forces:  Max     0.030363818 RMS     0.013974068
 Search for a local minimum.
 Step number   5 out of a maximum of   20
 All quantities printed in internal units (Hartrees-Bohrs-Radians)
 Mixed Optimization -- RFO/linear search
 Update second derivatives using D2CorX and points    4    5
 DE= -6.17D-03 DEPred=-2.23D-02 R= 2.77D-01
 Trust test= 2.77D-01 RLast= 4.22D-01 DXMaxT set to 4.24D-01
 The second derivative matrix:
                          R1        R2        R3        R4        A1
           R1           0.37448
           R2           0.00067   0.41804
           R3           0.02117   0.03118   0.66605
           R4          -0.00237   0.00117  -0.00634   0.55731
           A1           0.01253  -0.02334  -0.03587  -0.01572   0.23670
           A2          -0.00383  -0.00088   0.03623   0.00003  -0.00029
           A3           0.01053  -0.01410   0.02506  -0.01276   0.07174
           A4          -0.00490   0.00472   0.01496   0.00392  -0.02166
           D1          -0.00411  -0.00319  -0.02842   0.00141  -0.01700
           D2           0.00441   0.00519   0.03440  -0.00123   0.01663
                          A2        A3        A4        D1        D2
           A2           0.12965
           A3          -0.00451   0.31540
           A4          -0.01122  -0.02084   0.16262
           D1          -0.00135  -0.01010   0.01306   0.10581
           D2           0.00306   0.00943  -0.01200  -0.09104   0.10211
 Use linear search instead of GDIIS.
     Eigenvalues ---    0.01286   0.15438   0.16777   0.19579   0.23400
     Eigenvalues ---    0.37431   0.41496   0.55767   0.681711000.00000
 RFO step:  Lambda=-1.72191618D-03 EMin= 1.28575705D-02
 Quartic linear search produced a step of -0.33018.
 Iteration  1 RMS(Cart)=  0.04483402 RMS(Int)=  0.00776923
 Iteration  2 RMS(Cart)=  0.00320450 RMS(Int)=  0.00682761
 Iteration  3 RMS(Cart)=  0.00002958 RMS(Int)=  0.00682755
 Iteration  4 RMS(Cart)=  0.00000058 RMS(Int)=  0.00682755
 Variable       Old X    -DE/DX   Delta X   Delta X   Delta X     New X
                                 (Linear)    (Quad)   (Total)
    R1        2.04495   0.00214  -0.00091   0.01126   0.01035   2.05530
    R2        2.57560  -0.01009  -0.00754  -0.01254  -0.02008   2.55551
    R3        2.25236  -0.03036  -0.01198  -0.02745  -0.03943   2.21292
    R4        1.79514  -0.00289  -0.00053  -0.00576  -0.00629   1.78885
    A1        2.00056  -0.00435  -0.00682  -0.03613  -0.03049   1.97006
    A2        2.14010  -0.00097  -0.01258  -0.00699  -0.00711   2.13299
    A3        2.12068   0.01289   0.00637   0.03980   0.05863   2.17931
    A4        1.93197   0.00689  -0.00492   0.03764   0.03273   1.96470
    D1       -1.71978   0.01697   0.10749  -0.12107  -0.01407  -1.73385
    D2        1.63938  -0.01986  -0.08601  -0.10314  -0.18868   1.45070
         Item               Value     Threshold  Converged?
 Maximum Force            0.030364     0.000450     NO 
 RMS     Force            0.013974     0.000300     NO 
 Maximum Displacement     0.088541     0.001800     NO 
 RMS     Displacement     0.045218     0.001200     NO 
 Predicted change in Energy=-3.030930D-03
 GradGradGradGradGradGradGradGradGradGradGradGradGradGradGradGradGradGrad

                          Input orientation:                          
 ---------------------------------------------------------------------
 Center     Atomic      Atomic             Coordinates (Angstroms)
 Number     Number       Type             X           Y           Z
 ---------------------------------------------------------------------
      1          6           0        0.810862    1.199484    0.084760
      2          1           0        1.318808    1.220748   -0.876723
      3          8           0       -0.505710    0.909829   -0.022512
      4          8           0        1.378861    1.369048    1.094677
      5          1           0       -1.051768    1.682222    0.013738
 ---------------------------------------------------------------------
                    Distance matrix (angstroms):
                    1          2          3          4          5
     1  C    0.000000
     2  H    1.087617   0.000000
     3  O    1.352320   2.038434   0.000000
     4  O    1.171029   1.977883   2.238437   0.000000
     5  H    1.925480   2.574007   0.946618   2.678520   0.000000
 Stoichiometry    CH2O2
 Framework group  C1[X(CH2O2)]
 Deg. of freedom     9
 Full point group                 C1      NOp   1
 Largest Abelian subgroup         C1      NOp   1
 Largest concise Abelian subgroup C1      NOp   1
                         Standard orientation:                         
 ---------------------------------------------------------------------
 Center     Atomic      Atomic             Coordinates (Angstroms)
 Number     Number       Type             X           Y           Z
 ---------------------------------------------------------------------
      1          6           0        0.154310    0.369158    0.019562
      2          1           0        0.166597    1.452923    0.110183
      3          8           0       -1.094188   -0.133125   -0.113614
      4          8           0        1.137501   -0.266576   -0.002452
      5          1           0       -1.438964   -0.470265    0.700973
 ---------------------------------------------------------------------
 Rotational constants (GHZ):     83.6097187     11.7719104     10.6110594
 Standard basis: 6-31+G(d,p) (6D, 7F)
 There are    67 symmetry adapted basis functions of A   symmetry.
 Integral buffers will be    262144 words long.
 Raffenetti 1 integral format.
 Two-electron integral symmetry is turned on.
    67 basis functions,   110 primitive gaussians,    67 cartesian basis functions
    12 alpha electrons       12 beta electrons
       nuclear repulsion energy        70.6472627279 Hartrees.
 NAtoms=    5 NActive=    5 NUniq=    5 SFac= 7.50D-01 NAtFMM=   80 NAOKFM=F Big=F
 One-electron integrals computed using PRISM.
 NBasis=    67 RedAO= T  NBF=    67
 NBsUse=    67 1.00D-06 NBFU=    67
 Initial guess read from the read-write file.
 B after Tr=     0.000000    0.000000    0.000000
         Rot=    1.000000    0.000000    0.000000    0.000000 Ang=   0.00 deg.
 Initial guess orbital symmetries:
       Occupied  (A) (A) (A) (A) (A) (A) (A) (A) (A) (A) (A) (A)
       Virtual   (A) (A) (A) (A) (A) (A) (A) (A) (A) (A) (A) (A)
                 (A) (A) (A) (A) (A) (A) (A) (A) (A) (A) (A) (A)
                 (A) (A) (A) (A) (A) (A) (A) (A) (A) (A) (A) (A)
                 (A) (A) (A) (A) (A) (A) (A) (A) (A) (A) (A) (A)
                 (A) (A) (A) (A) (A) (A) (A)
 Harris functional with IExCor=  205 diagonalized for initial guess.
 ExpMin= 4.38D-02 ExpMax= 5.48D+03 ExpMxC= 8.25D+02 IAcc=2 IRadAn=         0 AccDes= 0.00D+00
 HarFok:  IExCor=  205 AccDes= 0.00D+00 IRadAn=         0 IDoV= 1
 ScaDFX=  1.000000  1.000000  1.000000  1.000000
 FoFCou: FMM=F IPFlag=           0 FMFlag=      100000 FMFlg1=           0
         NFxFlg=           0 DoJE=T BraDBF=F KetDBF=T FulRan=T
         Omega=  0.000000  0.000000  1.000000  0.000000  0.000000 ICntrl=     500 IOpCl=  0
         NMat0=    1 NMatS0=    1 NMatT0=    0 NMatD0=    1 NMtDS0=    0 NMtDT0=    0
         I1Cent=           4 NGrid=           0.
 Petite list used in FoFCou.
 Requested convergence on RMS density matrix=1.00D-08 within 128 cycles.
 Requested convergence on MAX density matrix=1.00D-06.
 Requested convergence on             energy=1.00D-06.
 No special actions if energy rises.
 Keep R1 ints in memory in canonical form, NReq=3448218.
 SCF Done:  E(RHF) =  -188.757560334     A.U. after   13 cycles
             Convg  =    0.3326D-08             -V/T =  2.0025
 Calling FoFJK, ICntrl=      2127 FMM=F ISym2X=0 I1Cent= 0 IOpClX= 0 NMat=1 NMatS=1 NMatT=0.
 ***** Axes restored to original set *****
 -------------------------------------------------------------------
 Center     Atomic                   Forces (Hartrees/Bohr)
 Number     Number              X              Y              Z
 -------------------------------------------------------------------
      1        6          -0.002635255   -0.003249357   -0.010777306
      2        1          -0.001429891   -0.001810801   -0.000819939
      3        8           0.003211280    0.002450257   -0.003469016
      4        8           0.001429516    0.003295832    0.010872520
      5        1          -0.000575650   -0.000685931    0.004193741
 -------------------------------------------------------------------
 Cartesian Forces:  Max     0.010872520 RMS     0.004600770

 GradGradGradGradGradGradGradGradGradGradGradGradGradGradGradGradGradGrad
 Berny optimization.
 Using GEDIIS/GDIIS optimizer.
 Internal  Forces:  Max     0.010547279 RMS     0.004254673
 Search for a local minimum.
 Step number   6 out of a maximum of   20
 All quantities printed in internal units (Hartrees-Bohrs-Radians)
 Mixed Optimization -- RFO/linear search
 Update second derivatives using D2CorX and points    3    4    5    6
 DE= -3.18D-03 DEPred=-3.03D-03 R= 1.05D+00
 SS=  1.41D+00  RLast= 2.08D-01 DXNew= 7.1352D-01 6.2491D-01
 Trust test= 1.05D+00 RLast= 2.08D-01 DXMaxT set to 6.25D-01
 The second derivative matrix:
                          R1        R2        R3        R4        A1
           R1           0.37547
           R2           0.00507   0.40750
           R3           0.03641   0.06053   1.34589
           R4          -0.00256  -0.00281  -0.00901   0.55705
           A1           0.01207  -0.02612  -0.04156  -0.01568   0.23689
           A2          -0.00569  -0.00118   0.04733   0.00141   0.00127
           A3           0.01778  -0.00333   0.03196  -0.01696   0.06717
           A4          -0.00378   0.01053   0.02050   0.00371  -0.02228
           D1           0.00139   0.00153   0.00170  -0.00193  -0.02048
           D2           0.00432  -0.01315  -0.05032  -0.00358   0.01603
                          A2        A3        A4        D1        D2
           A2           0.13099
           A3          -0.01588   0.36452
           A4          -0.01412  -0.01018   0.16417
           D1          -0.00819   0.02097   0.02070   0.12659
           D2           0.00516   0.00469  -0.01025  -0.10087   0.09947
 Use linear search instead of GDIIS.
     Eigenvalues ---    0.00868   0.15605   0.17021   0.21262   0.28320
     Eigenvalues ---    0.37668   0.40571   0.55777   1.357771000.00000
 RFO step:  Lambda=-2.15152278D-03 EMin= 8.67893525D-03
 Quartic linear search produced a step of  0.03984.
 Iteration  1 RMS(Cart)=  0.06668289 RMS(Int)=  0.04428485
 Iteration  2 RMS(Cart)=  0.03181718 RMS(Int)=  0.00147948
 Iteration  3 RMS(Cart)=  0.00120704 RMS(Int)=  0.00024445
 Iteration  4 RMS(Cart)=  0.00000203 RMS(Int)=  0.00024445
 Iteration  5 RMS(Cart)=  0.00000000 RMS(Int)=  0.00024445
 Variable       Old X    -DE/DX   Delta X   Delta X   Delta X     New X
                                 (Linear)    (Quad)   (Total)
    R1        2.05530   0.00002   0.00041   0.00554   0.00595   2.06125
    R2        2.55551  -0.00300  -0.00080  -0.01654  -0.01734   2.53817
    R3        2.21292   0.01055  -0.00157  -0.00283  -0.00440   2.20853
    R4        1.78885  -0.00007  -0.00025  -0.00341  -0.00366   1.78519
    A1        1.97006   0.00002  -0.00121  -0.01438  -0.01604   1.95402
    A2        2.13299   0.00416  -0.00028   0.01266   0.01194   2.14493
    A3        2.17931  -0.00413   0.00234   0.00304   0.00493   2.18424
    A4        1.96470   0.00078   0.00130   0.01919   0.02050   1.98520
    D1       -1.73385  -0.00280  -0.00056  -0.27406  -0.27462  -2.00846
    D2        1.45070  -0.00424  -0.00752  -0.30884  -0.31635   1.13435
         Item               Value     Threshold  Converged?
 Maximum Force            0.010547     0.000450     NO 
 RMS     Force            0.004255     0.000300     NO 
 Maximum Displacement     0.196992     0.001800     NO 
 RMS     Displacement     0.096916     0.001200     NO 
 Predicted change in Energy=-1.270720D-03
 GradGradGradGradGradGradGradGradGradGradGradGradGradGradGradGradGradGrad

                          Input orientation:                          
 ---------------------------------------------------------------------
 Center     Atomic      Atomic             Coordinates (Angstroms)
 Number     Number       Type             X           Y           Z
 ---------------------------------------------------------------------
      1          6           0        0.813312    1.192490    0.066090
      2          1           0        1.358109    1.178054   -0.878770
      3          8           0       -0.494735    0.939598   -0.104478
      4          8           0        1.329313    1.404202    1.093117
      5          1           0       -1.054946    1.666986    0.117981
 ---------------------------------------------------------------------
                    Distance matrix (angstroms):
                    1          2          3          4          5
     1  C    0.000000
     2  H    1.090767   0.000000
     3  O    1.343144   2.022231   0.000000
     4  O    1.168701   1.985022   2.230973   0.000000
     5  H    1.928271   2.656201   0.944679   2.589331   0.000000
 Stoichiometry    CH2O2
 Framework group  C1[X(CH2O2)]
 Deg. of freedom     9
 Full point group                 C1      NOp   1
 Largest Abelian subgroup         C1      NOp   1
 Largest concise Abelian subgroup C1      NOp   1
                         Standard orientation:                         
 ---------------------------------------------------------------------
 Center     Atomic      Atomic             Coordinates (Angstroms)
 Number     Number       Type             X           Y           Z
 ---------------------------------------------------------------------
      1          6           0        0.153471    0.373363    0.024115
      2          1           0        0.162339    1.454741    0.166651
      3          8           0       -1.094782   -0.106507   -0.100883
      4          8           0        1.128469   -0.269948   -0.013213
      5          1           0       -1.352661   -0.683283    0.601432
 ---------------------------------------------------------------------
 Rotational constants (GHZ):     82.6829156     11.9634193     10.6858183
 Standard basis: 6-31+G(d,p) (6D, 7F)
 There are    67 symmetry adapted basis functions of A   symmetry.
 Integral buffers will be    262144 words long.
 Raffenetti 1 integral format.
 Two-electron integral symmetry is turned on.
    67 basis functions,   110 primitive gaussians,    67 cartesian basis functions
    12 alpha electrons       12 beta electrons
       nuclear repulsion energy        70.9247679651 Hartrees.
 NAtoms=    5 NActive=    5 NUniq=    5 SFac= 7.50D-01 NAtFMM=   80 NAOKFM=F Big=F
 One-electron integrals computed using PRISM.
 NBasis=    67 RedAO= T  NBF=    67
 NBsUse=    67 1.00D-06 NBFU=    67
 Initial guess read from the read-write file.
 B after Tr=     0.000000    0.000000    0.000000
         Rot=    1.000000    0.000000    0.000000    0.000000 Ang=   0.00 deg.
 Initial guess orbital symmetries:
       Occupied  (A) (A) (A) (A) (A) (A) (A) (A) (A) (A) (A) (A)
       Virtual   (A) (A) (A) (A) (A) (A) (A) (A) (A) (A) (A) (A)
                 (A) (A) (A) (A) (A) (A) (A) (A) (A) (A) (A) (A)
                 (A) (A) (A) (A) (A) (A) (A) (A) (A) (A) (A) (A)
                 (A) (A) (A) (A) (A) (A) (A) (A) (A) (A) (A) (A)
                 (A) (A) (A) (A) (A) (A) (A)
 Harris functional with IExCor=  205 diagonalized for initial guess.
 ExpMin= 4.38D-02 ExpMax= 5.48D+03 ExpMxC= 8.25D+02 IAcc=2 IRadAn=         0 AccDes= 0.00D+00
 HarFok:  IExCor=  205 AccDes= 0.00D+00 IRadAn=         0 IDoV= 1
 ScaDFX=  1.000000  1.000000  1.000000  1.000000
 FoFCou: FMM=F IPFlag=           0 FMFlag=      100000 FMFlg1=           0
         NFxFlg=           0 DoJE=T BraDBF=F KetDBF=T FulRan=T
         Omega=  0.000000  0.000000  1.000000  0.000000  0.000000 ICntrl=     500 IOpCl=  0
         NMat0=    1 NMatS0=    1 NMatT0=    0 NMatD0=    1 NMtDS0=    0 NMtDT0=    0
         I1Cent=           4 NGrid=           0.
 Petite list used in FoFCou.
 Requested convergence on RMS density matrix=1.00D-08 within 128 cycles.
 Requested convergence on MAX density matrix=1.00D-06.
 Requested convergence on             energy=1.00D-06.
 No special actions if energy rises.
 Keep R1 ints in memory in canonical form, NReq=3448218.
 SCF Done:  E(RHF) =  -188.760807275     A.U. after   13 cycles
             Convg  =    0.6426D-08             -V/T =  2.0023
 Calling FoFJK, ICntrl=      2127 FMM=F ISym2X=0 I1Cent= 0 IOpClX= 0 NMat=1 NMatS=1 NMatT=0.
 ***** Axes restored to original set *****
 -------------------------------------------------------------------
 Center     Atomic                   Forces (Hartrees/Bohr)
 Number     Number              X              Y              Z
 -------------------------------------------------------------------
      1        6          -0.003772585    0.000075554   -0.018052939
      2        1          -0.001322788   -0.005402183    0.002355171
      3        8          -0.000386962    0.000191929   -0.011315861
      4        8           0.005714462    0.005873408    0.017429477
      5        1          -0.000232127   -0.000738708    0.009584152
 -------------------------------------------------------------------
 Cartesian Forces:  Max     0.018052939 RMS     0.008034328

 GradGradGradGradGradGradGradGradGradGradGradGradGradGradGradGradGradGrad
 Berny optimization.
 Using GEDIIS/GDIIS optimizer.
 Internal  Forces:  Max     0.018903615 RMS     0.007219461
 Search for a local minimum.
 Step number   7 out of a maximum of   20
 All quantities printed in internal units (Hartrees-Bohrs-Radians)
 Mixed Optimization -- RFO/linear search
 Update second derivatives using D2CorX and points    5    6    7
 DE= -3.25D-03 DEPred=-1.27D-03 R= 2.56D+00
 SS=  1.41D+00  RLast= 4.20D-01 DXNew= 1.0510D+00 1.2611D+00
 Trust test= 2.56D+00 RLast= 4.20D-01 DXMaxT set to 1.05D+00
 The second derivative matrix:
                          R1        R2        R3        R4        A1
           R1           0.37356
           R2           0.00594   0.40662
           R3           0.04904   0.05135   1.03380
           R4          -0.00123  -0.00355  -0.02402   0.55595
           A1           0.01052  -0.02593  -0.03788  -0.01483   0.23508
           A2          -0.00588  -0.00175   0.00794   0.00042  -0.00008
           A3           0.01439   0.00001   0.18201  -0.01113   0.06795
           A4          -0.00605   0.01189   0.04642   0.00560  -0.02365
           D1          -0.00519   0.00595   0.12593   0.00486  -0.02328
           D2           0.00124  -0.01358  -0.09082  -0.00321   0.01096
                          A2        A3        A4        D1        D2
           A2           0.12375
           A3           0.00644   0.28723
           A4          -0.01238  -0.02026   0.16088
           D1           0.00554  -0.03572   0.00894   0.07531
           D2          -0.00603   0.03289  -0.01063  -0.08951   0.07648
 Use linear search instead of GDIIS.
     Eigenvalues ---   -0.01473   0.09451   0.15558   0.17065   0.22591
     Eigenvalues ---    0.37274   0.40386   0.55576   1.099411000.00000
 RFO step:  Lambda=-2.13862798D-02 EMin=-1.47348217D-02
 Skip linear search -- no minimum in search direction.
 Iteration  1 RMS(Cart)=  0.08149253 RMS(Int)=  0.22926153
 Iteration  2 RMS(Cart)=  0.06797419 RMS(Int)=  0.14094082
 Iteration  3 RMS(Cart)=  0.06567702 RMS(Int)=  0.05628400
 Iteration  4 RMS(Cart)=  0.04844279 RMS(Int)=  0.00336617
 Iteration  5 RMS(Cart)=  0.00267428 RMS(Int)=  0.00140726
 Iteration  6 RMS(Cart)=  0.00000338 RMS(Int)=  0.00140726
 Iteration  7 RMS(Cart)=  0.00000000 RMS(Int)=  0.00140726
 Variable       Old X    -DE/DX   Delta X   Delta X   Delta X     New X
                                 (Linear)    (Quad)   (Total)
    R1        2.06125  -0.00263   0.00000  -0.02045  -0.02045   2.04080
    R2        2.53817   0.00093   0.00000  -0.01363  -0.01363   2.52455
    R3        2.20853   0.01890   0.00000   0.06626   0.06626   2.27479
    R4        1.78519   0.00183   0.00000   0.00797   0.00797   1.79315
    A1        1.95402   0.00028   0.00000   0.00114  -0.00141   1.95261
    A2        2.14493   0.00256   0.00000   0.05183   0.04926   2.19419
    A3        2.18424  -0.00284   0.00000  -0.05311  -0.05566   2.12858
    A4        1.98520  -0.00310   0.00000  -0.03550  -0.03550   1.94970
    D1       -2.00846  -0.01018   0.00000  -0.76557  -0.76525  -2.77372
    D2        1.13435  -0.00498   0.00000  -0.63935  -0.63966   0.49469
         Item               Value     Threshold  Converged?
 Maximum Force            0.018904     0.000450     NO 
 RMS     Force            0.007219     0.000300     NO 
 Maximum Displacement     0.425149     0.001800     NO 
 RMS     Displacement     0.240823     0.001200     NO 
 Predicted change in Energy=-1.963336D-02
 GradGradGradGradGradGradGradGradGradGradGradGradGradGradGradGradGradGrad

                          Input orientation:                          
 ---------------------------------------------------------------------
 Center     Atomic      Atomic             Coordinates (Angstroms)
 Number     Number       Type             X           Y           Z
 ---------------------------------------------------------------------
      1          6           0        0.815692    1.246882   -0.009369
      2          1           0        1.430834    1.036574   -0.871722
      3          8           0       -0.483382    1.078456   -0.271581
      4          8           0        1.217674    1.467460    1.103650
      5          1           0       -1.029766    1.551958    0.342961
 ---------------------------------------------------------------------
                    Distance matrix (angstroms):
                    1          2          3          4          5
     1  C    0.000000
     2  H    1.079945   0.000000
     3  O    1.335932   2.006526   0.000000
     4  O    1.203767   2.033026   2.221750   0.000000
     5  H    1.903398   2.792065   0.948894   2.374190   0.000000
 Stoichiometry    CH2O2
 Framework group  C1[X(CH2O2)]
 Deg. of freedom     9
 Full point group                 C1      NOp   1
 Largest Abelian subgroup         C1      NOp   1
 Largest concise Abelian subgroup C1      NOp   1
                         Standard orientation:                         
 ---------------------------------------------------------------------
 Center     Atomic      Atomic             Coordinates (Angstroms)
 Number     Number       Type             X           Y           Z
 ---------------------------------------------------------------------
      1          6           0        0.135832    0.414450    0.042072
      2          1           0        0.124294    1.494321    0.047327
      3          8           0       -1.095288   -0.096071   -0.049738
      4          8           0        1.118844   -0.277539   -0.020326
      5          1           0       -1.127735   -0.992143    0.260748
 ---------------------------------------------------------------------
 Rotational constants (GHZ):     74.7163854     12.3604353     10.6633452
 Standard basis: 6-31+G(d,p) (6D, 7F)
 There are    67 symmetry adapted basis functions of A   symmetry.
 Integral buffers will be    262144 words long.
 Raffenetti 1 integral format.
 Two-electron integral symmetry is turned on.
    67 basis functions,   110 primitive gaussians,    67 cartesian basis functions
    12 alpha electrons       12 beta electrons
       nuclear repulsion energy        70.5920254005 Hartrees.
 NAtoms=    5 NActive=    5 NUniq=    5 SFac= 7.50D-01 NAtFMM=   80 NAOKFM=F Big=F
 One-electron integrals computed using PRISM.
 NBasis=    67 RedAO= T  NBF=    67
 NBsUse=    67 1.00D-06 NBFU=    67
 Initial guess read from the read-write file.
 B after Tr=     0.000000    0.000000    0.000000
         Rot=    1.000000    0.000000    0.000000    0.000000 Ang=   0.00 deg.
 Initial guess orbital symmetries:
       Occupied  (A) (A) (A) (A) (A) (A) (A) (A) (A) (A) (A) (A)
       Virtual   (A) (A) (A) (A) (A) (A) (A) (A) (A) (A) (A) (A)
                 (A) (A) (A) (A) (A) (A) (A) (A) (A) (A) (A) (A)
                 (A) (A) (A) (A) (A) (A) (A) (A) (A) (A) (A) (A)
                 (A) (A) (A) (A) (A) (A) (A) (A) (A) (A) (A) (A)
                 (A) (A) (A) (A) (A) (A) (A)
 Harris functional with IExCor=  205 diagonalized for initial guess.
 ExpMin= 4.38D-02 ExpMax= 5.48D+03 ExpMxC= 8.25D+02 IAcc=2 IRadAn=         0 AccDes= 0.00D+00
 HarFok:  IExCor=  205 AccDes= 0.00D+00 IRadAn=         0 IDoV= 1
 ScaDFX=  1.000000  1.000000  1.000000  1.000000
 FoFCou: FMM=F IPFlag=           0 FMFlag=      100000 FMFlg1=           0
         NFxFlg=           0 DoJE=T BraDBF=F KetDBF=T FulRan=T
         Omega=  0.000000  0.000000  1.000000  0.000000  0.000000 ICntrl=     500 IOpCl=  0
         NMat0=    1 NMatS0=    1 NMatT0=    0 NMatD0=    1 NMtDS0=    0 NMtDT0=    0
         I1Cent=           4 NGrid=           0.
 Petite list used in FoFCou.
 Requested convergence on RMS density matrix=1.00D-08 within 128 cycles.
 Requested convergence on MAX density matrix=1.00D-06.
 Requested convergence on             energy=1.00D-06.
 No special actions if energy rises.
 Keep R1 ints in memory in canonical form, NReq=3448218.
 SCF Done:  E(RHF) =  -188.771551203     A.U. after   14 cycles
             Convg  =    0.8215D-08             -V/T =  2.0032
 Calling FoFJK, ICntrl=      2127 FMM=F ISym2X=0 I1Cent= 0 IOpClX= 0 NMat=1 NMatS=1 NMatT=0.
 ***** Axes restored to original set *****
 -------------------------------------------------------------------
 Center     Atomic                   Forces (Hartrees/Bohr)
 Number     Number              X              Y              Z
 -------------------------------------------------------------------
      1        6          -0.009474947   -0.012877159    0.052539315
      2        1           0.001329769    0.002754218   -0.001121054
      3        8           0.009099744    0.013276442   -0.016289624
      4        8          -0.004505739    0.003564236   -0.041201018
      5        1           0.003551173   -0.006717737    0.006072381
 -------------------------------------------------------------------
 Cartesian Forces:  Max     0.052539315 RMS     0.018931718

 GradGradGradGradGradGradGradGradGradGradGradGradGradGradGradGradGradGrad
 Berny optimization.
 Using GEDIIS/GDIIS optimizer.
 Internal  Forces:  Max     0.038946529 RMS     0.015821429
 Search for a local minimum.
 Step number   8 out of a maximum of   20
 All quantities printed in internal units (Hartrees-Bohrs-Radians)
 Mixed Optimization -- RFO/linear search
 Update second derivatives using D2CorX and points    7    8
 DE= -1.07D-02 DEPred=-1.96D-02 R= 5.47D-01
 SS=  1.41D+00  RLast= 1.00D+00 DXNew= 1.7675D+00 3.0099D+00
 Trust test= 5.47D-01 RLast= 1.00D+00 DXMaxT set to 1.77D+00
 The second derivative matrix:
                          R1        R2        R3        R4        A1
           R1           0.37580
           R2          -0.00038   0.42636
           R3           0.01710   0.14716   1.50653
           R4          -0.00317   0.00198   0.00377   0.55762
           A1           0.00704  -0.01680   0.00974  -0.01186   0.24071
           A2          -0.01188   0.01492   0.09282   0.00559   0.00933
           A3           0.02337  -0.03007   0.03976  -0.01906   0.05563
           A4          -0.00733   0.01687   0.06875   0.00676  -0.02213
           D1           0.00158  -0.01990   0.00929  -0.00124  -0.03148
           D2          -0.00886   0.01404   0.05073   0.00547   0.02693
                          A2        A3        A4        D1        D2
           A2           0.13987
           A3          -0.01703   0.33490
           A4          -0.00912  -0.02874   0.16258
           D1          -0.01175   0.00798   0.00031   0.11927
           D2           0.02114  -0.00557  -0.00545  -0.11713   0.12238
 Use linear search instead of GDIIS.
     Eigenvalues ---    0.00186   0.15674   0.17170   0.20975   0.27895
     Eigenvalues ---    0.37955   0.41820   0.55917   1.534581000.00000
 RFO step:  Lambda=-8.48313136D-03 EMin= 1.85647184D-03
 Quartic linear search produced a step of  0.20546.
 Iteration  1 RMS(Cart)=  0.06611660 RMS(Int)=  0.14852604
 Iteration  2 RMS(Cart)=  0.06374656 RMS(Int)=  0.06133483
 Iteration  3 RMS(Cart)=  0.03868047 RMS(Int)=  0.00323183
 Iteration  4 RMS(Cart)=  0.00309731 RMS(Int)=  0.00110734
 Iteration  5 RMS(Cart)=  0.00001267 RMS(Int)=  0.00110729
 Iteration  6 RMS(Cart)=  0.00000000 RMS(Int)=  0.00110729
 Variable       Old X    -DE/DX   Delta X   Delta X   Delta X     New X
                                 (Linear)    (Quad)   (Total)
    R1        2.04080   0.00112  -0.00420  -0.00720  -0.01140   2.02940
    R2        2.52455  -0.01112  -0.00280  -0.02224  -0.02504   2.49951
    R3        2.27479  -0.03895   0.01361  -0.01372  -0.00010   2.27469
    R4        1.79315  -0.00146   0.00164   0.00172   0.00335   1.79650
[...]
 Alpha  occ. eigenvalues --   -0.50088  -0.47592
 Alpha virt. eigenvalues --    0.07567   0.08663   0.09603   0.10534   0.18051
 Alpha virt. eigenvalues --    0.23239   0.26726   0.28339   0.29332   0.32753
 Alpha virt. eigenvalues --    0.33708   0.35342   0.35668   0.39599   0.41884
 Alpha virt. eigenvalues --    0.55295   0.66297   0.84751   0.94383   1.01287
 Alpha virt. eigenvalues --    1.11627   1.18404   1.26510   1.37550   1.40994
 Alpha virt. eigenvalues --    1.48575   1.50156   1.50419   1.56949   1.62144
 Alpha virt. eigenvalues --    1.66310   1.73358   1.78918   1.86911   1.96389
 Alpha virt. eigenvalues --    2.09561   2.10931   2.17628   2.40438   2.44204
 Alpha virt. eigenvalues --    2.51652   2.72536   2.82214   2.86953   2.88135
 Alpha virt. eigenvalues --    3.10498   3.10766   3.26415   3.44498   3.48647
 Alpha virt. eigenvalues --    3.82925   3.94557   4.54829   4.58228   4.85760
          Condensed to atoms (all electrons):
              1          2          3          4          5
     1  C    4.302186   0.457674   0.192546   0.507560  -0.004497
     2  H    0.457674   0.558094  -0.108905  -0.050375   0.006466
     3  O    0.192546  -0.108905   8.300239  -0.121389   0.264425
     4  O    0.507560  -0.050375  -0.121389   8.195853   0.010018
     5  H   -0.004497   0.006466   0.264425   0.010018   0.336580
 Mulliken atomic charges:
              1
     1  C    0.544531
     2  H    0.137046
     3  O   -0.526917
     4  O   -0.541668
     5  H    0.387008
 Sum of Mulliken atomic charges =   0.00000
 Mulliken charges with hydrogens summed into heavy atoms:
              1
     1  C    0.681577
     3  O   -0.139909
     4  O   -0.541668
 Sum of Mulliken charges with hydrogens summed into heavy atoms =   0.00000
 APT atomic charges:
              1
     1  C    1.346029
     2  H    0.010957
     3  O   -0.829080
     4  O   -0.872829
     5  H    0.344923
 Sum of APT charges=   0.00000
 APT Atomic charges with hydrogens summed into heavy atoms:
              1
     1  C    1.356987
     2  H    0.000000
     3  O   -0.484157
     4  O   -0.872829
     5  H    0.000000
 Sum of APT charges=   0.00000
 Electronic spatial extent (au):  <R**2>=            130.6220
 Charge=              0.0000 electrons
 Dipole moment (field-independent basis, Debye):
    X=             -1.6786    Y=              0.3959    Z=              0.0004  Tot=              1.7247
 Quadrupole moment (field-independent basis, Debye-Ang):
   XX=            -21.9906   YY=            -13.4132   ZZ=            -16.9605
   XY=              3.1589   XZ=             -0.0004   YZ=             -0.0004
 Traceless Quadrupole moment (field-independent basis, Debye-Ang):
   XX=             -4.5358   YY=              4.0415   ZZ=              0.4943
   XY=              3.1589   XZ=             -0.0004   YZ=             -0.0004
 Octapole moment (field-independent basis, Debye-Ang**2):
  XXX=             -3.3849  YYY=             -1.4037  ZZZ=              0.0001  XYY=             -3.3609
  XXY=             -2.3769  XXZ=              0.0004  XZZ=             -0.1013  YZZ=             -0.3089
  YYZ=              0.0005  XYZ=              0.0005
 Hexadecapole moment (field-independent basis, Debye-Ang**3):
 XXXX=           -110.1590 YYYY=            -26.2703 ZZZZ=            -14.1042 XXXY=              4.7715
 XXXZ=             -0.0007 YYYX=              5.0301 YYYZ=             -0.0006 ZZZX=             -0.0003
 ZZZY=             -0.0002 XXYY=            -19.6835 XXZZ=            -20.1661 YYZZ=             -7.8659
 XXYZ=             -0.0006 YYXZ=             -0.0005 ZZXY=              0.4504
 N-N= 7.128145142375D+01 E-N=-5.881898557159D+02  KE= 1.882957397803D+02
  Exact polarizability:  21.796  -1.519  18.674   0.000   0.000  11.507
 Approx polarizability:  18.660  -1.977  15.949   0.000   0.000  10.781
 Calling FoFJK, ICntrl=    100127 FMM=F ISym2X=0 I1Cent= 0 IOpClX= 0 NMat=1 NMatS=1 NMatT=0.
 Full mass-weighted force constant matrix:
 Low frequencies ---   -3.8174    0.0018    0.0018    0.0020    5.5474   10.5129
 Low frequencies ---  689.6543  698.4670 1187.3750
 Diagonal vibrational polarizability:
        9.3532163       3.7901826      11.2555183
 Diagonal vibrational hyperpolarizability:
      -15.6717851       1.1205320       0.0101831
 Harmonic frequencies (cm**-1), IR intensities (KM/Mole), Raman scattering
 activities (A**4/AMU), depolarization ratios for plane and unpolarized
 incident light, reduced masses (AMU), force constants (mDyne/A),
 and normal coordinates:
                     1                      2                      3
                     A                      A                      A
 Frequencies --   689.6542               698.4670              1187.3750
 Red. masses --     3.4162                 1.2331                 1.6129
 Frc consts  --     0.9573                 0.3544                 1.3397
 IR Inten    --    64.1190               203.8754                 0.4836
 Raman Activ --     2.7405                 0.3559                 1.9339
 Depolar (P) --     0.5334                 0.7500                 0.7500
 Depolar (U) --     0.6957                 0.8571                 0.8571
  Atom  AN      X      Y      Z        X      Y      Z        X      Y      Z
     1   6    -0.01   0.23   0.00     0.00   0.00   0.08     0.00   0.00   0.22
     2   1     0.09   0.23   0.00     0.00   0.00   0.22     0.00   0.00  -0.97
     3   8     0.20  -0.08   0.00     0.00   0.00  -0.09     0.00   0.00  -0.04
     4   8    -0.25  -0.11   0.00     0.00   0.00  -0.04     0.00   0.00  -0.06
     5   1     0.87  -0.06  -0.01     0.00   0.00   0.97     0.00   0.00  -0.10
                     4                      5                      6
                     A                      A                      A
 Frequencies --  1265.8331              1415.5915              1534.7047
 Red. masses --     2.8024                 1.8776                 1.1622
 Frc consts  --     2.6456                 2.2168                 1.6128
 IR Inten    --   304.7007                31.8806                11.3870
 Raman Activ --     2.1039                 1.2895                 5.5177
 Depolar (P) --     0.0711                 0.2950                 0.5780
 Depolar (U) --     0.1328                 0.4556                 0.7326
  Atom  AN      X      Y      Z        X      Y      Z        X      Y      Z
     1   6    -0.14  -0.14   0.00     0.16   0.18   0.00    -0.04  -0.04   0.00
     2   1    -0.51  -0.14   0.00    -0.08   0.20   0.00     0.97  -0.04   0.00
     3   8     0.28   0.06   0.00    -0.02  -0.11   0.00     0.03  -0.03   0.00
     4   8    -0.09   0.04   0.00    -0.04  -0.03   0.00    -0.05   0.07   0.00
     5   1    -0.77   0.05   0.00    -0.93  -0.11   0.00    -0.21  -0.03   0.00
                     7                      8                      9
                     A                      A                      A
 Frequencies --  2004.4949              3295.8660              4111.3194
 Red. masses --     8.2422                 1.0952                 1.0652
 Frc consts  --    19.5120                 7.0093                10.6085
 IR Inten    --   529.4977                41.9189               119.1042
 Raman Activ --    10.9653                92.0877                51.2225
 Depolar (P) --     0.1762                 0.2769                 0.2257
 Depolar (U) --     0.2996                 0.4337                 0.3682
  Atom  AN      X      Y      Z        X      Y      Z        X      Y      Z
     1   6     0.55  -0.32   0.00     0.00  -0.09   0.00     0.00   0.00   0.00
     2   1    -0.35  -0.40   0.00     0.00   1.00   0.00     0.00  -0.01   0.00
     3   8    -0.06   0.02   0.00     0.00   0.00   0.00     0.00   0.06   0.00
     4   8    -0.35   0.24   0.00     0.00   0.00   0.00     0.00   0.00   0.00
     5   1     0.35   0.03   0.00     0.01  -0.02   0.00     0.01  -1.00   0.00

 -------------------
 - Thermochemistry -
 -------------------
 Temperature   298.150 Kelvin.  Pressure   1.00000 Atm.
 Atom     1 has atomic number  6 and mass  12.00000
 Atom     2 has atomic number  1 and mass   1.00783
 Atom     3 has atomic number  8 and mass  15.99491
 Atom     4 has atomic number  8 and mass  15.99491
 Atom     5 has atomic number  1 and mass   1.00783
 Molecular mass:    46.00548 amu.
 Principal axes and moments of inertia in atomic units:
                           1         2         3
     Eigenvalues --    22.65777 144.95329 167.61106
           X            0.99932   0.03695   0.00000
           Y           -0.03695   0.99932  -0.00001
           Z            0.00000   0.00001   1.00000
 This molecule is an asymmetric top.
 Rotational symmetry number  1.
 Rotational temperatures (Kelvin)      3.82270     0.59753     0.51675
 Rotational constants (GHZ):          79.65221    12.45050    10.76744
 Zero-point vibrational energy      96917.3 (Joules/Mol)
                                   23.16379 (Kcal/Mol)
 Vibrational temperatures:    992.26  1004.94  1708.37  1821.25  2036.72
          (Kelvin)           2208.09  2884.02  4742.01  5915.26
 
 Zero-point correction=                           0.036914 (Hartree/Particle)
 Thermal correction to Energy=                    0.040019
 Thermal correction to Enthalpy=                  0.040963
 Thermal correction to Gibbs Free Energy=         0.012897
 Sum of electronic and zero-point Energies=           -188.740601
 Sum of electronic and thermal Energies=              -188.737496
 Sum of electronic and thermal Enthalpies=            -188.736552
 Sum of electronic and thermal Free Energies=         -188.764618
 
                     E (Thermal)             CV                S
                      KCal/Mol        Cal/Mol-Kelvin    Cal/Mol-Kelvin
 Total                   25.112              8.200             59.070
 Electronic               0.000              0.000              0.000
 Translational            0.889              2.981             37.404
 Rotational               0.889              2.981             20.937
 Vibrational             23.335              2.239              0.730
                       Q            Log10(Q)             Ln(Q)
 Total Bot       0.116930D-05         -5.932074        -13.659106
 Total V=0       0.111450D+12         11.047080         25.436843
 Vib (Bot)       0.113510D-16        -16.944964        -39.017222
 Vib (V=0)       0.108191D+01          0.034190          0.078726
 Electronic      0.100000D+01          0.000000          0.000000
 Translational   0.122651D+08          7.088670         16.322265
 Rotational      0.839886D+04          3.924220          9.035851
 ***** Axes restored to original set *****
 -------------------------------------------------------------------
 Center     Atomic                   Forces (Hartrees/Bohr)
 Number     Number              X              Y              Z
 -------------------------------------------------------------------
      1        6          -0.000055989   -0.000001845    0.000019621
      2        1          -0.000015260   -0.000005369   -0.000022716
      3        8           0.000057105    0.000010298    0.000009703
      4        8          -0.000005583    0.000007255    0.000004468
      5        1           0.000019727   -0.000010339   -0.000011077
 -------------------------------------------------------------------
 Cartesian Forces:  Max     0.000057105 RMS     0.000023783

 GradGradGradGradGradGradGradGradGradGradGradGradGradGradGradGradGradGrad
 Berny optimization.
 Internal  Forces:  Max     0.000073814 RMS     0.000028122
 Search for a local minimum.
 Step number   1 out of a maximum of    2
 All quantities printed in internal units (Hartrees-Bohrs-Radians)
 Second derivative matrix not updated -- analytic derivatives used.
 The second derivative matrix:
                          R1        R2        R3        R4        A1
           R1           0.38368
           R2           0.01428   0.51266
           R3           0.02649   0.10775   1.05999
           R4          -0.00178   0.00847  -0.00646   0.60784
           A1           0.01141   0.02191  -0.04920   0.00801   0.14052
           A2           0.00334  -0.04200   0.01068   0.00321  -0.03324
           A3          -0.01476   0.02009   0.03852  -0.01122  -0.10727
           A4           0.00462   0.03301   0.00305   0.02624   0.02861
           D1           0.00000   0.00000   0.00001   0.00000   0.00000
           D2           0.00000  -0.00001   0.00000   0.00000   0.00000
                          A2        A3        A4        D1        D2
           A2           0.13571
           A3          -0.10246   0.20974
           A4           0.00495  -0.03356   0.18958
           D1           0.00000   0.00001   0.00000   0.11831
           D2           0.00000  -0.00001  -0.00001  -0.09768   0.11857
     Eigenvalues ---    0.02076   0.15539   0.17758   0.21611   0.31624
     Eigenvalues ---    0.38861   0.50419   0.61150   1.086191000.00000
 Angle between quadratic step and forces=  55.80 degrees.
 Linear search not attempted -- first point.
 Iteration  1 RMS(Cart)=  0.00011873 RMS(Int)=  0.00000001
 Iteration  2 RMS(Cart)=  0.00000001 RMS(Int)=  0.00000000
 Variable       Old X    -DE/DX   Delta X   Delta X   Delta X     New X
                                 (Linear)    (Quad)   (Total)
    R1        2.04860   0.00001   0.00000   0.00003   0.00003   2.04863
    R2        2.49706  -0.00007   0.00000  -0.00013  -0.00013   2.49693
    R3        2.23683   0.00000   0.00000   0.00001   0.00001   2.23684
    R4        1.79419  -0.00002   0.00000  -0.00003  -0.00003   1.79416
    A1        1.93252  -0.00003   0.00000  -0.00014  -0.00014   1.93238
    A2        2.17297   0.00002   0.00000   0.00012   0.00012   2.17309
    A3        2.17769   0.00001   0.00000   0.00002   0.00002   2.17772
    A4        1.91255  -0.00002   0.00000  -0.00004  -0.00004   1.91251
    D1       -3.14137   0.00000   0.00000  -0.00022  -0.00022   3.14159
    D2        0.00027  -0.00001   0.00000  -0.00027  -0.00027   0.00000
         Item               Value     Threshold  Converged?
 Maximum Force            0.000074     0.000450     YES
 RMS     Force            0.000028     0.000300     YES
 Maximum Displacement     0.000168     0.001800     YES
 RMS     Displacement     0.000119     0.001200     YES
 Predicted change in Energy=-1.048144D-08
 Optimization completed.
    -- Stationary point found.
                           ----------------------------
                           !   Optimized Parameters   !
                           ! (Angstroms and Degrees)  !
 --------------------------                            --------------------------
 ! Name  Definition              Value          Derivative Info.                !
 --------------------------------------------------------------------------------
 ! R1    R(1,2)                  1.0841         -DE/DX =    0.0                 !
 ! R2    R(1,3)                  1.3214         -DE/DX =   -0.0001              !
 ! R3    R(1,4)                  1.1837         -DE/DX =    0.0                 !
 ! R4    R(3,5)                  0.9494         -DE/DX =    0.0                 !
 ! A1    A(2,1,3)              110.7253         -DE/DX =    0.0                 !
 ! A2    A(2,1,4)              124.502          -DE/DX =    0.0                 !
 ! A3    A(3,1,4)              124.7727         -DE/DX =    0.0                 !
 ! A4    A(1,3,5)              109.5811         -DE/DX =    0.0                 !
 ! D1    D(2,1,3,5)            180.0128         -DE/DX =    0.0                 !
 ! D2    D(4,1,3,5)              0.0154         -DE/DX =    0.0                 !
 --------------------------------------------------------------------------------
 GradGradGradGradGradGradGradGradGradGradGradGradGradGradGradGradGradGrad

 1|1|UNPC-DESKTOP-319GPER|Freq|RHF|6-31+G(d,p)|C1H2O2|SAGAD|16-Nov-2020
 |0||#N Geom=AllCheck Guess=TCheck SCRF=Check GenChk RHF/6-31+G(d,p) Fr
 eq||Formic Acid HF||0,1|C,0.801110103,1.2381383086,-0.0007855282|H,1.4
 307600741,0.9761254632,-0.8434610535|O,-0.4745222207,1.21311011,-0.344
 5808933|O,1.2041608996,1.5091071721,1.0786693736|H,-1.010456096,1.4448
 48846,0.4040969314||Version=IA32W-G09RevA.02|State=1-A|HF=-188.7775149
 |RMSD=3.436e-010|RMSF=2.378e-005|ZeroPoint=0.0369138|Thermal=0.0400188
 |Dipole=-0.4402324,-0.1128375,-0.50386|DipoleDeriv=1.9230294,0.0733167
 ,0.554331,0.0656056,0.5515737,0.262962,0.5258411,0.2644742,1.5634851,0
 .0011243,0.0209983,0.0599942,0.0219166,0.0778149,-0.0400285,0.0633494,
 -0.0402145,-0.0460668,-1.4703268,-0.0640784,-0.4299738,0.0223179,-0.48
 70924,0.0119544,-0.111005,-0.0050562,-0.5298217,-0.8459126,-0.0233366,
 -0.1579649,-0.1066842,-0.5295432,-0.197902,-0.4655228,-0.1814668,-1.24
 30327,0.3920857,-0.0069,-0.0263865,-0.0031559,0.387247,-0.0369859,-0.0
 126627,-0.0377366,0.2554361|Polar=19.2374126,0.1234797,12.1395044,1.98
 10105,2.358239,20.5995822|PolarDeriv=-1.4022631,0.2564281,-0.2272904,0
 .8636011,-1.1188117,-3.4781679,0.3289483,-1.5050816,-1.1700399,-1.3470
 594,-1.4607873,0.7912163,1.370135,-1.3545505,-1.0815283,-5.5343742,0.8
 017378,-1.4839184,3.1647579,-0.8033611,0.784655,-2.6803667,0.5747572,2
 .3925746,-0.6990614,1.3121621,-0.9607488,0.6147374,-1.250299,-1.033573
 5,-2.3965825,0.6155513,-0.9537364,3.0565527,-1.1500025,-5.336817,-1.88
 06199,-0.8680786,-0.7548389,-3.170819,0.6165532,0.8462252,-1.1731572,-
 0.8620081,-0.4443283,0.5617373,-1.0210384,-0.7632059,-4.2730327,0.6426
 207,-0.6122369,0.528993,-0.857276,-4.2444419,3.9980984,0.8920786,0.688
 6308,3.6040071,0.1819663,1.3787404,0.5002618,1.9521909,2.1367972,0.647
 8879,3.2171513,0.4465221,1.9355292,0.6813523,2.1486516,4.2260976,0.576
 5713,8.492564,-3.8799733,0.522933,-0.4911565,1.3835775,-0.254465,-1.13
 93723,1.0430086,-0.8972634,0.4383198,-0.4773032,0.5149735,0.559041,3.3
 63951,-0.5849737,0.49885,-2.2772691,0.6289694,2.5726133|HyperPolar=9.8
 822848,0.5244214,-4.4764034,-3.1238791,5.69436,0.7826598,-5.7598878,0.
 2358169,-6.3684575,-31.9342186|PG=C01 [X(C1H2O2)]|NImag=0||0.78570844,
 -0.00547195,0.31184361,0.08669960,0.24994344,1.18323422,-0.16479291,0.
 03833294,0.12512293,0.18711560,0.04099689,-0.09673150,-0.04640822,-0.0
 4536887,0.05315703,0.13495229,-0.04693105,-0.22852692,-0.13686714,0.06
 830465,0.25728180,-0.37290218,0.00495394,-0.04008905,-0.03644418,0.000
 84831,-0.00714338,0.67382134,0.01201063,-0.08259934,-0.01902582,0.0110
 8081,0.01473596,-0.00108155,-0.06767656,0.09010655,-0.01410195,-0.0204
 1867,-0.15488403,0.03060758,-0.00309776,0.01021869,-0.12575302,0.14759
 987,0.56589926,-0.20873559,-0.05426763,-0.22358655,0.02013428,0.003678
 10,0.01206870,-0.05088661,-0.02039576,-0.09206538,0.22789763,-0.049117
 47,-0.13815347,-0.18556116,-0.00385194,0.02276196,-0.01917280,-0.01807
 312,0.03252718,-0.01027595,0.07243335,0.08944170,-0.20459349,-0.186578
 82,-0.81937378,-0.01571861,-0.01768579,-0.04062018,-0.08348670,-0.0107
 3517,-0.02172363,0.30531179,0.21473388,0.88776688,-0.03927777,0.016452
 69,0.05185306,-0.00601280,-0.00015443,-0.00301047,-0.21358837,0.064980
 88,0.20131277,0.01159028,-0.00139081,-0.00151299,0.24728865,0.00158190
 ,0.00564070,0.00105175,-0.00019294,0.00607655,-0.00111926,0.07994743,-
 0.05477036,-0.11380749,-0.00144807,-0.00657737,0.00026590,-0.07988832,
 0.04963048,-0.00295645,0.00398510,0.01955051,-0.00314477,-0.00111288,0
 .00164661,0.25647215,-0.11675734,-0.39951028,-0.00172856,0.00027602,-0
 .00604929,-0.24864237,0.11360911,0.38436246||0.00005599,0.00000184,-0.
 00001962,0.00001526,0.00000537,0.00002272,-0.00005711,-0.00001030,-0.0
 0000970,0.00000558,-0.00000725,-0.00000447,-0.00001973,0.00001034,0.00
 001108|||@


 A HARD FALL SHOULD MEAN A HIGH BOUNCE 
 IF ONE IS MADE OF THE RIGHT MATERIAL.

                -- THE CHEMIST ANALYST, MARCH 1950
 Job cpu time:  0 days  0 hours  0 minutes  8.0 seconds.
 File lengths (MBytes):  RWF=      5 Int=      0 D2E=      0 Chk=      1 Scr=      1
 Normal termination of Gaussian 09 at Mon Nov 16 22:54:00 2020.
