 Entering Link 1 = C:\G09W\l1.exe PID=       292.
  
 Copyright (c) 1988,1990,1992,1993,1995,1998,2003,2009, Gaussian, Inc.
                  All Rights Reserved.
  
 This is part of the Gaussian(R) 09 program.  It is based on
 the Gaussian(R) 03 system (copyright 2003, Gaussian, Inc.),
 the Gaussian(R) 98 system (copyright 1998, Gaussian, Inc.),
 the Gaussian(R) 94 system (copyright 1995, Gaussian, Inc.),
 the Gaussian 92(TM) system (copyright 1992, Gaussian, Inc.),
 the Gaussian 90(TM) system (copyright 1990, Gaussian, Inc.),
 the Gaussian 88(TM) system (copyright 1988, Gaussian, Inc.),
 the Gaussian 86(TM) system (copyright 1986, Carnegie Mellon
 University), and the Gaussian 82(TM) system (copyright 1983,
 Carnegie Mellon University). Gaussian is a federally registered
 trademark of Gaussian, Inc.
  
 This software contains proprietary and confidential information,
 including trade secrets, belonging to Gaussian, Inc.
  
 This software is provided under written license and may be
 used, copied, transmitted, or stored only in accord with that
 written license.
  
 The following legend is applicable only to US Government
 contracts under FAR:
  
                    RESTRICTED RIGHTS LEGEND
  
 Use, reproduction and disclosure by the US Government is
 subject to restrictions as set forth in subparagraphs (a)
 and (c) of the Commercial Computer Software - Restricted
 Rights clause in FAR 52.227-19.
  
 Gaussian, Inc.
 340 Quinnipiac St., Bldg. 40, Wallingford CT 06492
  
  
 ---------------------------------------------------------------
 Warning -- This program may not be used in any manner that
 competes with the business of Gaussian, Inc. or will provide
 assistance to any competitor of Gaussian, Inc.  The licensee
 of this program is prohibited from giving any competitor of
 Gaussian, Inc. access to this program.  By using this program,
 the user acknowledges that Gaussian, Inc. is engaged in the
 business of creating and licensing software in the field of
 computational chemistry and represents and warrants to the
 licensee that it is not a competitor of Gaussian, Inc. and that
 it will not use this program in any manner prohibited above.
 ---------------------------------------------------------------
  

 Cite this work as:
 Gaussian 09, Revision A.02,
 M. J. Frisch, G. W. Trucks, H. B. Schlegel, G. E. Scuseria, 
 M. A. Robb, J. R. Cheeseman, G. Scalmani, V. Barone, B. Mennucci, 
 G. A. Petersson, H. Nakatsuji, M. Caricato, X. Li, H. P. Hratchian, 
 A. F. Izmaylov, J. Bloino, G. Zheng, J. L. Sonnenberg, M. Hada, 
 M. Ehara, K. Toyota, R. Fukuda, J. Hasegawa, M. Ishida, T. Nakajima, 
 Y. Honda, O. Kitao, H. Nakai, T. Vreven, J. A. Montgomery, Jr., 
 J. E. Peralta, F. Ogliaro, M. Bearpark, J. J. Heyd, E. Brothers, 
 K. N. Kudin, V. N. Staroverov, R. Kobayashi, J. Normand, 
 K. Raghavachari, A. Rendell, J. C. Burant, S. S. Iyengar, J. Tomasi, 
 M. Cossi, N. Rega, J. M. Millam, M. Klene, J. E. Knox, J. B. Cross, 
 V. Bakken, C. Adamo, J. Jaramillo, R. Gomperts, R. E. Stratmann, 
 O. Yazyev, A. J. Austin, R. Cammi, C. Pomelli, J. W. Ochterski, 
 R. L. Martin, K. Morokuma, V. G. Zakrzewski, G. A. Voth, 
 P. Salvador, J. J. Dannenberg, S. Dapprich, A. D. Daniels, 
 O. Farkas, J. B. Foresman, J. V. Ortiz, J. Cioslowski, 
 and D. J. Fox, Gaussian, Inc., Wallingford CT, 2009.
 
 ******************************************
 Gaussian 09:  IA32W-G09RevA.02 11-Jun-2009
                09-Nov-2020 
 ******************************************
 %chk=C:\Users\sagad\Documents\rayGit\FQ\quimicaComputacional\clase8Pka\productos
 \hidroniumM062x.chk
 %mem=1500mb
 %nprocshared=4
 Will use up to    4 processors via shared memory.
 -------------------------------------
 # opt freq 6-31+g(d,p) scrf=smd m062x
 -------------------------------------
 1/14=-1,18=20,19=15,26=3,38=1/1,3;
 2/9=110,12=2,17=6,18=5,40=1/2;
 3/5=1,6=6,7=111,11=2,16=1,25=1,30=1,70=32201,71=1,72=1,74=-55/1,2,3;
 4//1;
 5/5=2,38=5/2;
 6/7=2,8=2,9=2,10=2,28=1/1;
 7//1,2,3,16;
 1/14=-1,18=20,19=15/3(2);
 2/9=110/2;
 99//99;
 2/9=110/2;
 3/5=1,6=6,7=111,11=2,16=1,25=1,30=1,70=32205,71=1,74=-55/1,2,3;
 4/5=5,16=3/1;
 5/5=2,38=5/2;
 7//1,2,3,16;
 1/14=-1,18=20,19=15/3(-5);
 2/9=110/2;
 6/7=2,8=2,9=2,10=2,19=2,28=1/1;
 99/9=1/99;
 ------------------------------
 hidronio en medio acuoso m062x
 ------------------------------
 Symbolic Z-matrix:
 Charge =  1 Multiplicity = 1
 O                    -0.29799   1.6632    0. 
 H                     0.61703   1.60429  -0.28435 
 H                    -0.65896   2.50608  -0.28435 
 H                    -0.85205   0.87922   0. 
 

 GradGradGradGradGradGradGradGradGradGradGradGradGradGradGradGradGradGrad
 Berny optimization.
 Initialization pass.
                           ----------------------------
                           !    Initial Parameters    !
                           ! (Angstroms and Degrees)  !
 --------------------------                            --------------------------
 ! Name  Definition              Value          Derivative Info.                !
 --------------------------------------------------------------------------------
 ! R1    R(1,2)                  0.96           estimate D2E/DX2                !
 ! R2    R(1,3)                  0.96           estimate D2E/DX2                !
 ! R3    R(1,4)                  0.96           estimate D2E/DX2                !
 ! A1    A(2,1,3)              108.9373         estimate D2E/DX2                !
 ! A2    A(2,1,4)              120.0            estimate D2E/DX2                !
 ! A3    A(3,1,4)              120.0            estimate D2E/DX2                !
 ! D1    D(2,1,4,3)           -140.0            estimate D2E/DX2                !
 --------------------------------------------------------------------------------
 Trust Radius=3.00D-01 FncErr=1.00D-07 GrdErr=1.00D-06
 Number of steps in this run=  20 maximum allowed number of steps= 100.
 GradGradGradGradGradGradGradGradGradGradGradGradGradGradGradGradGradGrad

                          Input orientation:                          
 ---------------------------------------------------------------------
 Center     Atomic      Atomic             Coordinates (Angstroms)
 Number     Number       Type             X           Y           Z
 ---------------------------------------------------------------------
      1          8           0       -0.297994    1.663198    0.000000
      2          1           0        0.617033    1.604294   -0.284350
      3          1           0       -0.658962    2.506078   -0.284350
      4          1           0       -0.852053    0.879222    0.000000
 ---------------------------------------------------------------------
                    Distance matrix (angstroms):
                    1          2          3          4
     1  O    0.000000
     2  H    0.960000   0.000000
     3  H    0.960000   1.562492   0.000000
     4  H    0.960000   1.662769   1.662769   0.000000
 Stoichiometry    H3O(1+)
 Framework group  CS[SG(HO),X(H2)]
 Deg. of freedom     4
 Full point group                 CS      NOp   2
 Largest Abelian subgroup         CS      NOp   2
 Largest concise Abelian subgroup CS      NOp   2
                         Standard orientation:                         
 ---------------------------------------------------------------------
 Center     Atomic      Atomic             Coordinates (Angstroms)
 Number     Number       Type             X           Y           Z
 ---------------------------------------------------------------------
      1          8           0        0.000000    0.051700    0.000000
      2          1           0        0.480000   -0.232650    0.781246
      3          1           0        0.480000   -0.232650   -0.781246
      4          1           0       -0.960000    0.051700    0.000000
 ---------------------------------------------------------------------
 Rotational constants (GHZ):    383.4529320    328.3985079    188.4733448
 Standard basis: 6-31+G(d,p) (6D, 7F)
 There are    23 symmetry adapted basis functions of A'  symmetry.
 There are    11 symmetry adapted basis functions of A"  symmetry.
 Integral buffers will be    262144 words long.
 Raffenetti 2 integral format.
 Two-electron integral symmetry is turned on.
    34 basis functions,    53 primitive gaussians,    34 cartesian basis functions
     5 alpha electrons        5 beta electrons
       nuclear repulsion energy        14.2046067441 Hartrees.
 NAtoms=    4 NActive=    4 NUniq=    3 SFac= 1.33D+00 NAtFMM=   80 NAOKFM=F Big=F
 ------------------------------------------------------------------------------
 Polarizable Continuum Model (PCM)
 =================================
 Model                : PCM.
 Atomic radii         : SMD-Coulomb.
 Polarization charges : Total charges.
 Charge compensation  : None.
 Solution method      : Matrix inversion.
 Cavity type          : VdW (van der Waals Surface) (Alpha=1.000).
 Cavity algorithm     : GePol (No added spheres)
                        Default sphere list used, NSphG=    4.
                        Lebedev-Laikov grids with approx.  5.0 points / Ang**2.
                        Smoothing algorithm: Karplus/York (Gamma=1.0000).
                        Polarization charges: spherical gaussians, with
                                              point-specific exponents (IZeta= 3).
                        Self-potential: point-specific (ISelfS= 7).
                        Self-field    : sphere-specific E.n sum rule (ISelfD= 2).
 1st derivatives      : Analytical E(r).r(x)/FMM algorithm (CHGder, D1EAlg=3).
                        Cavity 1st derivative terms included.
 Solvent              : Water, Eps=  78.355300 Eps(inf)=   1.777849
 ------------------------------------------------------------------------------
 Spheres list:
 ISph  on   Nord    Re0     Alpha      Xe            Ye            Ze
    1   O      1    1.520   1.000      0.000000      0.051700      0.000000
    2   H      2    1.200   1.000      0.480000     -0.232650      0.781246
    3   H      3    1.200   1.000      0.480000     -0.232650     -0.781246
    4   H      4    1.200   1.000     -0.960000      0.051700      0.000000
 ------------------------------------------------------------------------------
 ------------------------------------------------------------------------------
 Atomic radii for non-electrostatic terms: SMD-CDS.
 ------------------------------------------------------------------------------
 Nuclear repulsion after PCM non-electrostatic terms =       14.2080823552 Hartrees.
 One-electron integrals computed using PRISM.
 NBasis=    34 RedAO= T  NBF=    23    11
 NBsUse=    34 1.00D-06 NBFU=    23    11
 Harris functional with IExCor= 1009 diagonalized for initial guess.
 ExpMin= 8.45D-02 ExpMax= 5.48D+03 ExpMxC= 8.25D+02 IAcc=2 IRadAn=         0 AccDes= 0.00D+00
 HarFok:  IExCor= 1009 AccDes= 0.00D+00 IRadAn=         0 IDoV= 1
 ScaDFX=  1.000000  1.000000  1.000000  1.000000
 FoFCou: FMM=F IPFlag=           0 FMFlag=      100000 FMFlg1=           0
         NFxFlg=           0 DoJE=T BraDBF=F KetDBF=T FulRan=T
         Omega=  0.000000  0.000000  1.000000  0.000000  0.000000 ICntrl=     500 IOpCl=  0
         NMat0=    1 NMatS0=    1 NMatT0=    0 NMatD0=    1 NMtDS0=    0 NMtDT0=    0
         I1Cent=           4 NGrid=           0.
 Petite list used in FoFCou.
 Initial guess orbital symmetries:
       Occupied  (A') (A') (A') (A") (A')
       Virtual   (A') (A') (A") (A') (A") (A') (A') (A") (A') (A')
                 (A") (A') (A') (A') (A') (A") (A") (A') (A') (A")
                 (A") (A') (A') (A") (A') (A') (A') (A") (A')
 The electronic state of the initial guess is 1-A'.
 Requested convergence on RMS density matrix=1.00D-08 within 128 cycles.
 Requested convergence on MAX density matrix=1.00D-06.
 Requested convergence on             energy=1.00D-06.
 No special actions if energy rises.
 Keep R1 ints in memory in canonical form, NReq=3182814.
 Error on total polarization charges =  0.00852
 SCF Done:  E(RM062X) =  -76.8199439623     A.U. after    8 cycles
             Convg  =    0.4437D-08             -V/T =  2.0093
 SMD-CDS (non-electrostatic) energy             (kcal/mol) =       2.18
 (included in total energy above)

 **********************************************************************

            Population analysis using the SCF density.

 **********************************************************************

 Orbital symmetries:
       Occupied  (A') (A') (A') (A") (A')
       Virtual   (A') (A') (A") (A') (A") (A') (A') (A") (A') (A')
                 (A") (A') (A') (A') (A') (A") (A") (A') (A') (A")
                 (A') (A") (A') (A") (A') (A') (A') (A") (A')
 The electronic state is 1-A'.
 Alpha  occ. eigenvalues --  -19.78142  -1.28605  -0.75098  -0.72479  -0.53500
 Alpha virt. eigenvalues --    0.05094   0.12541   0.13154   0.15654   0.22164
 Alpha virt. eigenvalues --    0.23880   0.26381   0.92807   0.95378   1.02777
 Alpha virt. eigenvalues --    1.03535   1.06302   1.10098   1.23043   1.41559
 Alpha virt. eigenvalues --    1.44774   2.03670   2.07019   2.23990   2.32922
 Alpha virt. eigenvalues --    2.56020   2.56112   2.66210   2.97489   3.07013
 Alpha virt. eigenvalues --    3.32219   3.41959   3.49602   4.08025
          Condensed to atoms (all electrons):
              1          2          3          4
     1  O    7.638688   0.294118   0.294118   0.294368
     2  H    0.294118   0.219149  -0.010765  -0.007907
     3  H    0.294118  -0.010765   0.219149  -0.007907
     4  H    0.294368  -0.007907  -0.007907   0.210966
 Mulliken atomic charges:
              1
     1  O   -0.521291
     2  H    0.505406
     3  H    0.505406
     4  H    0.510480
 Sum of Mulliken atomic charges =   1.00000
 Mulliken charges with hydrogens summed into heavy atoms:
              1
     1  O    1.000000
 Sum of Mulliken charges with hydrogens summed into heavy atoms =   1.00000
 Electronic spatial extent (au):  <R**2>=             18.1761
 Charge=              1.0000 electrons
 Dipole moment (field-independent basis, Debye):
    X=             -0.0654    Y=             -1.2271    Z=              0.0000  Tot=              1.2289
 Quadrupole moment (field-independent basis, Debye-Ang):
   XX=             -2.2068   YY=             -6.3725   ZZ=             -2.7295
   XY=             -0.8925   XZ=              0.0000   YZ=              0.0000
 Traceless Quadrupole moment (field-independent basis, Debye-Ang):
   XX=              1.5628   YY=             -2.6029   ZZ=              1.0401
   XY=             -0.8925   XZ=              0.0000   YZ=              0.0000
 Octapole moment (field-independent basis, Debye-Ang**2):
  XXX=             -1.9736  YYY=             -0.6962  ZZZ=              0.0000  XYY=              0.1272
  XXY=             -0.3610  XXZ=              0.0000  XZZ=              1.6742  YZZ=             -1.0041
  YYZ=              0.0000  XYZ=              0.0000
 Hexadecapole moment (field-independent basis, Debye-Ang**3):
 XXXX=             -2.7608 YYYY=             -5.2486 ZZZZ=             -3.3552 XXXY=             -0.2340
 XXXZ=              0.0000 YYYX=              0.0410 YYYZ=              0.0000 ZZZX=              0.0000
 ZZZY=              0.0000 XXYY=             -1.7730 XXZZ=             -1.0288 YYZZ=             -1.6169
 XXYZ=              0.0000 YYXZ=              0.0000 ZZXY=             -0.4258
 N-N= 1.420808235524D+01 E-N=-2.049819984674D+02  KE= 7.610899969025D+01
 Symmetry A'   KE= 7.216121667295D+01
 Symmetry A"   KE= 3.947783017307D+00
 D1PCM: PCM CHGder 1st derivatives, ID1Alg=3 FixD1E=F DoIter=F DoCFld=F I1PDM=0.
 Calling FoFJK, ICntrl=      2127 FMM=F ISym2X=1 I1Cent= 0 IOpClX= 0 NMat=1 NMatS=1 NMatT=0.
 ***** Axes restored to original set *****
 -------------------------------------------------------------------
 Center     Atomic                   Forces (Hartrees/Bohr)
 Number     Number              X              Y              Z
 -------------------------------------------------------------------
      1        8           0.010714397    0.015160521    0.017342822
      2        1           0.012700898   -0.012701271   -0.005200435
      3        1          -0.016212392    0.007732621   -0.005200435
      4        1          -0.007202903   -0.010191872   -0.006941952
 -------------------------------------------------------------------
 Cartesian Forces:  Max     0.017342822 RMS     0.011360455

 GradGradGradGradGradGradGradGradGradGradGradGradGradGradGradGradGradGrad
 Berny optimization.
 Internal  Forces:  Max     0.014422771 RMS     0.011962305
 Search for a local minimum.
 Step number   1 out of a maximum of   20
 All quantities printed in internal units (Hartrees-Bohrs-Radians)
 Mixed Optimization -- RFO/linear search
 Second derivative matrix not updated -- first step.
 The second derivative matrix:
                          R1        R2        R3        A1        A2
           R1           0.55473
           R2           0.00000   0.55473
           R3           0.00000   0.00000   0.55473
           A1           0.00000   0.00000   0.00000   0.16000
           A2           0.00000   0.00000   0.00000   0.00000   0.16000
           A3           0.00000   0.00000   0.00000   0.00000   0.00000
           D1           0.00000   0.00000   0.00000   0.00000   0.00000
                          A3        D1
           A3           0.16000
           D1           0.00000   0.01558
     Eigenvalues ---    0.03019   0.16000   0.16000   0.55473   0.55473
     Eigenvalues ---    0.554731000.00000
 RFO step:  Lambda=-4.33115483D-03 EMin= 3.01900567D-02
 Linear search not attempted -- first point.
 Iteration  1 RMS(Cart)=  0.05133811 RMS(Int)=  0.00757250
 Iteration  2 RMS(Cart)=  0.00445266 RMS(Int)=  0.00519574
 Iteration  3 RMS(Cart)=  0.00003751 RMS(Int)=  0.00519548
 Iteration  4 RMS(Cart)=  0.00000041 RMS(Int)=  0.00519548
 ClnCor:  largest displacement from symmetrization is 1.58D-13 for atom     3.
 Variable       Old X    -DE/DX   Delta X   Delta X   Delta X     New X
                                 (Linear)    (Quad)   (Total)
    R1        1.81414   0.01442   0.00000   0.02580   0.02580   1.83994
    R2        1.81414   0.01442   0.00000   0.02580   0.02580   1.83994
    R3        1.81414   0.01249   0.00000   0.02233   0.02233   1.83647
    A1        1.90131   0.01389   0.00000   0.05816   0.04924   1.95056
    A2        2.09440  -0.01024   0.00000  -0.08361  -0.08971   2.00468
    A3        2.09440  -0.01024   0.00000  -0.08361  -0.08971   2.00468
    D1       -2.44346   0.00522   0.00000   0.15114   0.14523  -2.29823
         Item               Value     Threshold  Converged?
 Maximum Force            0.014423     0.000450     NO 
 RMS     Force            0.011962     0.000300     NO 
 Maximum Displacement     0.076936     0.001800     NO 
 RMS     Displacement     0.052821     0.001200     NO 
 Predicted change in Energy=-2.147847D-03
 GradGradGradGradGradGradGradGradGradGradGradGradGradGradGradGradGradGrad

                          Input orientation:                          
 ---------------------------------------------------------------------
 Center     Atomic      Atomic             Coordinates (Angstroms)
 Number     Number       Type             X           Y           Z
 ---------------------------------------------------------------------
      1          8           0       -0.282683    1.684863    0.040713
      2          1           0        0.624798    1.572312   -0.293664
      3          1           0       -0.691701    2.502722   -0.293664
      4          1           0       -0.842391    0.892895   -0.022086
 ---------------------------------------------------------------------
                    Distance matrix (angstroms):
                    1          2          3          4
     1  O    0.000000
     2  H    0.973652   0.000000
     3  H    0.973652   1.612090   0.000000
     4  H    0.971818   1.639514   1.639514   0.000000
 Stoichiometry    H3O(1+)
 Framework group  CS[SG(HO),X(H2)]
 Deg. of freedom     4
 Full point group                 CS      NOp   2
 Largest Abelian subgroup         CS      NOp   2
 Largest concise Abelian subgroup CS      NOp   2
                         Standard orientation:                         
 ---------------------------------------------------------------------
 Center     Atomic      Atomic             Coordinates (Angstroms)
 Number     Number       Type             X           Y           Z
 ---------------------------------------------------------------------
      1          8           0        0.000000    0.067201    0.000000
      2          1           0        0.475364   -0.201720    0.806045
      3          1           0        0.475364   -0.201720   -0.806045
      4          1           0       -0.950727   -0.134166    0.000000
 ---------------------------------------------------------------------
 Rotational constants (GHZ):    345.3030534    331.6386161    188.6113019
 Standard basis: 6-31+G(d,p) (6D, 7F)
 There are    23 symmetry adapted basis functions of A'  symmetry.
 There are    11 symmetry adapted basis functions of A"  symmetry.
 Integral buffers will be    262144 words long.
 Raffenetti 2 integral format.
 Two-electron integral symmetry is turned on.
    34 basis functions,    53 primitive gaussians,    34 cartesian basis functions
     5 alpha electrons        5 beta electrons
       nuclear repulsion energy        14.0259254390 Hartrees.
 NAtoms=    4 NActive=    4 NUniq=    3 SFac= 1.33D+00 NAtFMM=   80 NAOKFM=F Big=F
 ------------------------------------------------------------------------------
 Polarizable Continuum Model (PCM)
 =================================
 Model                : PCM.
 Atomic radii         : SMD-Coulomb.
 Polarization charges : Total charges.
 Charge compensation  : None.
 Solution method      : Matrix inversion.
 Cavity type          : VdW (van der Waals Surface) (Alpha=1.000).
 Cavity algorithm     : GePol (No added spheres)
                        Default sphere list used, NSphG=    4.
                        Lebedev-Laikov grids with approx.  5.0 points / Ang**2.
                        Smoothing algorithm: Karplus/York (Gamma=1.0000).
                        Polarization charges: spherical gaussians, with
                                              point-specific exponents (IZeta= 3).
                        Self-potential: point-specific (ISelfS= 7).
                        Self-field    : sphere-specific E.n sum rule (ISelfD= 2).
 1st derivatives      : Analytical E(r).r(x)/FMM algorithm (CHGder, D1EAlg=3).
                        Cavity 1st derivative terms included.
 Solvent              : Water, Eps=  78.355300 Eps(inf)=   1.777849
 ------------------------------------------------------------------------------
 Spheres list:
 ISph  on   Nord    Re0     Alpha      Xe            Ye            Ze
    1   O      1    1.520   1.000      0.000000      0.067201      0.000000
    2   H      2    1.200   1.000      0.475364     -0.201720      0.806045
    3   H      3    1.200   1.000      0.475364     -0.201720     -0.806045
    4   H      4    1.200   1.000     -0.950727     -0.134166      0.000000
 ------------------------------------------------------------------------------
 ------------------------------------------------------------------------------
 Atomic radii for non-electrostatic terms: SMD-CDS.
 ------------------------------------------------------------------------------
 Nuclear repulsion after PCM non-electrostatic terms =       14.0294352066 Hartrees.
 One-electron integrals computed using PRISM.
 NBasis=    34 RedAO= T  NBF=    23    11
 NBsUse=    34 1.00D-06 NBFU=    23    11
 Initial guess read from the read-write file.
 B after Tr=     0.000000    0.000000    0.000000
         Rot=    1.000000    0.000000    0.000000    0.000000 Ang=   0.00 deg.
 Initial guess orbital symmetries:
       Occupied  (A') (A') (A') (A") (A')
       Virtual   (A') (A') (A") (A') (A") (A') (A') (A") (A') (A')
                 (A") (A') (A') (A') (A') (A") (A") (A') (A') (A")
                 (A') (A") (A') (A") (A') (A') (A') (A") (A')
 Harris functional with IExCor= 1009 diagonalized for initial guess.
 ExpMin= 8.45D-02 ExpMax= 5.48D+03 ExpMxC= 8.25D+02 IAcc=2 IRadAn=         0 AccDes= 0.00D+00
 HarFok:  IExCor= 1009 AccDes= 0.00D+00 IRadAn=         0 IDoV= 1
 ScaDFX=  1.000000  1.000000  1.000000  1.000000
 FoFCou: FMM=F IPFlag=           0 FMFlag=      100000 FMFlg1=           0
         NFxFlg=           0 DoJE=T BraDBF=F KetDBF=T FulRan=T
         Omega=  0.000000  0.000000  1.000000  0.000000  0.000000 ICntrl=     500 IOpCl=  0
         NMat0=    1 NMatS0=    1 NMatT0=    0 NMatD0=    1 NMtDS0=    0 NMtDT0=    0
         I1Cent=           4 NGrid=           0.
 Petite list used in FoFCou.
 Requested convergence on RMS density matrix=1.00D-08 within 128 cycles.
 Requested convergence on MAX density matrix=1.00D-06.
 Requested convergence on             energy=1.00D-06.
 No special actions if energy rises.
 Keep R1 ints in memory in canonical form, NReq=3182093.
 Error on total polarization charges =  0.00868
 SCF Done:  E(RM062X) =  -76.8231624984     A.U. after    9 cycles
             Convg  =    0.7506D-08             -V/T =  2.0102
 SMD-CDS (non-electrostatic) energy             (kcal/mol) =       2.20
 (included in total energy above)
 D1PCM: PCM CHGder 1st derivatives, ID1Alg=3 FixD1E=F DoIter=F DoCFld=F I1PDM=0.
 Calling FoFJK, ICntrl=      2127 FMM=F ISym2X=1 I1Cent= 0 IOpClX= 0 NMat=1 NMatS=1 NMatT=0.
 ***** Axes restored to original set *****
 -------------------------------------------------------------------
 Center     Atomic                   Forces (Hartrees/Bohr)
 Number     Number              X              Y              Z
 -------------------------------------------------------------------
      1        8           0.004628365    0.006548985    0.011073002
      2        1           0.000264911   -0.003599714   -0.003100323
      3        1          -0.003481669   -0.000951893   -0.003100323
      4        1          -0.001411607   -0.001997378   -0.004872355
 -------------------------------------------------------------------
 Cartesian Forces:  Max     0.011073002 RMS     0.004671943

 GradGradGradGradGradGradGradGradGradGradGradGradGradGradGradGradGradGrad
 Berny optimization.
 Using GEDIIS/GDIIS optimizer.
 Internal  Forces:  Max     0.005224430 RMS     0.003884066
 Search for a local minimum.
 Step number   2 out of a maximum of   20
 All quantities printed in internal units (Hartrees-Bohrs-Radians)
 Mixed Optimization -- RFO/linear search
 Update second derivatives using D2CorX and points    1    2
 DE= -3.22D-03 DEPred=-2.15D-03 R= 1.50D+00
 SS=  1.41D+00  RLast= 2.04D-01 DXNew= 5.0454D-01 6.1072D-01
 Trust test= 1.50D+00 RLast= 2.04D-01 DXMaxT set to 5.05D-01
 The second derivative matrix:
                          R1        R2        R3        A1        A2
           R1           0.57721
           R2           0.02248   0.57721
           R3           0.01254   0.01254   0.56028
           A1           0.03097   0.03097   0.02117   0.19223
           A2           0.01943   0.01943   0.01961   0.00319   0.12357
           A3           0.01943   0.01943   0.01961   0.00319  -0.03643
           D1          -0.00755  -0.00755  -0.00654  -0.00417   0.00755
                          A3        D1
           A3           0.12357
           D1           0.00755   0.01439
 Use linear search instead of GDIIS.
     Eigenvalues ---    0.02309   0.14264   0.16000   0.55363   0.55473
     Eigenvalues ---    0.609281000.00000
 RFO step:  Lambda=-7.02371263D-04 EMin= 2.30858699D-02
 Quartic linear search produced a step of  0.66231.
 Iteration  1 RMS(Cart)=  0.05766822 RMS(Int)=  0.01774747
 Iteration  2 RMS(Cart)=  0.00884772 RMS(Int)=  0.01356829
 Iteration  3 RMS(Cart)=  0.00022844 RMS(Int)=  0.01356553
 Iteration  4 RMS(Cart)=  0.00000791 RMS(Int)=  0.01356553
 Iteration  5 RMS(Cart)=  0.00000027 RMS(Int)=  0.01356553
 ClnCor:  largest displacement from symmetrization is 3.73D-09 for atom     3.
 Variable       Old X    -DE/DX   Delta X   Delta X   Delta X     New X
                                 (Linear)    (Quad)   (Total)
    R1        1.83994   0.00173   0.01709  -0.00599   0.01110   1.85104
    R2        1.83994   0.00173   0.01709  -0.00599   0.01110   1.85104
    R3        1.83647   0.00275   0.01479  -0.00151   0.01328   1.84975
    A1        1.95056   0.00353   0.03261  -0.03005  -0.02187   1.92868
    A2        2.00468  -0.00511  -0.05942  -0.03834  -0.10960   1.89509
    A3        2.00468  -0.00511  -0.05942  -0.03834  -0.10960   1.89509
    D1       -2.29823   0.00522   0.09619   0.12458   0.20051  -2.09773
         Item               Value     Threshold  Converged?
 Maximum Force            0.005224     0.000450     NO 
 RMS     Force            0.003884     0.000300     NO 
 Maximum Displacement     0.112466     0.001800     NO 
 RMS     Displacement     0.062628     0.001200     NO 
 Predicted change in Energy=-1.179140D-03
 GradGradGradGradGradGradGradGradGradGradGradGradGradGradGradGradGradGrad

                          Input orientation:                          
 ---------------------------------------------------------------------
 Center     Atomic      Atomic             Coordinates (Angstroms)
 Number     Number       Type             X           Y           Z
 ---------------------------------------------------------------------
      1          8           0       -0.268177    1.705388    0.100227
      2          1           0        0.608510    1.551333   -0.308623
      3          1           0       -0.706040    2.480365   -0.308623
      4          1           0       -0.826269    0.915707   -0.051681
 ---------------------------------------------------------------------
                    Distance matrix (angstroms):
                    1          2          3          4
     1  O    0.000000
     2  H    0.979526   0.000000
     3  H    0.979526   1.609703   0.000000
     4  H    0.978846   1.590166   1.590166   0.000000
 Stoichiometry    H3O(1+)
 Framework group  CS[SG(HO),X(H2)]
 Deg. of freedom     4
 Full point group                 CS      NOp   2
 Largest Abelian subgroup         CS      NOp   2
 Largest concise Abelian subgroup CS      NOp   2
                         Standard orientation:                         
 ---------------------------------------------------------------------
 Center     Atomic      Atomic             Coordinates (Angstroms)
 Number     Number       Type             X           Y           Z
 ---------------------------------------------------------------------
      1          8           0        0.000000    0.090126    0.000000
      2          1           0        0.457040   -0.230499    0.804851
      3          1           0        0.457040   -0.230499   -0.804851
      4          1           0       -0.914080   -0.260011    0.000000
 ---------------------------------------------------------------------
 Rotational constants (GHZ):    327.8711482    319.2069544    196.6776401
 Standard basis: 6-31+G(d,p) (6D, 7F)
 There are    23 symmetry adapted basis functions of A'  symmetry.
 There are    11 symmetry adapted basis functions of A"  symmetry.
 Integral buffers will be    262144 words long.
 Raffenetti 2 integral format.
 Two-electron integral symmetry is turned on.
    34 basis functions,    53 primitive gaussians,    34 cartesian basis functions
     5 alpha electrons        5 beta electrons
       nuclear repulsion energy        13.9630200874 Hartrees.
 NAtoms=    4 NActive=    4 NUniq=    3 SFac= 1.33D+00 NAtFMM=   80 NAOKFM=F Big=F
 ------------------------------------------------------------------------------
 Polarizable Continuum Model (PCM)
 =================================
 Model                : PCM.
 Atomic radii         : SMD-Coulomb.
 Polarization charges : Total charges.
 Charge compensation  : None.
 Solution method      : Matrix inversion.
 Cavity type          : VdW (van der Waals Surface) (Alpha=1.000).
 Cavity algorithm     : GePol (No added spheres)
                        Default sphere list used, NSphG=    4.
                        Lebedev-Laikov grids with approx.  5.0 points / Ang**2.
                        Smoothing algorithm: Karplus/York (Gamma=1.0000).
                        Polarization charges: spherical gaussians, with
                                              point-specific exponents (IZeta= 3).
                        Self-potential: point-specific (ISelfS= 7).
                        Self-field    : sphere-specific E.n sum rule (ISelfD= 2).
 1st derivatives      : Analytical E(r).r(x)/FMM algorithm (CHGder, D1EAlg=3).
                        Cavity 1st derivative terms included.
 Solvent              : Water, Eps=  78.355300 Eps(inf)=   1.777849
 ------------------------------------------------------------------------------
 Spheres list:
 ISph  on   Nord    Re0     Alpha      Xe            Ye            Ze
    1   O      1    1.520   1.000      0.000000      0.090126      0.000000
    2   H      2    1.200   1.000      0.457040     -0.230499      0.804851
    3   H      3    1.200   1.000      0.457040     -0.230499     -0.804851
    4   H      4    1.200   1.000     -0.914080     -0.260011      0.000000
 ------------------------------------------------------------------------------
 ------------------------------------------------------------------------------
 Atomic radii for non-electrostatic terms: SMD-CDS.
 ------------------------------------------------------------------------------
 Nuclear repulsion after PCM non-electrostatic terms =       13.9665209413 Hartrees.
 One-electron integrals computed using PRISM.
 NBasis=    34 RedAO= T  NBF=    23    11
 NBsUse=    34 1.00D-06 NBFU=    23    11
 Initial guess read from the read-write file.
 B after Tr=     0.000000    0.000000    0.000000
         Rot=    1.000000    0.000000    0.000000    0.000000 Ang=   0.00 deg.
 Initial guess orbital symmetries:
       Occupied  (A') (A') (A') (A") (A')
       Virtual   (A') (A') (A") (A') (A") (A') (A') (A") (A') (A')
                 (A") (A') (A') (A') (A') (A") (A') (A") (A') (A")
                 (A") (A') (A') (A") (A') (A') (A') (A") (A')
 Harris functional with IExCor= 1009 diagonalized for initial guess.
 ExpMin= 8.45D-02 ExpMax= 5.48D+03 ExpMxC= 8.25D+02 IAcc=2 IRadAn=         0 AccDes= 0.00D+00
 HarFok:  IExCor= 1009 AccDes= 0.00D+00 IRadAn=         0 IDoV= 1
 ScaDFX=  1.000000  1.000000  1.000000  1.000000
 FoFCou: FMM=F IPFlag=           0 FMFlag=      100000 FMFlg1=           0
         NFxFlg=           0 DoJE=T BraDBF=F KetDBF=T FulRan=T
         Omega=  0.000000  0.000000  1.000000  0.000000  0.000000 ICntrl=     500 IOpCl=  0
         NMat0=    1 NMatS0=    1 NMatT0=    0 NMatD0=    1 NMtDS0=    0 NMtDT0=    0
         I1Cent=           4 NGrid=           0.
 Petite list used in FoFCou.
 Requested convergence on RMS density matrix=1.00D-08 within 128 cycles.
 Requested convergence on MAX density matrix=1.00D-06.
 Requested convergence on             energy=1.00D-06.
 No special actions if energy rises.
 Keep R1 ints in memory in canonical form, NReq=3174988.
 Error on total polarization charges =  0.00875
 SCF Done:  E(RM062X) =  -76.8243551884     A.U. after    9 cycles
             Convg  =    0.4953D-08             -V/T =  2.0104
 SMD-CDS (non-electrostatic) energy             (kcal/mol) =       2.20
 (included in total energy above)
 D1PCM: PCM CHGder 1st derivatives, ID1Alg=3 FixD1E=F DoIter=F DoCFld=F I1PDM=0.
 Calling FoFJK, ICntrl=      2127 FMM=F ISym2X=1 I1Cent= 0 IOpClX= 0 NMat=1 NMatS=1 NMatT=0.
 ***** Axes restored to original set *****
 -------------------------------------------------------------------
 Center     Atomic                   Forces (Hartrees/Bohr)
 Number     Number              X              Y              Z
 -------------------------------------------------------------------
      1        8          -0.001787217   -0.002528854    0.000465213
      2        1          -0.000719155    0.002380231   -0.000263972
      3        1           0.002483764    0.000116632   -0.000263972
      4        1           0.000022608    0.000031990    0.000062731
 -------------------------------------------------------------------
 Cartesian Forces:  Max     0.002528854 RMS     0.001363692

 GradGradGradGradGradGradGradGradGradGradGradGradGradGradGradGradGradGrad
 Berny optimization.
 Using GEDIIS/GDIIS optimizer.
 Internal  Forces:  Max     0.002492595 RMS     0.001468411
 Search for a local minimum.
 Step number   3 out of a maximum of   20
 All quantities printed in internal units (Hartrees-Bohrs-Radians)
 Mixed Optimization -- RFO/linear search
 Update second derivatives using D2CorX and points    1    2    3
 DE= -1.19D-03 DEPred=-1.18D-03 R= 1.01D+00
 SS=  1.41D+00  RLast= 2.55D-01 DXNew= 8.4853D-01 7.6561D-01
 Trust test= 1.01D+00 RLast= 2.55D-01 DXMaxT set to 7.66D-01
 The second derivative matrix:
                          R1        R2        R3        A1        A2
           R1           0.58267
           R2           0.02793   0.58267
           R3           0.01661   0.01661   0.56294
           A1           0.05691   0.05691   0.04467   0.23521
           A2           0.01650   0.01650   0.01925  -0.02882   0.11613
           A3           0.01650   0.01650   0.01925  -0.02882  -0.04387
           D1           0.00207   0.00207   0.00162   0.01494  -0.00140
                          A3        D1
           A3           0.11613
           D1          -0.00140   0.02153
 Use linear search instead of GDIIS.
     Eigenvalues ---    0.03237   0.16000   0.17438   0.55349   0.55473
     Eigenvalues ---    0.626131000.00000
 RFO step:  Lambda=-6.34653120D-05 EMin= 3.23690871D-02
 Quartic linear search produced a step of -0.05405.
 Iteration  1 RMS(Cart)=  0.00699604 RMS(Int)=  0.00052140
 Iteration  2 RMS(Cart)=  0.00003333 RMS(Int)=  0.00052008
 Iteration  3 RMS(Cart)=  0.00000000 RMS(Int)=  0.00052008
 ClnCor:  largest displacement from symmetrization is 1.50D-12 for atom     3.
 Variable       Old X    -DE/DX   Delta X   Delta X   Delta X     New X
                                 (Linear)    (Quad)   (Total)
    R1        1.85104  -0.00082  -0.00060   0.00019  -0.00041   1.85063
    R2        1.85104  -0.00082  -0.00060   0.00019  -0.00041   1.85063
    R3        1.84975  -0.00022  -0.00072   0.00097   0.00026   1.85001
    A1        1.92868  -0.00249   0.00118  -0.01617  -0.01405   1.91464
    A2        1.89509   0.00184   0.00592   0.00246   0.00884   1.90393
    A3        1.89509   0.00184   0.00592   0.00246   0.00884   1.90393
    D1       -2.09773   0.00086  -0.01084   0.01662   0.00655  -2.09117
         Item               Value     Threshold  Converged?
 Maximum Force            0.002493     0.000450     NO 
 RMS     Force            0.001468     0.000300     NO 
 Maximum Displacement     0.010475     0.001800     NO 
 RMS     Displacement     0.007005     0.001200     NO 
 Predicted change in Energy=-3.834680D-05
 GradGradGradGradGradGradGradGradGradGradGradGradGradGradGradGradGradGrad

                          Input orientation:                          
 ---------------------------------------------------------------------
 Center     Atomic      Atomic             Coordinates (Angstroms)
 Number     Number       Type             X           Y           Z
 ---------------------------------------------------------------------
      1          8           0       -0.270225    1.702491    0.100057
      2          1           0        0.607326    1.556794   -0.309483
      3          1           0       -0.700497    2.481072   -0.309483
      4          1           0       -0.828581    0.912435   -0.049792
 ---------------------------------------------------------------------
                    Distance matrix (angstroms):
                    1          2          3          4
     1  O    0.000000
     2  H    0.979309   0.000000
     3  H    0.979309   1.601466   0.000000
     4  H    0.978981   1.595139   1.595139   0.000000
 Stoichiometry    H3O(1+)
 Framework group  CS[SG(HO),X(H2)]
 Deg. of freedom     4
 Full point group                 CS      NOp   2
 Largest Abelian subgroup         CS      NOp   2
 Largest concise Abelian subgroup CS      NOp   2
                         Standard orientation:                         
 ---------------------------------------------------------------------
 Center     Atomic      Atomic             Coordinates (Angstroms)
 Number     Number       Type             X           Y           Z
 ---------------------------------------------------------------------
      1          8           0        0.000000    0.089805    0.000000
      2          1           0        0.459856   -0.236394    0.800733
      3          1           0        0.459856   -0.236394   -0.800733
      4          1           0       -0.919712   -0.245654    0.000000
 ---------------------------------------------------------------------
 Rotational constants (GHZ):    325.1056164    322.2915347    196.5546464
 Standard basis: 6-31+G(d,p) (6D, 7F)
 There are    23 symmetry adapted basis functions of A'  symmetry.
 There are    11 symmetry adapted basis functions of A"  symmetry.
 Integral buffers will be    262144 words long.
 Raffenetti 2 integral format.
 Two-electron integral symmetry is turned on.
    34 basis functions,    53 primitive gaussians,    34 cartesian basis functions
     5 alpha electrons        5 beta electrons
       nuclear repulsion energy        13.9639528393 Hartrees.
 NAtoms=    4 NActive=    4 NUniq=    3 SFac= 1.33D+00 NAtFMM=   80 NAOKFM=F Big=F
 ------------------------------------------------------------------------------
 Polarizable Continuum Model (PCM)
 =================================
 Model                : PCM.
 Atomic radii         : SMD-Coulomb.
 Polarization charges : Total charges.
 Charge compensation  : None.
 Solution method      : Matrix inversion.
 Cavity type          : VdW (van der Waals Surface) (Alpha=1.000).
 Cavity algorithm     : GePol (No added spheres)
                        Default sphere list used, NSphG=    4.
                        Lebedev-Laikov grids with approx.  5.0 points / Ang**2.
                        Smoothing algorithm: Karplus/York (Gamma=1.0000).
                        Polarization charges: spherical gaussians, with
                                              point-specific exponents (IZeta= 3).
                        Self-potential: point-specific (ISelfS= 7).
                        Self-field    : sphere-specific E.n sum rule (ISelfD= 2).
 1st derivatives      : Analytical E(r).r(x)/FMM algorithm (CHGder, D1EAlg=3).
                        Cavity 1st derivative terms included.
 Solvent              : Water, Eps=  78.355300 Eps(inf)=   1.777849
 ------------------------------------------------------------------------------
 Spheres list:
 ISph  on   Nord    Re0     Alpha      Xe            Ye            Ze
    1   O      1    1.520   1.000      0.000000      0.089805      0.000000
    2   H      2    1.200   1.000      0.459856     -0.236394      0.800733
    3   H      3    1.200   1.000      0.459856     -0.236394     -0.800733
    4   H      4    1.200   1.000     -0.919712     -0.245654      0.000000
 ------------------------------------------------------------------------------
 ------------------------------------------------------------------------------
 Atomic radii for non-electrostatic terms: SMD-CDS.
 ------------------------------------------------------------------------------
 Nuclear repulsion after PCM non-electrostatic terms =       13.9674542671 Hartrees.
 One-electron integrals computed using PRISM.
 NBasis=    34 RedAO= T  NBF=    23    11
 NBsUse=    34 1.00D-06 NBFU=    23    11
 Initial guess read from the read-write file.
 B after Tr=     0.000000    0.000000    0.000000
         Rot=    1.000000    0.000000    0.000000    0.000000 Ang=   0.00 deg.
 Initial guess orbital symmetries:
       Occupied  (A') (A') (A") (A') (A')
       Virtual   (A') (A") (A') (A') (A') (A") (A') (A') (A") (A')
                 (A") (A') (A') (A') (A") (A') (A') (A") (A") (A')
                 (A') (A") (A') (A') (A") (A') (A") (A') (A')
 Requested convergence on RMS density matrix=1.00D-08 within 128 cycles.
 Requested convergence on MAX density matrix=1.00D-06.
 Requested convergence on             energy=1.00D-06.
 No special actions if energy rises.
 Keep R1 ints in memory in canonical form, NReq=3174988.
 Error on total polarization charges =  0.00871
 SCF Done:  E(RM062X) =  -76.8243799218     A.U. after    7 cycles
             Convg  =    0.8136D-08             -V/T =  2.0104
 SMD-CDS (non-electrostatic) energy             (kcal/mol) =       2.20
 (included in total energy above)
 D1PCM: PCM CHGder 1st derivatives, ID1Alg=3 FixD1E=F DoIter=F DoCFld=F I1PDM=0.
 Calling FoFJK, ICntrl=      2127 FMM=F ISym2X=1 I1Cent= 0 IOpClX= 0 NMat=1 NMatS=1 NMatT=0.
 ***** Axes restored to original set *****
 -------------------------------------------------------------------
 Center     Atomic                   Forces (Hartrees/Bohr)
 Number     Number              X              Y              Z
 -------------------------------------------------------------------
      1        8          -0.000851553   -0.001204920    0.000231096
      2        1          -0.000539078    0.000987958    0.000095823
      3        1           0.001111238   -0.000178370    0.000095823
      4        1           0.000279393    0.000395332   -0.000422742
 -------------------------------------------------------------------
 Cartesian Forces:  Max     0.001204920 RMS     0.000657973

 GradGradGradGradGradGradGradGradGradGradGradGradGradGradGradGradGradGrad
 Berny optimization.
 Using GEDIIS/GDIIS optimizer.
 Internal  Forces:  Max     0.000966342 RMS     0.000637839
 Search for a local minimum.
 Step number   4 out of a maximum of   20
 All quantities printed in internal units (Hartrees-Bohrs-Radians)
 Mixed Optimization -- En-DIIS/RFO-DIIS
 Update second derivatives using D2CorX and points    1    2    3    4
 DE= -2.47D-05 DEPred=-3.83D-05 R= 6.45D-01
 SS=  1.41D+00  RLast= 1.99D-02 DXNew= 1.2876D+00 5.9785D-02
 Trust test= 6.45D-01 RLast= 1.99D-02 DXMaxT set to 7.66D-01
 The second derivative matrix:
                          R1        R2        R3        A1        A2
           R1           0.57714
           R2           0.02241   0.57714
           R3           0.01483   0.01483   0.56775
           A1           0.02105   0.02105   0.02245   0.08096
           A2           0.01812   0.01812   0.02920  -0.02090   0.13209
           A3           0.01812   0.01812   0.02920  -0.02090  -0.02791
           D1          -0.00260  -0.00260   0.00368  -0.00118   0.00959
                          A3        D1
           A3           0.13209
           D1           0.00959   0.02627
 Use linear search instead of GDIIS.
     Eigenvalues ---    0.02750   0.12430   0.16000   0.55473   0.55777
     Eigenvalues ---    0.612861000.00000
 RFO step:  Lambda=-2.10603770D-05 EMin= 2.74982930D-02
 Skip linear search -- no minimum in search direction.
 Iteration  1 RMS(Cart)=  0.00467779 RMS(Int)=  0.00002167
 Iteration  2 RMS(Cart)=  0.00001879 RMS(Int)=  0.00000112
 Iteration  3 RMS(Cart)=  0.00000000 RMS(Int)=  0.00000112
 ClnCor:  largest displacement from symmetrization is 2.28D-12 for atom     3.
 Variable       Old X    -DE/DX   Delta X   Delta X   Delta X     New X
                                 (Linear)    (Quad)   (Total)
    R1        1.85063  -0.00059   0.00000  -0.00057  -0.00057   1.85005
    R2        1.85063  -0.00059   0.00000  -0.00057  -0.00057   1.85005
    R3        1.85001  -0.00058   0.00000  -0.00075  -0.00075   1.84925
    A1        1.91464  -0.00097   0.00000  -0.01216  -0.01216   1.90248
    A2        1.90393   0.00057   0.00000   0.00156   0.00155   1.90548
    A3        1.90393   0.00057   0.00000   0.00156   0.00155   1.90548
    D1       -2.09117   0.00050   0.00000   0.01291   0.01291  -2.07826
         Item               Value     Threshold  Converged?
 Maximum Force            0.000966     0.000450     NO 
 RMS     Force            0.000638     0.000300     NO 
 Maximum Displacement     0.007157     0.001800     NO 
 RMS     Displacement     0.004688     0.001200     NO 
 Predicted change in Energy=-1.052958D-05
 GradGradGradGradGradGradGradGradGradGradGradGradGradGradGradGradGradGrad

                          Input orientation:                          
 ---------------------------------------------------------------------
 Center     Atomic      Atomic             Coordinates (Angstroms)
 Number     Number       Type             X           Y           Z
 ---------------------------------------------------------------------
      1          8           0       -0.271221    1.701082    0.102407
      2          1           0        0.605089    1.560020   -0.310675
      3          1           0       -0.696710    2.480040   -0.310675
      4          1           0       -0.829135    0.911651   -0.049758
 ---------------------------------------------------------------------
                    Distance matrix (angstroms):
                    1          2          3          4
     1  O    0.000000
     2  H    0.979006   0.000000
     3  H    0.979006   1.594088   0.000000
     4  H    0.978583   1.595449   1.595449   0.000000
 Stoichiometry    H3O(1+)
 Framework group  CS[SG(HO),X(H2)]
 Deg. of freedom     4
 Full point group                 CS      NOp   2
 Largest Abelian subgroup         CS      NOp   2
 Largest concise Abelian subgroup CS      NOp   2
                         Standard orientation:                         
 ---------------------------------------------------------------------
 Center     Atomic      Atomic             Coordinates (Angstroms)
 Number     Number       Type             X           Y           Z
 ---------------------------------------------------------------------
      1          8           0        0.000000    0.090525    0.000000
      2          1           0        0.460696   -0.242542    0.797044
      3          1           0        0.460696   -0.242542   -0.797044
      4          1           0       -0.921392   -0.239112    0.000000
 ---------------------------------------------------------------------
 Rotational constants (GHZ):    323.8264089    323.2217457    197.1117933
 Standard basis: 6-31+G(d,p) (6D, 7F)
 There are    23 symmetry adapted basis functions of A'  symmetry.
 There are    11 symmetry adapted basis functions of A"  symmetry.
 Integral buffers will be    262144 words long.
 Raffenetti 2 integral format.
 Two-electron integral symmetry is turned on.
    34 basis functions,    53 primitive gaussians,    34 cartesian basis functions
     5 alpha electrons        5 beta electrons
       nuclear repulsion energy        13.9697884637 Hartrees.
 NAtoms=    4 NActive=    4 NUniq=    3 SFac= 1.33D+00 NAtFMM=   80 NAOKFM=F Big=F
 ------------------------------------------------------------------------------
 Polarizable Continuum Model (PCM)
 =================================
 Model                : PCM.
 Atomic radii         : SMD-Coulomb.
 Polarization charges : Total charges.
 Charge compensation  : None.
 Solution method      : Matrix inversion.
 Cavity type          : VdW (van der Waals Surface) (Alpha=1.000).
 Cavity algorithm     : GePol (No added spheres)
                        Default sphere list used, NSphG=    4.
                        Lebedev-Laikov grids with approx.  5.0 points / Ang**2.
                        Smoothing algorithm: Karplus/York (Gamma=1.0000).
                        Polarization charges: spherical gaussians, with
                                              point-specific exponents (IZeta= 3).
                        Self-potential: point-specific (ISelfS= 7).
                        Self-field    : sphere-specific E.n sum rule (ISelfD= 2).
 1st derivatives      : Analytical E(r).r(x)/FMM algorithm (CHGder, D1EAlg=3).
                        Cavity 1st derivative terms included.
 Solvent              : Water, Eps=  78.355300 Eps(inf)=   1.777849
 ------------------------------------------------------------------------------
 Spheres list:
 ISph  on   Nord    Re0     Alpha      Xe            Ye            Ze
    1   O      1    1.520   1.000      0.000000      0.090525      0.000000
    2   H      2    1.200   1.000      0.460696     -0.242542      0.797044
    3   H      3    1.200   1.000      0.460696     -0.242542     -0.797044
    4   H      4    1.200   1.000     -0.921392     -0.239112      0.000000
 ------------------------------------------------------------------------------
 ------------------------------------------------------------------------------
 Atomic radii for non-electrostatic terms: SMD-CDS.
 ------------------------------------------------------------------------------
 Nuclear repulsion after PCM non-electrostatic terms =       13.9732868963 Hartrees.
 One-electron integrals computed using PRISM.
 NBasis=    34 RedAO= T  NBF=    23    11
 NBsUse=    34 1.00D-06 NBFU=    23    11
 Initial guess read from the read-write file.
 B after Tr=     0.000000    0.000000    0.000000
         Rot=    1.000000    0.000000    0.000000    0.000000 Ang=   0.00 deg.
 Initial guess orbital symmetries:
       Occupied  (A') (A') (A") (A') (A')
       Virtual   (A') (A") (A') (A') (A') (A") (A') (A') (A") (A')
                 (A") (A') (A') (A') (A") (A') (A') (A") (A") (A')
                 (A') (A") (A') (A') (A") (A') (A") (A') (A')
 Requested convergence on RMS density matrix=1.00D-08 within 128 cycles.
 Requested convergence on MAX density matrix=1.00D-06.
 Requested convergence on             energy=1.00D-06.
 No special actions if energy rises.
 Keep R1 ints in memory in canonical form, NReq=3179227.
 Error on total polarization charges =  0.00868
 SCF Done:  E(RM062X) =  -76.8243744921     A.U. after    7 cycles
             Convg  =    0.5107D-08             -V/T =  2.0104
 SMD-CDS (non-electrostatic) energy             (kcal/mol) =       2.20
 (included in total energy above)
 D1PCM: PCM CHGder 1st derivatives, ID1Alg=3 FixD1E=F DoIter=F DoCFld=F I1PDM=0.
 Calling FoFJK, ICntrl=      2127 FMM=F ISym2X=1 I1Cent= 0 IOpClX= 0 NMat=1 NMatS=1 NMatT=0.
 ***** Axes restored to original set *****
 -------------------------------------------------------------------
 Center     Atomic                   Forces (Hartrees/Bohr)
 Number     Number              X              Y              Z
 -------------------------------------------------------------------
      1        8          -0.000188762   -0.000267092   -0.000243163
      2        1          -0.000022653    0.000149992    0.000411832
      3        1           0.000148951    0.000028715    0.000411832
      4        1           0.000062464    0.000088385   -0.000580501
 -------------------------------------------------------------------
 Cartesian Forces:  Max     0.000580501 RMS     0.000273865

 GradGradGradGradGradGradGradGradGradGradGradGradGradGradGradGradGradGrad
 Berny optimization.
 Using GEDIIS/GDIIS optimizer.
 Internal  Forces:  Max     0.000187716 RMS     0.000110387
 Search for a local minimum.
 Step number   5 out of a maximum of   20
 All quantities printed in internal units (Hartrees-Bohrs-Radians)
 Mixed Optimization -- En-DIIS/RFO-DIIS
 Swaping is turned off.
 Update second derivatives using D2CorX and points    1    2    3    4    5
 DE=  5.43D-06 DEPred=-1.05D-05 R=-5.16D-01
 Trust test=-5.16D-01 RLast= 1.79D-02 DXMaxT set to 3.83D-01
 The second derivative matrix:
                          R1        R2        R3        A1        A2
           R1           0.57462
           R2           0.01989   0.57462
           R3           0.01484   0.01484   0.57098
           A1           0.01694   0.01694   0.01795   0.07010
           A2           0.02543   0.02543   0.03694  -0.01830   0.12456
           A3           0.02543   0.02543   0.03694  -0.01830  -0.03544
           D1           0.00163   0.00163   0.01231  -0.00030   0.01438
                          A3        D1
           A3           0.12456
           D1           0.01438   0.04078
     Eigenvalues ---    0.02883   0.10705   0.16000   0.55473   0.55909
     Eigenvalues ---    0.611541000.00000
 En-DIIS/RFO-DIIS IScMMF=        0 using points:     5    4
 RFO step:  Lambda=-1.87437728D-07.
 DIIS coeffs:      0.99680      0.00320
 Iteration  1 RMS(Cart)=  0.00097658 RMS(Int)=  0.00000286
 Iteration  2 RMS(Cart)=  0.00000152 RMS(Int)=  0.00000238
 Iteration  3 RMS(Cart)=  0.00000000 RMS(Int)=  0.00000238
 ClnCor:  largest displacement from symmetrization is 1.42D-12 for atom     3.
 Variable       Old X    -DE/DX   Delta X   Delta X   Delta X     New X
                                  (DIIS)     (GDIIS)  (Total)
    R1        1.85005  -0.00013   0.00000  -0.00038  -0.00037   1.84968
    R2        1.85005  -0.00013   0.00000  -0.00038  -0.00037   1.84968
    R3        1.84925  -0.00019   0.00000  -0.00050  -0.00050   1.84875
    A1        1.90248  -0.00002   0.00004   0.00068   0.00072   1.90320
    A2        1.90548   0.00008   0.00000   0.00182   0.00182   1.90730
    A3        1.90548   0.00008   0.00000   0.00182   0.00182   1.90730
    D1       -2.07826  -0.00007  -0.00004  -0.00299  -0.00303  -2.08129
         Item               Value     Threshold  Converged?
 Maximum Force            0.000188     0.000450     YES
 RMS     Force            0.000110     0.000300     YES
 Maximum Displacement     0.001876     0.001800     NO 
 RMS     Displacement     0.000976     0.001200     YES
 Predicted change in Energy=-3.250646D-07
 GradGradGradGradGradGradGradGradGradGradGradGradGradGradGradGradGradGrad

                          Input orientation:                          
 ---------------------------------------------------------------------
 Center     Atomic      Atomic             Coordinates (Angstroms)
 Number     Number       Type             X           Y           Z
 ---------------------------------------------------------------------
      1          8           0       -0.271441    1.700770    0.101414
      2          1           0        0.605332    1.560290   -0.310412
      3          1           0       -0.696536    2.480360   -0.310412
      4          1           0       -0.829332    0.911372   -0.049291
 ---------------------------------------------------------------------
                    Distance matrix (angstroms):
                    1          2          3          4
     1  O    0.000000
     2  H    0.978808   0.000000
     3  H    0.978808   1.594173   0.000000
     4  H    0.978317   1.596101   1.596101   0.000000
 Stoichiometry    H3O(1+)
 Framework group  CS[SG(HO),X(H2)]
 Deg. of freedom     4
 Full point group                 CS      NOp   2
 Largest Abelian subgroup         CS      NOp   2
 Largest concise Abelian subgroup CS      NOp   2
                         Standard orientation:                         
 ---------------------------------------------------------------------
 Center     Atomic      Atomic             Coordinates (Angstroms)
 Number     Number       Type             X           Y           Z
 ---------------------------------------------------------------------
      1          8           0        0.000000    0.090144    0.000000
      2          1           0        0.460938   -0.241903    0.797087
      3          1           0        0.460938   -0.241903   -0.797087
      4          1           0       -0.921875   -0.237346    0.000000
 ---------------------------------------------------------------------
 Rotational constants (GHZ):    324.2868152    323.4281909    196.9972568
 Standard basis: 6-31+G(d,p) (6D, 7F)
 There are    23 symmetry adapted basis functions of A'  symmetry.
 There are    11 symmetry adapted basis functions of A"  symmetry.
 Integral buffers will be    262144 words long.
 Raffenetti 2 integral format.
 Two-electron integral symmetry is turned on.
    34 basis functions,    53 primitive gaussians,    34 cartesian basis functions
     5 alpha electrons        5 beta electrons
       nuclear repulsion energy        13.9724252508 Hartrees.
 NAtoms=    4 NActive=    4 NUniq=    3 SFac= 1.33D+00 NAtFMM=   80 NAOKFM=F Big=F
 ------------------------------------------------------------------------------
 Polarizable Continuum Model (PCM)
 =================================
 Model                : PCM.
 Atomic radii         : SMD-Coulomb.
 Polarization charges : Total charges.
 Charge compensation  : None.
 Solution method      : Matrix inversion.
 Cavity type          : VdW (van der Waals Surface) (Alpha=1.000).
 Cavity algorithm     : GePol (No added spheres)
                        Default sphere list used, NSphG=    4.
                        Lebedev-Laikov grids with approx.  5.0 points / Ang**2.
                        Smoothing algorithm: Karplus/York (Gamma=1.0000).
                        Polarization charges: spherical gaussians, with
                                              point-specific exponents (IZeta= 3).
                        Self-potential: point-specific (ISelfS= 7).
                        Self-field    : sphere-specific E.n sum rule (ISelfD= 2).
 1st derivatives      : Analytical E(r).r(x)/FMM algorithm (CHGder, D1EAlg=3).
                        Cavity 1st derivative terms included.
 Solvent              : Water, Eps=  78.355300 Eps(inf)=   1.777849
 ------------------------------------------------------------------------------
 Spheres list:
 ISph  on   Nord    Re0     Alpha      Xe            Ye            Ze
    1   O      1    1.520   1.000      0.000000      0.090144      0.000000
    2   H      2    1.200   1.000      0.460938     -0.241903      0.797087
    3   H      3    1.200   1.000      0.460938     -0.241903     -0.797087
    4   H      4    1.200   1.000     -0.921875     -0.237346      0.000000
 ------------------------------------------------------------------------------
 ------------------------------------------------------------------------------
 Atomic radii for non-electrostatic terms: SMD-CDS.
 ------------------------------------------------------------------------------
 Nuclear repulsion after PCM non-electrostatic terms =       13.9759238581 Hartrees.
 One-electron integrals computed using PRISM.
 NBasis=    34 RedAO= T  NBF=    23    11
 NBsUse=    34 1.00D-06 NBFU=    23    11
 Initial guess read from the read-write file.
 B after Tr=     0.000000    0.000000    0.000000
         Rot=    1.000000    0.000000    0.000000    0.000000 Ang=   0.00 deg.
 Initial guess orbital symmetries:
       Occupied  (A') (A') (A') (A") (A')
       Virtual   (A') (A') (A") (A') (A") (A') (A') (A") (A') (A")
                 (A') (A') (A') (A') (A') (A") (A') (A") (A') (A")
                 (A") (A') (A') (A") (A') (A') (A') (A") (A')
 Requested convergence on RMS density matrix=1.00D-08 within 128 cycles.
 Requested convergence on MAX density matrix=1.00D-06.
 Requested convergence on             energy=1.00D-06.
 No special actions if energy rises.
 Keep R1 ints in memory in canonical form, NReq=3179227.
 Error on total polarization charges =  0.00868
 SCF Done:  E(RM062X) =  -76.8243732604     A.U. after    6 cycles
             Convg  =    0.5610D-08             -V/T =  2.0104
 SMD-CDS (non-electrostatic) energy             (kcal/mol) =       2.20
 (included in total energy above)
 D1PCM: PCM CHGder 1st derivatives, ID1Alg=3 FixD1E=F DoIter=F DoCFld=F I1PDM=0.
 Calling FoFJK, ICntrl=      2127 FMM=F ISym2X=1 I1Cent= 0 IOpClX= 0 NMat=1 NMatS=1 NMatT=0.
 ***** Axes restored to original set *****
 -------------------------------------------------------------------
 Center     Atomic                   Forces (Hartrees/Bohr)
 Number     Number              X              Y              Z
 -------------------------------------------------------------------
      1        8          -0.000055357   -0.000078328    0.000095639
      2        1           0.000056349    0.000051394    0.000301325
      3        1           0.000029637    0.000070273    0.000301325
      4        1          -0.000030629   -0.000043339   -0.000698290
 -------------------------------------------------------------------
 Cartesian Forces:  Max     0.000698290 RMS     0.000241867

 GradGradGradGradGradGradGradGradGradGradGradGradGradGradGradGradGradGrad
 Berny optimization.
 Using GEDIIS/GDIIS optimizer.
 Internal  Forces:  Max     0.000067606 RMS     0.000041189
 Search for a local minimum.
 Step number   6 out of a maximum of   20
 All quantities printed in internal units (Hartrees-Bohrs-Radians)
 Mixed Optimization -- En-DIIS/RFO-DIIS
 Swaping is turned off.
 Update second derivatives using D2CorX and points    1    2    3    4    5
                                                      6
 DE=  1.23D-06 DEPred=-3.25D-07 R=-3.79D+00
 Trust test=-3.79D+00 RLast= 4.10D-03 DXMaxT set to 1.91D-01
 The second derivative matrix:
                          R1        R2        R3        A1        A2
           R1           0.56435
           R2           0.00962   0.56435
           R3           0.00084   0.00084   0.55030
           A1           0.01494   0.01494   0.01478   0.07181
           A2           0.02028   0.02028   0.03087  -0.02576   0.14132
           A3           0.02028   0.02028   0.03087  -0.02576  -0.01868
           D1          -0.00047  -0.00047   0.00909   0.00148   0.00998
                          A3        D1
           A3           0.14132
           D1           0.00998   0.04104
     Eigenvalues ---    0.03505   0.13760   0.16000   0.55204   0.55473
     Eigenvalues ---    0.576391000.00000
 En-DIIS/RFO-DIIS IScMMF=        0 using points:     6    5    4
 RFO step:  Lambda=-3.50391470D-08.
 DIIS coeffs:      0.69126      0.29539      0.01335
 Iteration  1 RMS(Cart)=  0.00036898 RMS(Int)=  0.00000046
 Iteration  2 RMS(Cart)=  0.00000019 RMS(Int)=  0.00000041
 ClnCor:  largest displacement from symmetrization is 1.53D-13 for atom     3.
 Variable       Old X    -DE/DX   Delta X   Delta X   Delta X     New X
                                  (DIIS)     (GDIIS)  (Total)
    R1        1.84968   0.00000   0.00012  -0.00008   0.00005   1.84973
    R2        1.84968   0.00000   0.00012  -0.00008   0.00005   1.84973
    R3        1.84875  -0.00001   0.00017  -0.00011   0.00005   1.84880
    A1        1.90320   0.00004  -0.00006   0.00005  -0.00001   1.90319
    A2        1.90730  -0.00007  -0.00058  -0.00011  -0.00069   1.90661
    A3        1.90730  -0.00007  -0.00058  -0.00011  -0.00069   1.90661
    D1       -2.08129   0.00003   0.00076   0.00007   0.00083  -2.08046
         Item               Value     Threshold  Converged?
 Maximum Force            0.000068     0.000450     YES
 RMS     Force            0.000041     0.000300     YES
 Maximum Displacement     0.000561     0.001800     YES
 RMS     Displacement     0.000369     0.001200     YES
 Predicted change in Energy=-5.593192D-08
 Optimization completed.
    -- Stationary point found.
                           ----------------------------
                           !   Optimized Parameters   !
                           ! (Angstroms and Degrees)  !
 --------------------------                            --------------------------
 ! Name  Definition              Value          Derivative Info.                !
 --------------------------------------------------------------------------------
 ! R1    R(1,2)                  0.9788         -DE/DX =    0.0                 !
 ! R2    R(1,3)                  0.9788         -DE/DX =    0.0                 !
 ! R3    R(1,4)                  0.9783         -DE/DX =    0.0                 !
 ! A1    A(2,1,3)              109.0451         -DE/DX =    0.0                 !
 ! A2    A(2,1,4)              109.2803         -DE/DX =   -0.0001              !
 ! A3    A(3,1,4)              109.2803         -DE/DX =   -0.0001              !
 ! D1    D(2,1,4,3)           -119.2492         -DE/DX =    0.0                 !
 --------------------------------------------------------------------------------
 GradGradGradGradGradGradGradGradGradGradGradGradGradGradGradGradGradGrad

                          Input orientation:                          
 ---------------------------------------------------------------------
 Center     Atomic      Atomic             Coordinates (Angstroms)
 Number     Number       Type             X           Y           Z
 ---------------------------------------------------------------------
      1          8           0       -0.271441    1.700770    0.101414
      2          1           0        0.605332    1.560290   -0.310412
      3          1           0       -0.696536    2.480360   -0.310412
      4          1           0       -0.829332    0.911372   -0.049291
 ---------------------------------------------------------------------
                    Distance matrix (angstroms):
                    1          2          3          4
     1  O    0.000000
     2  H    0.978808   0.000000
     3  H    0.978808   1.594173   0.000000
     4  H    0.978317   1.596101   1.596101   0.000000
 Stoichiometry    H3O(1+)
 Framework group  CS[SG(HO),X(H2)]
 Deg. of freedom     4
 Full point group                 CS      NOp   2
 Largest Abelian subgroup         CS      NOp   2
 Largest concise Abelian subgroup CS      NOp   2
                         Standard orientation:                         
 ---------------------------------------------------------------------
 Center     Atomic      Atomic             Coordinates (Angstroms)
 Number     Number       Type             X           Y           Z
 ---------------------------------------------------------------------
      1          8           0        0.000000    0.090144    0.000000
      2          1           0        0.460938   -0.241903    0.797087
      3          1           0        0.460938   -0.241903   -0.797087
      4          1           0       -0.921875   -0.237346    0.000000
 ---------------------------------------------------------------------
 Rotational constants (GHZ):    324.2868152    323.4281909    196.9972568

 **********************************************************************

            Population analysis using the SCF density.

 **********************************************************************

 Orbital symmetries:
       Occupied  (A') (A') (A') (A") (A')
       Virtual   (A') (A') (A") (A') (A") (A') (A') (A") (A') (A")
                 (A') (A') (A') (A') (A') (A") (A') (A") (A') (A")
                 (A") (A') (A') (A") (A') (A') (A') (A") (A')
 The electronic state is 1-A'.
 Alpha  occ. eigenvalues --  -19.78883  -1.28536  -0.71965  -0.71881  -0.55157
 Alpha virt. eigenvalues --    0.04537   0.13045   0.13072   0.15385   0.21753
 Alpha virt. eigenvalues --    0.21816   0.27681   0.91908   0.91992   1.04861
 Alpha virt. eigenvalues --    1.04872   1.05222   1.12032   1.25965   1.40223
 Alpha virt. eigenvalues --    1.40325   1.93498   2.07575   2.30984   2.31117
 Alpha virt. eigenvalues --    2.46595   2.46762   2.77791   3.01158   3.01256
 Alpha virt. eigenvalues --    3.27136   3.43177   3.43272   3.97872
          Condensed to atoms (all electrons):
              1          2          3          4
     1  O    7.685227   0.286043   0.286043   0.286261
     2  H    0.286043   0.220689  -0.010679  -0.010616
     3  H    0.286043  -0.010679   0.220689  -0.010616
     4  H    0.286261  -0.010616  -0.010616   0.220523
 Mulliken atomic charges:
              1
     1  O   -0.543574
     2  H    0.514563
     3  H    0.514563
     4  H    0.514448
 Sum of Mulliken atomic charges =   1.00000
 Mulliken charges with hydrogens summed into heavy atoms:
              1
     1  O    1.000000
 Sum of Mulliken charges with hydrogens summed into heavy atoms =   1.00000
 Electronic spatial extent (au):  <R**2>=             18.4735
 Charge=              1.0000 electrons
 Dipole moment (field-independent basis, Debye):
    X=             -0.0017    Y=             -2.0930    Z=              0.0000  Tot=              2.0930
 Quadrupole moment (field-independent basis, Debye-Ang):
   XX=             -2.6304   YY=             -6.2038   ZZ=             -2.6419
   XY=             -0.0133   XZ=              0.0000   YZ=              0.0000
 Traceless Quadrupole moment (field-independent basis, Debye-Ang):
   XX=              1.1950   YY=             -2.3784   ZZ=              1.1835
   XY=             -0.0133   XZ=              0.0000   YZ=              0.0000
 Octapole moment (field-independent basis, Debye-Ang**2):
  XXX=             -1.6798  YYY=             -1.1536  ZZZ=              0.0000  XYY=              0.0053
  XXY=             -1.1927  XXZ=              0.0000  XZZ=              1.6721  YZZ=             -1.2011
  YYZ=              0.0000  XYZ=              0.0000
 Hexadecapole moment (field-independent basis, Debye-Ang**3):
 XXXX=             -3.3053 YYYY=             -5.5233 ZZZZ=             -3.3179 XXXY=              0.4662
 XXXZ=              0.0000 YYYX=             -0.0008 YYYZ=              0.0000 ZZZX=              0.0000
 ZZZY=              0.0000 XXYY=             -1.6589 XXZZ=             -1.1041 YYZZ=             -1.6528
 XXYZ=              0.0000 YYXZ=              0.0000 ZZXY=             -0.4738
 N-N= 1.397592385805D+01 E-N=-2.044938986688D+02  KE= 7.603720424125D+01
 Symmetry A'   KE= 7.211941558734D+01
 Symmetry A"   KE= 3.917788653913D+00
 1|1|UNPC-DESKTOP-319GPER|FOpt|RM062X|6-31+G(d,p)|H3O1(1+)|SAGAD|09-Nov
 -2020|0||# opt freq 6-31+g(d,p) scrf=smd m062x||hidronio en medio acuo
 so m062x||1,1|O,-0.2714406143,1.7007703767,0.1014138987|H,0.6053321627
 ,1.5602902639,-0.3104117612|H,-0.6965358061,2.4803595322,-0.3104117503
 |H,-0.8293319337,0.91137238,-0.0492907945||Version=IA32W-G09RevA.02|St
 ate=1-A'|HF=-76.8243733|RMSD=5.610e-009|RMSF=2.419e-004|Dipole=-0.0885
 786,-0.1253358,-0.8090103|Quadrupole=0.8510408,0.8221539,-1.6731947,-0
 .040787,-0.284955,-0.403202|PG=CS [SG(H1O1),X(H2)]||@


 A SUCCESSFUL PURSUIT OF SCIENCE MAKES A MAN THE
 BENEFACTOR OF ALL MANKIND OF EVERY AGE.
   --  JOSEPH PRIESTLEY, "EXPERIMENTS AND
 OBSERVATIONS ON DIFFERENT KINDS OF AIR", 1774
 Job cpu time:  0 days  0 hours  0 minutes 14.0 seconds.
 File lengths (MBytes):  RWF=      5 Int=      0 D2E=      0 Chk=      1 Scr=      1
 Normal termination of Gaussian 09 at Mon Nov 09 12:49:00 2020.
 Link1:  Proceeding to internal job step number  2.
 ----------------------------------------------------------------------
 #N Geom=AllCheck Guess=TCheck SCRF=Check GenChk RM062X/6-31+G(d,p) Fre
 q
 ----------------------------------------------------------------------
 1/10=4,29=7,30=1,38=1,40=1/1,3;
 2/12=2,40=1/2;
 3/5=1,6=6,7=111,11=2,14=-4,16=1,25=1,30=1,70=2,71=2,74=-55,116=1/1,2,3;
 4/5=101/1;
 5/5=2,98=1/2;
 8/6=4,10=90,11=11/1;
 11/6=1,8=1,9=11,15=111,16=1/1,2,10;
 10/6=1/2;
 6/7=2,8=2,9=2,10=2,18=1,28=1/1;
 7/8=1,10=1,25=1/1,2,3,16;
 1/10=4,30=1/3;
 99//99;
 ------------------------------
 hidronio en medio acuoso m062x
 ------------------------------
 Redundant internal coordinates taken from checkpoint file:
 C:\Users\sagad\Documents\rayGit\FQ\quimicaComputacional\clase8Pka\productos\hidroniumM062x.chk
 Charge =  1 Multiplicity = 1
 O,0,-0.2714406143,1.7007703767,0.1014138987
 H,0,0.6053321627,1.5602902639,-0.3104117612
 H,0,-0.6965358061,2.4803595322,-0.3104117503
 H,0,-0.8293319337,0.91137238,-0.0492907945
 Recover connectivity data from disk.

 GradGradGradGradGradGradGradGradGradGradGradGradGradGradGradGradGradGrad
 Berny optimization.
 Initialization pass.
                           ----------------------------
                           !    Initial Parameters    !
                           ! (Angstroms and Degrees)  !
 --------------------------                            --------------------------
 ! Name  Definition              Value          Derivative Info.                !
 --------------------------------------------------------------------------------
 ! R1    R(1,2)                  0.9788         calculate D2E/DX2 analytically  !
 ! R2    R(1,3)                  0.9788         calculate D2E/DX2 analytically  !
 ! R3    R(1,4)                  0.9783         calculate D2E/DX2 analytically  !
 ! A1    A(2,1,3)              109.0451         calculate D2E/DX2 analytically  !
 ! A2    A(2,1,4)              109.2803         calculate D2E/DX2 analytically  !
 ! A3    A(3,1,4)              109.2803         calculate D2E/DX2 analytically  !
 ! D1    D(2,1,4,3)           -119.2492         calculate D2E/DX2 analytically  !
 --------------------------------------------------------------------------------
 Trust Radius=3.00D-01 FncErr=1.00D-07 GrdErr=1.00D-07
 Number of steps in this run=   2 maximum allowed number of steps=   2.
 GradGradGradGradGradGradGradGradGradGradGradGradGradGradGradGradGradGrad

                          Input orientation:                          
 ---------------------------------------------------------------------
 Center     Atomic      Atomic             Coordinates (Angstroms)
 Number     Number       Type             X           Y           Z
 ---------------------------------------------------------------------
      1          8           0       -0.271441    1.700770    0.101414
      2          1           0        0.605332    1.560290   -0.310412
      3          1           0       -0.696536    2.480360   -0.310412
      4          1           0       -0.829332    0.911372   -0.049291
 ---------------------------------------------------------------------
                    Distance matrix (angstroms):
                    1          2          3          4
     1  O    0.000000
     2  H    0.978808   0.000000
     3  H    0.978808   1.594173   0.000000
     4  H    0.978317   1.596101   1.596101   0.000000
 Stoichiometry    H3O(1+)
 Framework group  CS[SG(HO),X(H2)]
 Deg. of freedom     4
 Full point group                 CS      NOp   2
 Largest Abelian subgroup         CS      NOp   2
 Largest concise Abelian subgroup CS      NOp   2
                         Standard orientation:                         
 ---------------------------------------------------------------------
 Center     Atomic      Atomic             Coordinates (Angstroms)
 Number     Number       Type             X           Y           Z
 ---------------------------------------------------------------------
      1          8           0        0.000000    0.090144    0.000000
      2          1           0        0.460938   -0.241903    0.797087
      3          1           0        0.460938   -0.241903   -0.797087
      4          1           0       -0.921875   -0.237346    0.000000
 ---------------------------------------------------------------------
 Rotational constants (GHZ):    324.2868152    323.4281909    196.9972568
 Standard basis: 6-31+G(d,p) (6D, 7F)
 There are    23 symmetry adapted basis functions of A'  symmetry.
 There are    11 symmetry adapted basis functions of A"  symmetry.
 Integral buffers will be    262144 words long.
 Raffenetti 2 integral format.
 Two-electron integral symmetry is turned on.
    34 basis functions,    53 primitive gaussians,    34 cartesian basis functions
     5 alpha electrons        5 beta electrons
       nuclear repulsion energy        13.9724252508 Hartrees.
 NAtoms=    4 NActive=    4 NUniq=    3 SFac= 1.33D+00 NAtFMM=   80 NAOKFM=F Big=F
 ------------------------------------------------------------------------------
 Polarizable Continuum Model (PCM)
 =================================
 Model                : PCM.
 Atomic radii         : SMD-Coulomb.
 Polarization charges : Total charges.
 Charge compensation  : None.
 Solution method      : Matrix inversion.
 Cavity type          : VdW (van der Waals Surface) (Alpha=1.000).
[...]
                        Cavity 1st derivative terms included.
 2nd derivatives      : Analytical E(r).r(xy)/FMM algorithm (CHGder, D2EAlg=3).
                        Cavity 2nd derivative terms included.
 Solvent              : Water, Eps=  78.355300 Eps(inf)=   1.777849
 ------------------------------------------------------------------------------
 Spheres list:
 ISph  on   Nord    Re0     Alpha      Xe            Ye            Ze
    1   O      1    1.520   1.000      0.000000      0.090144      0.000000
    2   H      2    1.200   1.000      0.460938     -0.241903      0.797087
    3   H      3    1.200   1.000      0.460938     -0.241903     -0.797087
    4   H      4    1.200   1.000     -0.921875     -0.237346      0.000000
 ------------------------------------------------------------------------------
 ------------------------------------------------------------------------------
 Atomic radii for non-electrostatic terms: SMD-CDS.
 ------------------------------------------------------------------------------
 Nuclear repulsion after PCM non-electrostatic terms =       13.9759238581 Hartrees.
 One-electron integrals computed using PRISM.
 NBasis=    34 RedAO= T  NBF=    23    11
 NBsUse=    34 1.00D-06 NBFU=    23    11
 Initial guess read from the checkpoint file:  C:\Users\sagad\Documents\rayGit\FQ
 \quimicaComputacional\clase8Pka\productos\hidroniumM062x.chk
 B after Tr=     0.000000    0.000000    0.000000
         Rot=    1.000000    0.000000    0.000000    0.000000 Ang=   0.00 deg.
 Initial guess orbital symmetries:
       Occupied  (A') (A') (A') (A") (A')
       Virtual   (A') (A') (A") (A') (A") (A') (A') (A") (A') (A")
                 (A') (A') (A') (A') (A') (A") (A') (A") (A') (A")
                 (A") (A') (A') (A") (A') (A') (A') (A") (A')
 Requested convergence on RMS density matrix=1.00D-08 within 128 cycles.
 Requested convergence on MAX density matrix=1.00D-06.
 Requested convergence on             energy=1.00D-06.
 No special actions if energy rises.
 Keep R1 ints in memory in canonical form, NReq=3179227.
 Error on total polarization charges =  0.00868
 SCF Done:  E(RM062X) =  -76.8243732604     A.U. after    1 cycles
             Convg  =    0.9259D-09             -V/T =  2.0104
 SMD-CDS (non-electrostatic) energy             (kcal/mol) =       2.20
 (included in total energy above)
 Range of M.O.s used for correlation:     1    34
 NBasis=    34 NAE=     5 NBE=     5 NFC=     0 NFV=     0
 NROrb=     34 NOA=     5 NOB=     5 NVA=    29 NVB=    29
 Symmetrizing basis deriv contribution to polar:
 IMax=3 JMax=2 DiffMx= 0.00D+00
 G2DrvN: will do     5 centers at a time, making    1 passes doing MaxLOS=2.
 Calling FoFCou, ICntrl=  3107 FMM=F I1Cent=   0 AccDes= 0.00D+00.
 FoFDir/FoFCou used for L=0 through L=2.
 G2PCM: DoFxE=T DoFxN=T DoGrad=T DoPD/DQ/DG=FFF NFrqRd=   0 IEInf=0 DoCFld=F IF1Alg=4.
 End of G2Drv Frequency-dependent properties file   721 does not exist.
 End of G2Drv Frequency-dependent properties file   722 does not exist.
          IDoAtm=1111
 NEqPCM:  Using equilibrium solvation (IEInf=0, Eps=  78.3553, EpsInf=   1.7778)
          Differentiating once with respect to electric field.
                with respect to dipole field.
          Differentiating once with respect to nuclear coordinates.
          Keep R1 ints in memory in canonical form, NReq=998209.
          There are    12 degrees of freedom in the 1st order CPHF.  IDoFFX=4.
     12 vectors produced by pass  0 Test12= 1.21D-15 8.33D-09 XBig12= 1.52D+00 6.96D-01.
 AX will form    12 AO Fock derivatives at one time.
     12 vectors produced by pass  1 Test12= 1.21D-15 8.33D-09 XBig12= 7.45D-02 1.29D-01.
     12 vectors produced by pass  2 Test12= 1.21D-15 8.33D-09 XBig12= 5.27D-04 7.41D-03.
     12 vectors produced by pass  3 Test12= 1.21D-15 8.33D-09 XBig12= 7.35D-07 2.44D-04.
     12 vectors produced by pass  4 Test12= 1.21D-15 8.33D-09 XBig12= 9.58D-10 1.17D-05.
      6 vectors produced by pass  5 Test12= 1.21D-15 8.33D-09 XBig12= 1.26D-12 4.46D-07.
      1 vectors produced by pass  6 Test12= 1.21D-15 8.33D-09 XBig12= 9.38D-16 1.21D-08.
 Inverted reduced A of dimension    67 with in-core refinement.
 Isotropic polarizability for W=    0.000000        6.19 Bohr**3.
 End of Minotr Frequency-dependent properties file   721 does not exist.
 End of Minotr Frequency-dependent properties file   722 does not exist.

 **********************************************************************

            Population analysis using the SCF density.

 **********************************************************************

 Orbital symmetries:
       Occupied  (A') (A') (A') (A") (A')
       Virtual   (A') (A') (A") (A') (A") (A') (A') (A") (A') (A")
                 (A') (A') (A') (A') (A') (A") (A') (A") (A') (A")
                 (A") (A') (A') (A") (A') (A') (A') (A") (A')
 The electronic state is 1-A'.
 Alpha  occ. eigenvalues --  -19.78883  -1.28536  -0.71965  -0.71881  -0.55157
 Alpha virt. eigenvalues --    0.04537   0.13045   0.13072   0.15385   0.21753
 Alpha virt. eigenvalues --    0.21816   0.27681   0.91908   0.91992   1.04861
 Alpha virt. eigenvalues --    1.04872   1.05222   1.12032   1.25965   1.40223
 Alpha virt. eigenvalues --    1.40325   1.93498   2.07575   2.30984   2.31117
 Alpha virt. eigenvalues --    2.46595   2.46762   2.77791   3.01158   3.01256
 Alpha virt. eigenvalues --    3.27136   3.43177   3.43272   3.97872
          Condensed to atoms (all electrons):
              1          2          3          4
     1  O    7.685227   0.286043   0.286043   0.286261
     2  H    0.286043   0.220689  -0.010679  -0.010616
     3  H    0.286043  -0.010679   0.220689  -0.010616
     4  H    0.286261  -0.010616  -0.010616   0.220523
 Mulliken atomic charges:
              1
     1  O   -0.543574
     2  H    0.514563
     3  H    0.514563
     4  H    0.514448
 Sum of Mulliken atomic charges =   1.00000
 Mulliken charges with hydrogens summed into heavy atoms:
              1
     1  O    1.000000
 Sum of Mulliken charges with hydrogens summed into heavy atoms =   1.00000
 APT atomic charges:
              1
     1  O   -0.593395
     2  H    0.530273
     3  H    0.530273
     4  H    0.532848
 Sum of APT charges=   1.00000
 APT Atomic charges with hydrogens summed into heavy atoms:
              1
     1  O    1.000000
     2  H    0.000000
     3  H    0.000000
     4  H    0.000000
 Sum of APT charges=   1.00000
 Electronic spatial extent (au):  <R**2>=             18.4735
 Charge=              1.0000 electrons
 Dipole moment (field-independent basis, Debye):
    X=             -0.0017    Y=             -2.0930    Z=              0.0000  Tot=              2.0930
 Quadrupole moment (field-independent basis, Debye-Ang):
   XX=             -2.6304   YY=             -6.2038   ZZ=             -2.6419
   XY=             -0.0133   XZ=              0.0000   YZ=              0.0000
 Traceless Quadrupole moment (field-independent basis, Debye-Ang):
   XX=              1.1950   YY=             -2.3784   ZZ=              1.1835
   XY=             -0.0133   XZ=              0.0000   YZ=              0.0000
 Octapole moment (field-independent basis, Debye-Ang**2):
  XXX=             -1.6798  YYY=             -1.1536  ZZZ=              0.0000  XYY=              0.0053
  XXY=             -1.1927  XXZ=              0.0000  XZZ=              1.6721  YZZ=             -1.2011
  YYZ=              0.0000  XYZ=              0.0000
 Hexadecapole moment (field-independent basis, Debye-Ang**3):
 XXXX=             -3.3053 YYYY=             -5.5233 ZZZZ=             -3.3179 XXXY=              0.4662
 XXXZ=              0.0000 YYYX=             -0.0008 YYYZ=              0.0000 ZZZX=              0.0000
 ZZZY=              0.0000 XXYY=             -1.6589 XXZZ=             -1.1041 YYZZ=             -1.6528
 XXYZ=              0.0000 YYXZ=              0.0000 ZZXY=             -0.4738
 N-N= 1.397592385805D+01 E-N=-2.044938988118D+02  KE= 7.603720431336D+01
 Symmetry A'   KE= 7.211941565346D+01
 Symmetry A"   KE= 3.917788659898D+00
  Exact polarizability:   6.711  -0.004   5.141   0.000   0.000   6.706
 Approx polarizability:   6.141  -0.009   4.545   0.000   0.000   6.131
 D2PCM: PCM CHGder 2nd derivatives, FixD1E=F FixD2E=F DoIter=F DoCFld=F I1PDM=0
 Calling FoFJK, ICntrl=    100127 FMM=F ISym2X=1 I1Cent= 0 IOpClX= 0 NMat=1 NMatS=1 NMatT=0.
 Full mass-weighted force constant matrix:
 Low frequencies --- -254.5683 -145.3344    0.0025    0.0025    0.0035  307.9629
 Low frequencies --- 1029.2201 1647.0893 1650.8286
 Diagonal vibrational polarizability:
        2.6755758      15.7000757       2.6702853
 Harmonic frequencies (cm**-1), IR intensities (KM/Mole), Raman scattering
 activities (A**4/AMU), depolarization ratios for plane and unpolarized
 incident light, reduced masses (AMU), force constants (mDyne/A),
 and normal coordinates:
                     1                      2                      3
                    A'                     A'                     A"
 Frequencies --  1022.9815              1646.9262              1650.3861
 Red. masses --     1.1634                 1.0624                 1.0615
 Frc consts  --     0.7173                 1.6978                 1.7034
 IR Inten    --   603.5152               156.9889               155.2588
  Atom  AN      X      Y      Z        X      Y      Z        X      Y      Z
     1   8     0.00   0.10   0.00     0.06   0.00   0.00     0.00   0.00   0.06
     2   1    -0.10  -0.54  -0.18    -0.55   0.11   0.39     0.39   0.20  -0.09
     3   1    -0.10  -0.54   0.18    -0.55   0.11  -0.39    -0.39  -0.20  -0.09
     4   1     0.19  -0.54   0.00     0.13  -0.23   0.00     0.00   0.00  -0.77
                     4                      5                      6
                    A'                     A"                     A'
 Frequencies --  3631.5935              3718.6160              3732.5801
 Red. masses --     1.0239                 1.0859                 1.0844
 Frc consts  --     7.9564                 8.8469                 8.9012
 IR Inten    --    93.1123               583.8839               573.7634
  Atom  AN      X      Y      Z        X      Y      Z        X      Y      Z
     1   8    -0.01   0.03   0.00     0.00   0.00   0.07     0.07   0.00   0.00
     2   1     0.29  -0.18   0.51    -0.33   0.24  -0.57    -0.16   0.12  -0.29
     3   1     0.29  -0.18  -0.51     0.33  -0.24  -0.57    -0.16   0.12   0.29
     4   1    -0.48  -0.14   0.00     0.00   0.00   0.00    -0.82  -0.28   0.00

 -------------------
 - Thermochemistry -
 -------------------
 Temperature   298.150 Kelvin.  Pressure   1.00000 Atm.
 Atom     1 has atomic number  8 and mass  15.99491
 Atom     2 has atomic number  1 and mass   1.00783
 Atom     3 has atomic number  1 and mass   1.00783
 Atom     4 has atomic number  1 and mass   1.00783
 Molecular mass:    19.01839 amu.
 Principal axes and moments of inertia in atomic units:
                           1         2         3
     Eigenvalues --     5.56526   5.58004   9.16125
           X            0.99999   0.00000   0.00420
           Y           -0.00420   0.00000   0.99999
           Z            0.00000   1.00000   0.00000
 This molecule is an asymmetric top.
 Rotational symmetry number  1.
 Rotational temperatures (Kelvin)     15.56329    15.52209     9.45437
 Rotational constants (GHZ):         324.28682   323.42819   196.99726
 Zero-point vibrational energy      92130.9 (Joules/Mol)
                                   22.01981 (Kcal/Mol)
 Vibrational temperatures:   1471.84  2369.56  2374.53  5225.05  5350.25
          (Kelvin)           5370.34
 
 Zero-point correction=                           0.035091 (Hartree/Particle)
 Thermal correction to Energy=                    0.037962
 Thermal correction to Enthalpy=                  0.038907
 Thermal correction to Gibbs Free Energy=         0.015964
 Sum of electronic and zero-point Energies=            -76.789282
 Sum of electronic and thermal Energies=               -76.786411
 Sum of electronic and thermal Enthalpies=             -76.785467
 Sum of electronic and thermal Free Energies=          -76.808409
 
                     E (Thermal)             CV                S
                      KCal/Mol        Cal/Mol-Kelvin    Cal/Mol-Kelvin
 Total                   23.822              6.403             48.286
 Electronic               0.000              0.000              0.000
 Translational            0.889              2.981             34.771
 Rotational               0.889              2.981             13.417
 Vibrational             22.044              0.441              0.098
                       Q            Log10(Q)             Ln(Q)
 Total Bot       0.453857D-07         -7.343081        -16.908069
 Total V=0       0.627386D+09          8.797535         20.257072
 Vib (Bot)       0.729152D-16        -16.137182        -37.157235
 Vib (V=0)       0.100794D+01          0.003434          0.007906
 Electronic      0.100000D+01          0.000000          0.000000
 Translational   0.325999D+07          6.513216         14.997234
 Rotational      0.190935D+03          2.280885          5.251932
 ***** Axes restored to original set *****
 -------------------------------------------------------------------
 Center     Atomic                   Forces (Hartrees/Bohr)
 Number     Number              X              Y              Z
 -------------------------------------------------------------------
      1        8          -0.000055358   -0.000078329    0.000095640
      2        1           0.000056351    0.000051394    0.000301325
      3        1           0.000029636    0.000070275    0.000301325
      4        1          -0.000030629   -0.000043340   -0.000698290
 -------------------------------------------------------------------
 Cartesian Forces:  Max     0.000698290 RMS     0.000241868

 GradGradGradGradGradGradGradGradGradGradGradGradGradGradGradGradGradGrad
 Berny optimization.
 Internal  Forces:  Max     0.000067606 RMS     0.000041188
 Search for a local minimum.
 Step number   1 out of a maximum of    2
 All quantities printed in internal units (Hartrees-Bohrs-Radians)
 Second derivative matrix not updated -- analytic derivatives used.
 The second derivative matrix:
                          R1        R2        R3        A1        A2
           R1           0.48879
           R2           0.00164   0.48879
           R3           0.00181   0.00181   0.49424
           A1           0.00495   0.00495  -0.00515   0.05251
           A2           0.00941  -0.00054   0.01251  -0.04090   0.11351
           A3          -0.00054   0.00941   0.01251  -0.04090  -0.02008
           D1          -0.01131  -0.01131  -0.00868  -0.01503  -0.00603
                          A3        D1
           A3           0.11351
           D1          -0.00603   0.02548
     Eigenvalues ---    0.03599   0.13332   0.13350   0.48743   0.48955
     Eigenvalues ---    0.497041000.00000
 Angle between quadratic step and forces=  32.79 degrees.
 Linear search not attempted -- first point.
 Iteration  1 RMS(Cart)=  0.00036104 RMS(Int)=  0.00000031
 Iteration  2 RMS(Cart)=  0.00000018 RMS(Int)=  0.00000025
 ClnCor:  largest displacement from symmetrization is 6.17D-14 for atom     3.
 Variable       Old X    -DE/DX   Delta X   Delta X   Delta X     New X
                                 (Linear)    (Quad)   (Total)
    R1        1.84968   0.00000   0.00000   0.00003   0.00003   1.84971
    R2        1.84968   0.00000   0.00000   0.00003   0.00003   1.84971
    R3        1.84875  -0.00001   0.00000   0.00004   0.00004   1.84879
    A1        1.90320   0.00004   0.00000   0.00003   0.00003   1.90323
    A2        1.90730  -0.00007   0.00000  -0.00067  -0.00067   1.90663
    A3        1.90730  -0.00007   0.00000  -0.00067  -0.00067   1.90663
    D1       -2.08129   0.00003   0.00000   0.00076   0.00076  -2.08053
         Item               Value     Threshold  Converged?
 Maximum Force            0.000068     0.000450     YES
 RMS     Force            0.000041     0.000300     YES
 Maximum Displacement     0.000523     0.001800     YES
 RMS     Displacement     0.000361     0.001200     YES
 Predicted change in Energy=-5.569217D-08
 Optimization completed.
    -- Stationary point found.
                           ----------------------------
                           !   Optimized Parameters   !
                           ! (Angstroms and Degrees)  !
 --------------------------                            --------------------------
 ! Name  Definition              Value          Derivative Info.                !
 --------------------------------------------------------------------------------
 ! R1    R(1,2)                  0.9788         -DE/DX =    0.0                 !
 ! R2    R(1,3)                  0.9788         -DE/DX =    0.0                 !
 ! R3    R(1,4)                  0.9783         -DE/DX =    0.0                 !
 ! A1    A(2,1,3)              109.0451         -DE/DX =    0.0                 !
 ! A2    A(2,1,4)              109.2803         -DE/DX =   -0.0001              !
 ! A3    A(3,1,4)              109.2803         -DE/DX =   -0.0001              !
 ! D1    D(2,1,4,3)           -119.2492         -DE/DX =    0.0                 !
 --------------------------------------------------------------------------------
 GradGradGradGradGradGradGradGradGradGradGradGradGradGradGradGradGradGrad

 1|1|UNPC-DESKTOP-319GPER|Freq|RM062X|6-31+G(d,p)|H3O1(1+)|SAGAD|09-Nov
 -2020|0||#N Geom=AllCheck Guess=TCheck SCRF=Check GenChk RM062X/6-31+G
 (d,p) Freq||hidronio en medio acuoso m062x||1,1|O,-0.2714406143,1.7007
 703767,0.1014138987|H,0.6053321627,1.5602902639,-0.3104117612|H,-0.696
 5358061,2.4803595322,-0.3104117503|H,-0.8293319337,0.91137238,-0.04929
 07945||Version=IA32W-G09RevA.02|State=1-A'|HF=-76.8243733|RMSD=9.259e-
 010|RMSF=2.419e-004|ZeroPoint=0.0350908|Thermal=0.0379623|Dipole=-0.08
 85786,-0.1253358,-0.8090104|DipoleDeriv=-0.6387826,0.005233,0.0166073,
 0.005233,-0.6350764,0.0234988,0.0133023,0.0188223,-0.506325,0.6519325,
 -0.0235324,-0.033894,-0.021631,0.436978,0.0135595,-0.0254601,0.013619,
 0.5019097,0.4751409,-0.0842362,0.0240958,-0.0861376,0.6137697,-0.02742
 36,0.0213366,-0.0194536,0.5019097,0.5117092,0.1025356,-0.0068091,0.102
 5356,0.5843287,-0.0096347,-0.0091788,-0.0129877,0.5025055|Polar=6.6892
 12,-0.0239784,6.6722296,-0.1675947,-0.2371411,5.1963721|PG=CS [SG(H1O1
 ),X(H2)]|NImag=0||0.72331147,-0.00669559,0.71856940,-0.05133742,-0.072
 64077,0.23599066,-0.37706525,0.05187395,0.15408745,0.40339136,0.058198
 91,-0.07684587,-0.02123901,-0.05792625,0.06685444,0.20020486,-0.025475
 85,-0.10578534,-0.17112951,0.02374674,0.09743556,-0.14493398,0.1404009
 2,-0.07145623,-0.01075492,0.02867268,-0.01957608,0.14080793,0.13407596
 ,-0.30897714,0.13815949,0.00309876,0.00049594,0.00099137,-0.15091193,0
 .32943787,-0.09084435,0.18021738,-0.10578533,0.00746914,-0.01812230,0.
 00745786,0.07950887,-0.15338694,0.09743555,-0.20131223,-0.18557927,-0.
 03129380,-0.01557119,-0.02894534,-0.00949927,0.01488097,0.01373722,0.0
 0386634,0.20200245,-0.18557927,-0.33274638,-0.04427970,0.00295354,0.00
 949549,0.00073774,-0.01816166,-0.02095667,-0.00870814,0.20078740,0.344
 20756,-0.05802308,-0.08210077,-0.02441999,0.00957291,0.01561458,0.0008
 9193,0.01152345,0.01423608,0.00089193,0.03692672,0.05225011,0.02263614
 ||0.00005536,0.00007833,-0.00009564,-0.00005635,-0.00005139,-0.0003013
 2,-0.00002964,-0.00007027,-0.00030132,0.00003063,0.00004334,0.00069829
 |||@


 A SUCCESSFUL PURSUIT OF SCIENCE MAKES A MAN THE
 BENEFACTOR OF ALL MANKIND OF EVERY AGE.
   --  JOSEPH PRIESTLEY, "EXPERIMENTS AND
 OBSERVATIONS ON DIFFERENT KINDS OF AIR", 1774
 Job cpu time:  0 days  0 hours  0 minutes  7.0 seconds.
 File lengths (MBytes):  RWF=      5 Int=      0 D2E=      0 Chk=      2 Scr=      1
 Normal termination of Gaussian 09 at Mon Nov 09 12:49:07 2020.
