 Entering Link 1 = C:\G09W\l1.exe PID=     13064.
  
 Copyright (c) 1988,1990,1992,1993,1995,1998,2003,2009, Gaussian, Inc.
                  All Rights Reserved.
  
 This is part of the Gaussian(R) 09 program.  It is based on
 the Gaussian(R) 03 system (copyright 2003, Gaussian, Inc.),
 the Gaussian(R) 98 system (copyright 1998, Gaussian, Inc.),
 the Gaussian(R) 94 system (copyright 1995, Gaussian, Inc.),
 the Gaussian 92(TM) system (copyright 1992, Gaussian, Inc.),
 the Gaussian 90(TM) system (copyright 1990, Gaussian, Inc.),
 the Gaussian 88(TM) system (copyright 1988, Gaussian, Inc.),
 the Gaussian 86(TM) system (copyright 1986, Carnegie Mellon
 University), and the Gaussian 82(TM) system (copyright 1983,
 Carnegie Mellon University). Gaussian is a federally registered
 trademark of Gaussian, Inc.
  
 This software contains proprietary and confidential information,
 including trade secrets, belonging to Gaussian, Inc.
  
 This software is provided under written license and may be
 used, copied, transmitted, or stored only in accord with that
 written license.
  
 The following legend is applicable only to US Government
 contracts under FAR:
  
                    RESTRICTED RIGHTS LEGEND
  
 Use, reproduction and disclosure by the US Government is
 subject to restrictions as set forth in subparagraphs (a)
 and (c) of the Commercial Computer Software - Restricted
 Rights clause in FAR 52.227-19.
  
 Gaussian, Inc.
 340 Quinnipiac St., Bldg. 40, Wallingford CT 06492
  
  
 ---------------------------------------------------------------
 Warning -- This program may not be used in any manner that
 competes with the business of Gaussian, Inc. or will provide
 assistance to any competitor of Gaussian, Inc.  The licensee
 of this program is prohibited from giving any competitor of
 Gaussian, Inc. access to this program.  By using this program,
 the user acknowledges that Gaussian, Inc. is engaged in the
 business of creating and licensing software in the field of
 computational chemistry and represents and warrants to the
 licensee that it is not a competitor of Gaussian, Inc. and that
 it will not use this program in any manner prohibited above.
 ---------------------------------------------------------------
  

 Cite this work as:
 Gaussian 09, Revision A.02,
 M. J. Frisch, G. W. Trucks, H. B. Schlegel, G. E. Scuseria, 
 M. A. Robb, J. R. Cheeseman, G. Scalmani, V. Barone, B. Mennucci, 
 G. A. Petersson, H. Nakatsuji, M. Caricato, X. Li, H. P. Hratchian, 
 A. F. Izmaylov, J. Bloino, G. Zheng, J. L. Sonnenberg, M. Hada, 
 M. Ehara, K. Toyota, R. Fukuda, J. Hasegawa, M. Ishida, T. Nakajima, 
 Y. Honda, O. Kitao, H. Nakai, T. Vreven, J. A. Montgomery, Jr., 
 J. E. Peralta, F. Ogliaro, M. Bearpark, J. J. Heyd, E. Brothers, 
 K. N. Kudin, V. N. Staroverov, R. Kobayashi, J. Normand, 
 K. Raghavachari, A. Rendell, J. C. Burant, S. S. Iyengar, J. Tomasi, 
 M. Cossi, N. Rega, J. M. Millam, M. Klene, J. E. Knox, J. B. Cross, 
 V. Bakken, C. Adamo, J. Jaramillo, R. Gomperts, R. E. Stratmann, 
 O. Yazyev, A. J. Austin, R. Cammi, C. Pomelli, J. W. Ochterski, 
 R. L. Martin, K. Morokuma, V. G. Zakrzewski, G. A. Voth, 
 P. Salvador, J. J. Dannenberg, S. Dapprich, A. D. Daniels, 
 O. Farkas, J. B. Foresman, J. V. Ortiz, J. Cioslowski, 
 and D. J. Fox, Gaussian, Inc., Wallingford CT, 2009.
 
 ******************************************
 Gaussian 09:  IA32W-G09RevA.02 11-Jun-2009
                17-Nov-2020 
 ******************************************
 %chk=C:\Users\sagad\Documents\rayGit\FQ\quimicaComputacional\clase8Pka\productos
 \hydroniumHF_mixed.chk
 %mem=1500MB
 %nprocshared=4
 Will use up to    4 processors via shared memory.
 ----------------------------------
 # opt freq hf/6-31+g(d,p) scrf=smd
 ----------------------------------
 1/14=-1,18=20,19=15,38=1/1,3;
 2/9=110,12=2,17=6,18=5,40=1/2;
 3/5=1,6=6,7=111,11=9,16=1,25=1,30=1,70=32201,71=1,72=1/1,2,3;
 4//1;
 5/5=2,38=5/2;
 6/7=2,8=2,9=2,10=2,28=1/1;
 7//1,2,3,16;
 1/14=-1,18=20,19=15/3(2);
 2/9=110/2;
 99//99;
 2/9=110/2;
 3/5=1,6=6,7=111,11=9,16=1,25=1,30=1,70=32205,71=1/1,2,3;
 4/5=5,16=3/1;
 5/5=2,38=5/2;
 7//1,2,3,16;
 1/14=-1,18=20,19=15/3(-5);
 2/9=110/2;
 6/7=2,8=2,9=2,10=2,19=2,28=1/1;
 99/9=1/99;
 ------------------
 Hydronium HF mixed
 ------------------
 Symbolic Z-matrix:
 Charge =  1 Multiplicity = 1
 O                     0.00063  -0.00064  -0.47228 
 H                    -0.17469   0.89019  -0.16251 
 H                    -0.6844   -0.59676  -0.16233 
 H                     0.85964  -0.29421  -0.16201 
 O                     2.43557  -0.83279   0.40719 
 O                    -0.49635   2.52455   0.4058 
 O                    -1.94091  -1.69019   0.40618 
 H                     3.07166  -0.12042   0.30958 
 H                     2.37367  -1.08201   1.33221 
 H                    -1.64544  -2.128     1.20782 
 H                    -2.74016  -1.1912    0.59008 
 H                     0.21551   3.10577   0.12824 
 H                    -1.32576   2.83482   0.03509 
 

 GradGradGradGradGradGradGradGradGradGradGradGradGradGradGradGradGradGrad
 Berny optimization.
 Initialization pass.
                           ----------------------------
                           !    Initial Parameters    !
                           ! (Angstroms and Degrees)  !
 --------------------------                            --------------------------
 ! Name  Definition              Value          Derivative Info.                !
 --------------------------------------------------------------------------------
 ! R1    R(1,2)                  0.9593         estimate D2E/DX2                !
 ! R2    R(1,3)                  0.9595         estimate D2E/DX2                !
 ! R3    R(1,4)                  0.9593         estimate D2E/DX2                !
 ! R4    R(2,6)                  1.76           estimate D2E/DX2                !
 ! R5    R(3,7)                  1.76           estimate D2E/DX2                !
 ! R6    R(4,5)                  1.76           estimate D2E/DX2                !
 ! R7    R(5,8)                  0.96           estimate D2E/DX2                !
 ! R8    R(5,9)                  0.96           estimate D2E/DX2                !
 ! R9    R(6,12)                 0.96           estimate D2E/DX2                !
 ! R10   R(6,13)                 0.96           estimate D2E/DX2                !
 ! R11   R(7,10)                 0.96           estimate D2E/DX2                !
 ! R12   R(7,11)                 0.96           estimate D2E/DX2                !
 ! A1    A(2,1,3)              110.0069         estimate D2E/DX2                !
 ! A2    A(2,1,4)              110.0831         estimate D2E/DX2                !
 ! A3    A(3,1,4)              110.1621         estimate D2E/DX2                !
 ! A4    A(4,5,8)              109.4712         estimate D2E/DX2                !
 ! A5    A(4,5,9)              109.4712         estimate D2E/DX2                !
 ! A6    A(8,5,9)              109.4712         estimate D2E/DX2                !
 ! A7    A(2,6,12)             109.4712         estimate D2E/DX2                !
 ! A8    A(2,6,13)             109.4712         estimate D2E/DX2                !
 ! A9    A(12,6,13)            109.4712         estimate D2E/DX2                !
 ! A10   A(3,7,10)             109.4712         estimate D2E/DX2                !
 ! A11   A(3,7,11)             109.4712         estimate D2E/DX2                !
 ! A12   A(10,7,11)            109.4712         estimate D2E/DX2                !
 ! A13   L(1,2,6,3,-1)         180.0            estimate D2E/DX2                !
 ! A14   L(1,3,7,2,-1)         180.0            estimate D2E/DX2                !
 ! A15   L(1,4,5,2,-1)         180.0            estimate D2E/DX2                !
 ! A16   L(1,2,6,3,-2)         180.0            estimate D2E/DX2                !
 ! A17   L(1,3,7,2,-2)         180.0            estimate D2E/DX2                !
 ! A18   L(1,4,5,2,-2)         180.0            estimate D2E/DX2                !
 ! D1    D(2,1,5,8)            -42.8087         estimate D2E/DX2                !
 ! D2    D(2,1,5,9)             77.1913         estimate D2E/DX2                !
 ! D3    D(3,1,5,8)           -164.296          estimate D2E/DX2                !
 ! D4    D(3,1,5,9)            -44.296          estimate D2E/DX2                !
 ! D5    D(3,1,6,12)           177.2275         estimate D2E/DX2                !
 ! D6    D(3,1,6,13)           -62.7725         estimate D2E/DX2                !
 ! D7    D(4,1,6,12)            55.6478         estimate D2E/DX2                !
 ! D8    D(4,1,6,13)           175.6478         estimate D2E/DX2                !
 ! D9    D(2,1,7,10)           -96.2257         estimate D2E/DX2                !
 ! D10   D(2,1,7,11)            23.7743         estimate D2E/DX2                !
 ! D11   D(4,1,7,10)            25.307          estimate D2E/DX2                !
 ! D12   D(4,1,7,11)           145.307          estimate D2E/DX2                !
 --------------------------------------------------------------------------------
 Trust Radius=3.00D-01 FncErr=1.00D-07 GrdErr=1.00D-07
 Number of steps in this run=  52 maximum allowed number of steps= 100.
 GradGradGradGradGradGradGradGradGradGradGradGradGradGradGradGradGradGrad

                          Input orientation:                          
 ---------------------------------------------------------------------
 Center     Atomic      Atomic             Coordinates (Angstroms)
 Number     Number       Type             X           Y           Z
 ---------------------------------------------------------------------
      1          8           0        0.000632   -0.000640   -0.472277
      2          1           0       -0.174692    0.890187   -0.162513
      3          1           0       -0.684402   -0.596762   -0.162330
      4          1           0        0.859645   -0.294211   -0.162014
      5          8           0        2.435571   -0.832790    0.407188
      6          8           0       -0.496352    2.524554    0.405800
      7          8           0       -1.940911   -1.690187    0.406184
      8          1           0        3.071657   -0.120423    0.309579
      9          1           0        2.373673   -1.082012    1.332205
     10          1           0       -1.645443   -2.128002    1.207818
     11          1           0       -2.740157   -1.191198    0.590079
     12          1           0        0.215512    3.105768    0.128242
     13          1           0       -1.325757    2.834821    0.035094
 ---------------------------------------------------------------------
                    Distance matrix (angstroms):
                    1          2          3          4          5
     1  O    0.000000
     2  H    0.959304   0.000000
     3  H    0.959531   1.571885   0.000000
     4  H    0.959349   1.572467   1.573410   0.000000
     5  O    2.719349   3.179101   3.180297   1.760000   0.000000
     6  O    2.719304   1.760000   3.178167   3.179084   4.457346
     7  O    2.719531   3.178250   1.760000   3.180363   4.459678
     8  H    3.171252   3.432635   3.815439   2.268392   0.960000
     9  H    3.171252   3.552170   3.438157   2.268392   0.960000
    10  H    3.171427   3.626345   2.268392   3.393331   4.355831
    11  H    3.171427   3.388239   2.268392   3.785340   5.191345
    12  H    3.171210   2.268391   3.821389   3.472610   4.529759
    13  H    3.171210   2.268392   3.496580   3.821737   5.266632
                    6          7          8          9         10
     6  O    0.000000
     7  O    4.455422   0.000000
     8  H    4.442505   5.253507   0.000000
     9  H    4.701339   4.454551   1.567673   0.000000
    10  H    4.859004   0.960000   5.204637   4.154860   0.000000
    11  H    4.344586   0.960000   5.916284   5.168551   1.567673
    12  H    0.960000   5.265795   4.312628   4.862581   5.658710
    13  H    0.960000   4.581682   5.305286   5.541647   5.109510
                   11         12         13
    11  H    0.000000
    12  H    5.235761   0.000000
    13  H    4.303180   1.567673   0.000000
 Stoichiometry    H9O4(1+)
 Framework group  C1[X(H9O4)]
 Deg. of freedom    33
 Full point group                 C1      NOp   1
 Largest Abelian subgroup         C1      NOp   1
 Largest concise Abelian subgroup C1      NOp   1
                         Standard orientation:                         
 ---------------------------------------------------------------------
 Center     Atomic      Atomic             Coordinates (Angstroms)
 Number     Number       Type             X           Y           Z
 ---------------------------------------------------------------------
      1          8           0        0.002495   -0.002408    0.694914
      2          1           0       -0.070022    0.887056    0.342977
      3          1           0        0.826682   -0.402259    0.409372
      4          1           0       -0.741218   -0.533683    0.403384
      5          8           0       -2.105616   -1.508347   -0.131451
      6          8           0       -0.203065    2.518923   -0.302708
      7          8           0        2.338431   -1.135678   -0.114376
      8          1           0       -2.912901   -0.993273   -0.063703
      9          1           0       -1.971021   -1.773765   -1.044159
     10          1           0        2.179900   -1.674268   -0.893086
     11          1           0        2.972215   -0.446291   -0.325715
     12          1           0       -1.048744    2.895615   -0.048678
     13          1           0        0.507150    3.060947    0.048581
 ---------------------------------------------------------------------
 Rotational constants (GHZ):      2.5661062      2.5285135      1.3559817
 Standard basis: 6-31+G(d,p) (6D, 7F)
 There are   121 symmetry adapted basis functions of A   symmetry.
 Integral buffers will be    262144 words long.
 Raffenetti 1 integral format.
 Two-electron integral symmetry is turned on.
   121 basis functions,   191 primitive gaussians,   121 cartesian basis functions
    20 alpha electrons       20 beta electrons
       nuclear repulsion energy       140.2411941450 Hartrees.
 NAtoms=   13 NActive=   13 NUniq=   13 SFac= 7.50D-01 NAtFMM=   80 NAOKFM=F Big=F
 ------------------------------------------------------------------------------
 Polarizable Continuum Model (PCM)
 =================================
 Model                : PCM.
 Atomic radii         : SMD-Coulomb.
 Polarization charges : Total charges.
 Charge compensation  : None.
 Solution method      : Matrix inversion.
 Cavity type          : VdW (van der Waals Surface) (Alpha=1.000).
 Cavity algorithm     : GePol (No added spheres)
                        Default sphere list used, NSphG=   13.
                        Lebedev-Laikov grids with approx.  5.0 points / Ang**2.
                        Smoothing algorithm: Karplus/York (Gamma=1.0000).
                        Polarization charges: spherical gaussians, with
                                              point-specific exponents (IZeta= 3).
                        Self-potential: point-specific (ISelfS= 7).
                        Self-field    : sphere-specific E.n sum rule (ISelfD= 2).
 1st derivatives      : Analytical E(r).r(x)/FMM algorithm (CHGder, D1EAlg=3).
                        Cavity 1st derivative terms included.
 Solvent              : Water, Eps=  78.355300 Eps(inf)=   1.777849
 ------------------------------------------------------------------------------
 Spheres list:
 ISph  on   Nord    Re0     Alpha      Xe            Ye            Ze
    1   O      1    1.520   1.000      0.002495     -0.002408      0.694914
    2   H      2    1.200   1.000     -0.070022      0.887056      0.342977
    3   H      3    1.200   1.000      0.826682     -0.402259      0.409372
    4   H      4    1.200   1.000     -0.741218     -0.533683      0.403384
    5   O      5    1.520   1.000     -2.105616     -1.508347     -0.131451
    6   O      6    1.520   1.000     -0.203065      2.518923     -0.302708
    7   O      7    1.520   1.000      2.338431     -1.135678     -0.114376
    8   H      8    1.200   1.000     -2.912901     -0.993273     -0.063703
    9   H      9    1.200   1.000     -1.971021     -1.773765     -1.044159
   10   H     10    1.200   1.000      2.179900     -1.674268     -0.893086
   11   H     11    1.200   1.000      2.972215     -0.446291     -0.325715
   12   H     12    1.200   1.000     -1.048744      2.895615     -0.048678
   13   H     13    1.200   1.000      0.507150      3.060947      0.048581
 ------------------------------------------------------------------------------
 ------------------------------------------------------------------------------
 Atomic radii for non-electrostatic terms: SMD-CDS.
 ------------------------------------------------------------------------------
 Nuclear repulsion after PCM non-electrostatic terms =      140.2491407796 Hartrees.
 One-electron integrals computed using PRISM.
 NBasis=   121 RedAO= T  NBF=   121
 NBsUse=   121 1.00D-06 NBFU=   121
 Harris functional with IExCor=  205 diagonalized for initial guess.
 ExpMin= 8.45D-02 ExpMax= 5.48D+03 ExpMxC= 8.25D+02 IAcc=2 IRadAn=         0 AccDes= 0.00D+00
 HarFok:  IExCor=  205 AccDes= 0.00D+00 IRadAn=         0 IDoV= 1
 ScaDFX=  1.000000  1.000000  1.000000  1.000000
 FoFCou: FMM=F IPFlag=           0 FMFlag=      100000 FMFlg1=           0
         NFxFlg=           0 DoJE=T BraDBF=F KetDBF=T FulRan=T
         Omega=  0.000000  0.000000  1.000000  0.000000  0.000000 ICntrl=     500 IOpCl=  0
         NMat0=    1 NMatS0=    1 NMatT0=    0 NMatD0=    1 NMtDS0=    0 NMtDT0=    0
         I1Cent=           4 NGrid=           0.
 Petite list used in FoFCou.
 Initial guess orbital symmetries:
       Occupied  (A) (A) (A) (A) (A) (A) (A) (A) (A) (A) (A) (A)
                 (A) (A) (A) (A) (A) (A) (A) (A)
       Virtual   (A) (A) (A) (A) (A) (A) (A) (A) (A) (A) (A) (A)
                 (A) (A) (A) (A) (A) (A) (A) (A) (A) (A) (A) (A)
                 (A) (A) (A) (A) (A) (A) (A) (A) (A) (A) (A) (A)
                 (A) (A) (A) (A) (A) (A) (A) (A) (A) (A) (A) (A)
                 (A) (A) (A) (A) (A) (A) (A) (A) (A) (A) (A) (A)
                 (A) (A) (A) (A) (A) (A) (A) (A) (A) (A) (A) (A)
                 (A) (A) (A) (A) (A) (A) (A) (A) (A) (A) (A) (A)
                 (A) (A) (A) (A) (A) (A) (A) (A) (A) (A) (A) (A)
                 (A) (A) (A) (A) (A)
 The electronic state of the initial guess is 1-A.
 Requested convergence on RMS density matrix=1.00D-08 within 128 cycles.
 Requested convergence on MAX density matrix=1.00D-06.
 Requested convergence on             energy=1.00D-06.
 No special actions if energy rises.
 Keep R1 ints in memory in canonical form, NReq=31199837.
 Error on total polarization charges =  0.03426
 SCF Done:  E(RHF) =  -304.626344707     A.U. after   10 cycles
             Convg  =    0.6509D-08             -V/T =  2.0040
 SMD-CDS (non-electrostatic) energy             (kcal/mol) =       4.99
 (included in total energy above)

 **********************************************************************

            Population analysis using the SCF density.

 **********************************************************************

 Orbital symmetries:
       Occupied  (A) (A) (A) (A) (A) (A) (A) (A) (A) (A) (A) (A)
                 (A) (A) (A) (A) (A) (A) (A) (A)
       Virtual   (A) (A) (A) (A) (A) (A) (A) (A) (A) (A) (A) (A)
                 (A) (A) (A) (A) (A) (A) (A) (A) (A) (A) (A) (A)
                 (A) (A) (A) (A) (A) (A) (A) (A) (A) (A) (A) (A)
                 (A) (A) (A) (A) (A) (A) (A) (A) (A) (A) (A) (A)
                 (A) (A) (A) (A) (A) (A) (A) (A) (A) (A) (A) (A)
                 (A) (A) (A) (A) (A) (A) (A) (A) (A) (A) (A) (A)
                 (A) (A) (A) (A) (A) (A) (A) (A) (A) (A) (A) (A)
                 (A) (A) (A) (A) (A) (A) (A) (A) (A) (A) (A) (A)
                 (A) (A) (A) (A) (A)
 The electronic state is 1-A.
 Alpha  occ. eigenvalues --  -20.67453 -20.59468 -20.59459 -20.59453  -1.49279
 Alpha  occ. eigenvalues --   -1.36769  -1.36759  -1.36608  -0.82784  -0.82748
 Alpha  occ. eigenvalues --   -0.73790  -0.73779  -0.73744  -0.64910  -0.59995
 Alpha  occ. eigenvalues --   -0.59635  -0.59556  -0.53272  -0.52790  -0.52763
 Alpha virt. eigenvalues --    0.12406   0.15878   0.16130   0.19725   0.20212
 Alpha virt. eigenvalues --    0.21094   0.22597   0.23662   0.24788   0.28344
 Alpha virt. eigenvalues --    0.30174   0.30217   0.30863   0.34035   0.34771
 Alpha virt. eigenvalues --    0.37246   0.37934   0.38010   0.40776   0.43871
 Alpha virt. eigenvalues --    0.44878   0.45618   0.48730   0.50433   0.51001
 Alpha virt. eigenvalues --    1.19559   1.19750   1.21828   1.23668   1.24247
 Alpha virt. eigenvalues --    1.28185   1.28625   1.29103   1.30420   1.33158
 Alpha virt. eigenvalues --    1.33584   1.34536   1.34963   1.38653   1.38912
 Alpha virt. eigenvalues --    1.40303   1.40924   1.41385   1.47132   1.47742
 Alpha virt. eigenvalues --    1.48196   1.52878   1.65615   1.66489   1.68573
 Alpha virt. eigenvalues --    1.69321   1.71887   1.76790   1.78523   1.79150
 Alpha virt. eigenvalues --    1.82615   1.83417   1.86258   1.97957   2.07523
 Alpha virt. eigenvalues --    2.07931   2.36756   2.52285   2.52602   2.53544
 Alpha virt. eigenvalues --    2.53844   2.53939   2.55710   2.67892   2.68844
 Alpha virt. eigenvalues --    2.71772   2.87181   2.87369   2.88086   2.94429
 Alpha virt. eigenvalues --    2.95507   2.96742   2.97143   2.97443   2.99225
 Alpha virt. eigenvalues --    2.99561   3.00938   3.12710   3.38102   3.38254
 Alpha virt. eigenvalues --    3.38916   3.42252   3.42672   3.70111   3.72326
 Alpha virt. eigenvalues --    3.72759   3.86409   3.89636   3.89852   3.90551
 Alpha virt. eigenvalues --    4.03172   4.03185   4.47262   4.53974   4.54879
 Alpha virt. eigenvalues --    4.88989
          Condensed to atoms (all electrons):
              1          2          3          4          5          6
     1  O    7.952584   0.265830   0.266381   0.266369  -0.022740  -0.029532
     2  H    0.265830   0.182434  -0.007132  -0.007198   0.000066   0.020112
     3  H    0.266381  -0.007132   0.183612  -0.006650   0.000427   0.001044
     4  H    0.266369  -0.007198  -0.006650   0.183154   0.016365   0.001018
     5  O   -0.022740   0.000066   0.000427   0.016365   8.284381  -0.000179
     6  O   -0.029532   0.020112   0.001044   0.001018  -0.000179   8.286380
     7  O   -0.023301   0.000097   0.016596   0.000336  -0.000250  -0.000017
     8  H    0.000410   0.000011   0.000017  -0.001506   0.298658   0.000033
     9  H    0.000472   0.000008  -0.000019  -0.001604   0.299353  -0.000009
    10  H    0.000413   0.000012  -0.001577  -0.000014   0.000075  -0.000014
    11  H    0.000414   0.000007  -0.001515   0.000017   0.000001   0.000047
    12  H    0.000905  -0.001734   0.000004  -0.000043   0.000010   0.298240
    13  H    0.000946  -0.001774  -0.000040   0.000005  -0.000009   0.298123
              7          8          9         10         11         12
     1  O   -0.023301   0.000410   0.000472   0.000413   0.000414   0.000905
     2  H    0.000097   0.000011   0.000008   0.000012   0.000007  -0.001734
     3  H    0.016596   0.000017  -0.000019  -0.001577  -0.001515   0.000004
     4  H    0.000336  -0.001506  -0.001604  -0.000014   0.000017  -0.000043
     5  O   -0.000250   0.298658   0.299353   0.000075   0.000001   0.000010
     6  O   -0.000017   0.000033  -0.000009  -0.000014   0.000047   0.298240
     7  O    8.283722   0.000000   0.000043   0.299574   0.299050  -0.000007
     8  H    0.000000   0.275543  -0.016747   0.000000   0.000000  -0.000001
     9  H    0.000043  -0.016747   0.275459  -0.000006   0.000000   0.000000
    10  H    0.299574   0.000000  -0.000006   0.275272  -0.016799   0.000000
    11  H    0.299050   0.000000   0.000000  -0.016799   0.275322   0.000000
    12  H   -0.000007  -0.000001   0.000000   0.000000   0.000000   0.276446
    13  H   -0.000009   0.000000   0.000000   0.000000  -0.000001  -0.016415
             13
     1  O    0.000946
     2  H   -0.001774
     3  H   -0.000040
     4  H    0.000005
     5  O   -0.000009
     6  O    0.298123
     7  O   -0.000009
     8  H    0.000000
     9  H    0.000000
    10  H    0.000000
    11  H   -0.000001
    12  H   -0.016415
    13  H    0.276400
 Mulliken atomic charges:
              1
     1  O   -0.679152
     2  H    0.549261
     3  H    0.548852
     4  H    0.549752
     5  O   -0.876156
     6  O   -0.875245
     7  O   -0.875833
     8  H    0.443581
     9  H    0.443050
    10  H    0.443063
    11  H    0.443457
    12  H    0.442595
    13  H    0.442775
 Sum of Mulliken atomic charges =   1.00000
 Mulliken charges with hydrogens summed into heavy atoms:
              1
     1  O    0.968713
     5  O    0.010475
     6  O    0.010125
     7  O    0.010687
 Sum of Mulliken charges with hydrogens summed into heavy atoms =   1.00000
 Electronic spatial extent (au):  <R**2>=            817.9484
 Charge=              1.0000 electrons
 Dipole moment (field-independent basis, Debye):
    X=             -0.7447    Y=              2.9549    Z=             -2.3570  Tot=              3.8525
 Quadrupole moment (field-independent basis, Debye-Ang):
   XX=             -4.4855   YY=            -10.7363   ZZ=            -24.4613
   XY=             -0.0682   XZ=             -1.8152   YZ=             10.8342
 Traceless Quadrupole moment (field-independent basis, Debye-Ang):
   XX=              8.7422   YY=              2.4914   ZZ=            -11.2336
   XY=             -0.0682   XZ=             -1.8152   YZ=             10.8342
 Octapole moment (field-independent basis, Debye-Ang**2):
  XXX=             -9.6632  YYY=             50.1679  ZZZ=             -5.5857  XYY=             -0.4558
  XXY=              7.2456  XXZ=            -20.1855  XZZ=             -0.5213  YZZ=             -9.7798
  YYZ=             -2.3080  XYZ=              0.3260
 Hexadecapole moment (field-independent basis, Debye-Ang**3):
 XXXX=           -233.2416 YYYY=           -253.3062 ZZZZ=            -45.0817 XXXY=             19.4188
 XXXZ=            -21.3438 YYYX=            -22.7273 YYYZ=             56.8789 ZZZX=              0.4750
 ZZZY=             15.5585 XXYY=           -123.0327 XXZZ=            -62.5284 YYZZ=            -74.1716
 XXYZ=             33.0253 YYXZ=              0.1842 ZZXY=              2.5980
 N-N= 1.402491407796D+02 E-N=-9.936180662678D+02  KE= 3.034173829578D+02
 D1PCM: PCM CHGder 1st derivatives, ID1Alg=3 FixD1E=F DoIter=F DoCFld=F I1PDM=0.
 Calling FoFJK, ICntrl=      2127 FMM=F ISym2X=0 I1Cent= 0 IOpClX= 0 NMat=1 NMatS=1 NMatT=0.
 ***** Axes restored to original set *****
 -------------------------------------------------------------------
 Center     Atomic                   Forces (Hartrees/Bohr)
 Number     Number              X              Y              Z
 -------------------------------------------------------------------
      1        8          -0.000414765    0.000010174   -0.012992262
      2        1          -0.003263612    0.016571303    0.005048149
      3        1          -0.012453896   -0.011190461    0.004964156
      4        1           0.016293072   -0.005617862    0.005155347
      5        8           0.000911989    0.004120335    0.004508489
      6        8          -0.000310396    0.003084921   -0.005303855
      7        8          -0.001250441    0.002175563    0.005352329
      8        1          -0.007980907   -0.010919183    0.007155150
      9        1           0.005280289    0.007545049   -0.012285572
     10        1          -0.009129059    0.008490848   -0.008868694
     11        1           0.011697434   -0.009424094    0.002816733
     12        1          -0.014380228   -0.005029676    0.001275259
     13        1           0.015000520    0.000183082    0.003174770
 -------------------------------------------------------------------
 Cartesian Forces:  Max     0.016571303 RMS     0.008204878

 GradGradGradGradGradGradGradGradGradGradGradGradGradGradGradGradGradGrad
 Berny optimization.
 Internal  Forces:  Max     0.015939013 RMS     0.007154385
 Search for a local minimum.
 Step number   1 out of a maximum of   52
 All quantities printed in internal units (Hartrees-Bohrs-Radians)
 Mixed Optimization -- RFO/linear search
 Second derivative matrix not updated -- first step.
     Eigenvalues ---    0.00230   0.00230   0.00230   0.00230   0.00230
     Eigenvalues ---    0.00230   0.00230   0.00230   0.00230   0.02467
     Eigenvalues ---    0.05160   0.05196   0.05225   0.06593   0.06593
     Eigenvalues ---    0.06593   0.12100   0.12117   0.16000   0.16000
     Eigenvalues ---    0.16000   0.16000   0.16000   0.16000   0.55473
     Eigenvalues ---    0.55473   0.55473   0.55473   0.55473   0.55473
     Eigenvalues ---    0.55574   0.55614   0.556231000.000001000.00000
     Eigenvalues --- 1000.000001000.000001000.000001000.000001000.00000
     Eigenvalues --- 1000.000001000.00000
 RFO step:  Lambda=-5.62632986D-03 EMin= 2.30000000D-03
 Linear search not attempted -- first point.
 Iteration  1 RMS(Cart)=  0.06671664 RMS(Int)=  0.00229690
 Iteration  2 RMS(Cart)=  0.00492876 RMS(Int)=  0.00011479
 Iteration  3 RMS(Cart)=  0.00001091 RMS(Int)=  0.00011452
 Iteration  4 RMS(Cart)=  0.00000000 RMS(Int)=  0.00011452
 Variable       Old X    -DE/DX   Delta X   Delta X   Delta X     New X
                                 (Linear)    (Quad)   (Total)
    R1        1.81282   0.01563   0.00000   0.02783   0.02783   1.84065
    R2        1.81325   0.01552   0.00000   0.02765   0.02765   1.84090
    R3        1.81291   0.01594   0.00000   0.02837   0.02837   1.84128
    R4        3.32592  -0.00198   0.00000  -0.02765  -0.02765   3.29826
    R5        3.32592  -0.00193   0.00000  -0.02698  -0.02698   3.29894
    R6        3.32592  -0.00203   0.00000  -0.02843  -0.02843   3.29749
    R7        1.81414  -0.01412   0.00000  -0.02521  -0.02521   1.78893
    R8        1.81414  -0.01414   0.00000  -0.02524  -0.02524   1.78890
    R9        1.81414  -0.01407   0.00000  -0.02510  -0.02510   1.78903
   R10        1.81414  -0.01413   0.00000  -0.02521  -0.02521   1.78892
   R11        1.81414  -0.01408   0.00000  -0.02513  -0.02513   1.78901
   R12        1.81414  -0.01409   0.00000  -0.02514  -0.02514   1.78900
    A1        1.91998   0.00025   0.00000   0.00838   0.00859   1.92858
    A2        1.92131   0.00017   0.00000   0.00779   0.00772   1.92904
    A3        1.92269   0.00024   0.00000   0.00738   0.00726   1.92995
    A4        1.91063   0.00315   0.00000   0.00784   0.00768   1.91831
    A5        1.91063   0.00304   0.00000   0.00718   0.00702   1.91765
    A6        1.91063  -0.00607   0.00000  -0.05905  -0.05936   1.85127
    A7        1.91063   0.00287   0.00000   0.00587   0.00583   1.91646
    A8        1.91063   0.00309   0.00000   0.00716   0.00713   1.91776
    A9        1.91063  -0.00600   0.00000  -0.05916  -0.05924   1.85139
   A10        1.91063   0.00291   0.00000   0.00589   0.00582   1.91645
   A11        1.91063   0.00298   0.00000   0.00633   0.00626   1.91689
   A12        1.91063  -0.00601   0.00000  -0.05961  -0.05976   1.85087
   A13        3.14159  -0.00038   0.00000   0.00421   0.00417   3.14576
   A14        3.14159   0.00084   0.00000   0.04868   0.04863   3.19023
   A15        3.14159   0.00115   0.00000   0.07999   0.08000   3.22159
   A16        3.14159  -0.00045   0.00000  -0.00893  -0.00897   3.13263
   A17        3.14159  -0.00048   0.00000  -0.04380  -0.04377   3.09783
   A18        3.14159   0.00017   0.00000   0.02145   0.02151   3.16311
    D1       -0.74715   0.00205   0.00000   0.03465   0.03434  -0.71282
    D2        1.34724  -0.00134   0.00000  -0.01119  -0.01124   1.33600
    D3       -2.86751   0.00120   0.00000  -0.00640  -0.00635  -2.87385
    D4       -0.77311  -0.00219   0.00000  -0.05224  -0.05193  -0.82504
    D5        3.09320   0.00204   0.00000   0.04503   0.04511   3.13831
    D6       -1.09559  -0.00157   0.00000  -0.01901  -0.01886  -1.11445
    D7        0.97124   0.00163   0.00000   0.02625   0.02610   0.99733
    D8        3.06563  -0.00198   0.00000  -0.03779  -0.03787   3.02776
    D9       -1.67945   0.00144   0.00000   0.01326   0.01313  -1.66632
   D10        0.41494  -0.00214   0.00000  -0.04057  -0.04057   0.37437
   D11        0.44169   0.00224   0.00000   0.05220   0.05220   0.49389
   D12        2.53608  -0.00134   0.00000  -0.00163  -0.00151   2.53458
         Item               Value     Threshold  Converged?
 Maximum Force            0.015939     0.000450     NO 
 RMS     Force            0.007154     0.000300     NO 
 Maximum Displacement     0.166595     0.001800     NO 
 RMS     Displacement     0.067300     0.001200     NO 
 Predicted change in Energy=-2.931929D-03
 GradGradGradGradGradGradGradGradGradGradGradGradGradGradGradGradGradGrad

                          Input orientation:                          
 ---------------------------------------------------------------------
 Center     Atomic      Atomic             Coordinates (Angstroms)
 Number     Number       Type             X           Y           Z
 ---------------------------------------------------------------------
      1          8           0       -0.000867    0.031644   -0.420417
      2          1           0       -0.188624    0.942537   -0.131015
      3          1           0       -0.694409   -0.575969   -0.106094
      4          1           0        0.874692   -0.254204   -0.102505
      5          8           0        2.427248   -0.881889    0.387849
      6          8           0       -0.514369    2.575631    0.391666
      7          8           0       -1.916049   -1.722276    0.384946
      8          1           0        3.087651   -0.208581    0.306037
      9          1           0        2.404486   -1.116591    1.304656
     10          1           0       -1.656042   -2.141787    1.192817
     11          1           0       -2.724875   -1.268233    0.574368
     12          1           0        0.168320    3.153770    0.081890
     13          1           0       -1.318186    2.885051   -0.001139
 ---------------------------------------------------------------------
                    Distance matrix (angstroms):
                    1          2          3          4          5
     1  O    0.000000
     2  H    0.974029   0.000000
     3  H    0.974162   1.600718   0.000000
     4  H    0.974362   1.601138   1.601756   0.000000
     5  O    2.717274   3.231182   3.175266   1.744955   0.000000
     6  O    2.719382   1.745366   3.195741   3.190872   4.539557
     7  O    2.718964   3.217365   1.745722   3.190780   4.423855
     8  H    3.181884   3.500009   3.822146   2.250816   0.946662
     9  H    3.174908   3.609069   3.447555   2.250351   0.946646
    10  H    3.172685   3.663181   2.250265   3.412541   4.348399
    11  H    3.177970   3.437678   2.250566   3.800433   5.169954
    12  H    3.166798   2.249954   3.832831   3.485291   4.634967
    13  H    3.170656   2.250809   3.518348   3.830654   5.326296
                    6          7          8          9         10
     6  O    0.000000
     7  O    4.520704   0.000000
     8  H    4.553429   5.228242   0.000000
     9  H    4.794347   4.458671   1.512758   0.000000
    10  H    4.919278   0.946704   5.198680   4.189441   0.000000
    11  H    4.437906   0.946697   5.914416   5.183305   1.512607
    12  H    0.946715   5.311522   4.458491   4.973085   5.710112
    13  H    0.946657   4.661970   5.392246   5.619299   5.177720
                   11         12         13
    11  H    0.000000
    12  H    5.307280   0.000000
    13  H    4.422640   1.512880   0.000000
 Stoichiometry    H9O4(1+)
 Framework group  C1[X(H9O4)]
 Deg. of freedom    33
 Full point group                 C1      NOp   1
 Largest Abelian subgroup         C1      NOp   1
 Largest concise Abelian subgroup C1      NOp   1
                         Standard orientation:                         
 ---------------------------------------------------------------------
 Center     Atomic      Atomic             Coordinates (Angstroms)
 Number     Number       Type             X           Y           Z
 ---------------------------------------------------------------------
      1          8           0       -0.026929   -0.004970    0.641096
      2          1           0       -0.939790   -0.068272    0.307315
      3          1           0        0.384772    0.829391    0.352416
      4          1           0        0.499842   -0.768194    0.342126
      5          8           0        1.546596   -2.089450   -0.108932
      6          8           0       -2.573290   -0.192204   -0.294868
      7          8           0        1.180085    2.319154   -0.089882
      8          1           0        1.073844   -2.907897   -0.055827
      9          1           0        1.809817   -1.997097   -1.013544
     10          1           0        1.692284    2.188411   -0.875253
     11          1           0        0.533808    2.976524   -0.305348
     12          1           0       -2.959369   -1.008113   -0.009377
     13          1           0       -3.106897    0.495008    0.078176
 ---------------------------------------------------------------------
 Rotational constants (GHZ):      2.5817524      2.4719965      1.3323430
 Standard basis: 6-31+G(d,p) (6D, 7F)
 There are   121 symmetry adapted basis functions of A   symmetry.
 Integral buffers will be    262144 words long.
 Raffenetti 1 integral format.
 Two-electron integral symmetry is turned on.
   121 basis functions,   191 primitive gaussians,   121 cartesian basis functions
    20 alpha electrons       20 beta electrons
       nuclear repulsion energy       140.1218716539 Hartrees.
 NAtoms=   13 NActive=   13 NUniq=   13 SFac= 7.50D-01 NAtFMM=   80 NAOKFM=F Big=F
 ------------------------------------------------------------------------------
 Polarizable Continuum Model (PCM)
 =================================
 Model                : PCM.
 Atomic radii         : SMD-Coulomb.
 Polarization charges : Total charges.
 Charge compensation  : None.
 Solution method      : Matrix inversion.
 Cavity type          : VdW (van der Waals Surface) (Alpha=1.000).
 Cavity algorithm     : GePol (No added spheres)
                        Default sphere list used, NSphG=   13.
                        Lebedev-Laikov grids with approx.  5.0 points / Ang**2.
                        Smoothing algorithm: Karplus/York (Gamma=1.0000).
                        Polarization charges: spherical gaussians, with
                                              point-specific exponents (IZeta= 3).
                        Self-potential: point-specific (ISelfS= 7).
                        Self-field    : sphere-specific E.n sum rule (ISelfD= 2).
 1st derivatives      : Analytical E(r).r(x)/FMM algorithm (CHGder, D1EAlg=3).
                        Cavity 1st derivative terms included.
 Solvent              : Water, Eps=  78.355300 Eps(inf)=   1.777849
 ------------------------------------------------------------------------------
 Spheres list:
 ISph  on   Nord    Re0     Alpha      Xe            Ye            Ze
    1   O      1    1.520   1.000     -0.026929     -0.004970      0.641096
    2   H      2    1.200   1.000     -0.939790     -0.068272      0.307315
    3   H      3    1.200   1.000      0.384772      0.829391      0.352416
    4   H      4    1.200   1.000      0.499842     -0.768194      0.342126
    5   O      5    1.520   1.000      1.546596     -2.089450     -0.108932
    6   O      6    1.520   1.000     -2.573290     -0.192204     -0.294868
    7   O      7    1.520   1.000      1.180085      2.319154     -0.089882
    8   H      8    1.200   1.000      1.073844     -2.907897     -0.055827
    9   H      9    1.200   1.000      1.809817     -1.997097     -1.013544
   10   H     10    1.200   1.000      1.692284      2.188411     -0.875253
   11   H     11    1.200   1.000      0.533808      2.976524     -0.305348
   12   H     12    1.200   1.000     -2.959369     -1.008113     -0.009377
   13   H     13    1.200   1.000     -3.106897      0.495008      0.078176
 ------------------------------------------------------------------------------
 ------------------------------------------------------------------------------
 Atomic radii for non-electrostatic terms: SMD-CDS.
 ------------------------------------------------------------------------------
 Nuclear repulsion after PCM non-electrostatic terms =      140.1297191672 Hartrees.
 One-electron integrals computed using PRISM.
 NBasis=   121 RedAO= T  NBF=   121
 NBsUse=   121 1.00D-06 NBFU=   121
 Initial guess read from the read-write file.
 B after Tr=     0.000000    0.000000    0.000000
         Rot=    1.000000    0.000000    0.000000    0.000000 Ang=   0.00 deg.
 Initial guess orbital symmetries:
       Occupied  (A) (A) (A) (A) (A) (A) (A) (A) (A) (A) (A) (A)
                 (A) (A) (A) (A) (A) (A) (A) (A)
       Virtual   (A) (A) (A) (A) (A) (A) (A) (A) (A) (A) (A) (A)
                 (A) (A) (A) (A) (A) (A) (A) (A) (A) (A) (A) (A)
                 (A) (A) (A) (A) (A) (A) (A) (A) (A) (A) (A) (A)
                 (A) (A) (A) (A) (A) (A) (A) (A) (A) (A) (A) (A)
                 (A) (A) (A) (A) (A) (A) (A) (A) (A) (A) (A) (A)
                 (A) (A) (A) (A) (A) (A) (A) (A) (A) (A) (A) (A)
                 (A) (A) (A) (A) (A) (A) (A) (A) (A) (A) (A) (A)
                 (A) (A) (A) (A) (A) (A) (A) (A) (A) (A) (A) (A)
                 (A) (A) (A) (A) (A)
 Harris functional with IExCor=  205 diagonalized for initial guess.
 ExpMin= 8.45D-02 ExpMax= 5.48D+03 ExpMxC= 8.25D+02 IAcc=2 IRadAn=         0 AccDes= 0.00D+00
 HarFok:  IExCor=  205 AccDes= 0.00D+00 IRadAn=         0 IDoV= 1
 ScaDFX=  1.000000  1.000000  1.000000  1.000000
 FoFCou: FMM=F IPFlag=           0 FMFlag=      100000 FMFlg1=           0
         NFxFlg=           0 DoJE=T BraDBF=F KetDBF=T FulRan=T
         Omega=  0.000000  0.000000  1.000000  0.000000  0.000000 ICntrl=     500 IOpCl=  0
         NMat0=    1 NMatS0=    1 NMatT0=    0 NMatD0=    1 NMtDS0=    0 NMtDT0=    0
         I1Cent=           4 NGrid=           0.
 Petite list used in FoFCou.
 Requested convergence on RMS density matrix=1.00D-08 within 128 cycles.
 Requested convergence on MAX density matrix=1.00D-06.
 Requested convergence on             energy=1.00D-06.
 No special actions if energy rises.
 Keep R1 ints in memory in canonical form, NReq=31176019.
 Error on total polarization charges =  0.03373
 SCF Done:  E(RHF) =  -304.629117860     A.U. after   12 cycles
             Convg  =    0.7426D-08             -V/T =  2.0037
 SMD-CDS (non-electrostatic) energy             (kcal/mol) =       4.92
 (included in total energy above)
 D1PCM: PCM CHGder 1st derivatives, ID1Alg=3 FixD1E=F DoIter=F DoCFld=F I1PDM=0.
 Calling FoFJK, ICntrl=      2127 FMM=F ISym2X=0 I1Cent= 0 IOpClX= 0 NMat=1 NMatS=1 NMatT=0.
 ***** Axes restored to original set *****
 -------------------------------------------------------------------
 Center     Atomic                   Forces (Hartrees/Bohr)
 Number     Number              X              Y              Z
 -------------------------------------------------------------------
      1        8          -0.000246815    0.001300303   -0.000407820
      2        1          -0.000457840    0.002981238    0.001077120
      3        1          -0.001855440   -0.002980527    0.000409825
      4        1           0.002441780   -0.002248851    0.000526023
      5        8          -0.003836808    0.000646479   -0.002239856
      6        8           0.000692786   -0.004531105    0.000367769
      7        8           0.003173343    0.002268210   -0.002512964
      8        1           0.001861407    0.001217245   -0.000205081
      9        1           0.000325155   -0.000731093    0.002051129
     10        1           0.000307937   -0.001225358    0.001870873
     11        1          -0.002027511    0.000744122    0.000290831
     12        1           0.001414651    0.001524517   -0.000585468
     13        1          -0.001792646    0.001034820   -0.000642382
 -------------------------------------------------------------------
 Cartesian Forces:  Max     0.004531105 RMS     0.001810545

 GradGradGradGradGradGradGradGradGradGradGradGradGradGradGradGradGradGrad
 Berny optimization.
 Using GEDIIS/GDIIS optimizer.
 Internal  Forces:  Max     0.002289478 RMS     0.001086708
 Search for a local minimum.
 Step number   2 out of a maximum of   52
 All quantities printed in internal units (Hartrees-Bohrs-Radians)
 Mixed Optimization -- RFO/linear search
 Update second derivatives using D2CorX and points    1    2
 DE= -2.77D-03 DEPred=-2.93D-03 R= 9.46D-01
 SS=  1.41D+00  RLast= 2.09D-01 DXNew= 5.0454D-01 6.2813D-01
 Trust test= 9.46D-01 RLast= 2.09D-01 DXMaxT set to 5.05D-01
 Use linear search instead of GDIIS.
     Eigenvalues ---    0.00229   0.00230   0.00230   0.00230   0.00230
     Eigenvalues ---    0.00230   0.00230   0.00230   0.00241   0.02303
     Eigenvalues ---    0.05264   0.05310   0.05430   0.06372   0.06593
     Eigenvalues ---    0.06594   0.12315   0.12517   0.15540   0.16000
     Eigenvalues ---    0.16000   0.16000   0.16000   0.16005   0.53354
     Eigenvalues ---    0.55473   0.55473   0.55473   0.55473   0.55473
     Eigenvalues ---    0.55587   0.55618   0.614741000.000001000.00000
     Eigenvalues --- 1000.000001000.000001000.000001000.000001000.00000
     Eigenvalues --- 1000.000001000.00000
 RFO step:  Lambda=-6.81816526D-04 EMin= 2.28856798D-03
 Quartic linear search produced a step of -0.02422.
 Iteration  1 RMS(Cart)=  0.21380657 RMS(Int)=  0.01641360
 Iteration  2 RMS(Cart)=  0.04638000 RMS(Int)=  0.00092152
 Iteration  3 RMS(Cart)=  0.00117858 RMS(Int)=  0.00068807
 Iteration  4 RMS(Cart)=  0.00000176 RMS(Int)=  0.00068807
 Iteration  5 RMS(Cart)=  0.00000000 RMS(Int)=  0.00068807
 Variable       Old X    -DE/DX   Delta X   Delta X   Delta X     New X
                                 (Linear)    (Quad)   (Total)
    R1        1.84065   0.00103  -0.00067   0.00642   0.00576   1.84641
    R2        1.84090   0.00105  -0.00067   0.00642   0.00575   1.84665
    R3        1.84128   0.00109  -0.00069   0.00661   0.00593   1.84721
    R4        3.29826  -0.00217   0.00067  -0.03647  -0.03580   3.26246
    R5        3.29894  -0.00229   0.00065  -0.03813  -0.03748   3.26146
    R6        3.29749  -0.00198   0.00069  -0.03387  -0.03319   3.26430
    R7        1.78893   0.00219   0.00061  -0.00033   0.00028   1.78921
    R8        1.78890   0.00217   0.00061  -0.00037   0.00024   1.78915
    R9        1.78903   0.00214   0.00061  -0.00039   0.00021   1.78925
   R10        1.78892   0.00214   0.00061  -0.00042   0.00019   1.78911
   R11        1.78901   0.00223   0.00061  -0.00025   0.00036   1.78938
   R12        1.78900   0.00214   0.00061  -0.00040   0.00021   1.78921
    A1        1.92858   0.00016  -0.00021   0.00495   0.00594   1.93452
    A2        1.92904   0.00029  -0.00019   0.00582   0.00804   1.93707
    A3        1.92995  -0.00021  -0.00018   0.00207   0.00134   1.93130
    A4        1.91831   0.00068  -0.00019   0.00719   0.00678   1.92509
    A5        1.91765   0.00063  -0.00017   0.00682   0.00644   1.92410
    A6        1.85127  -0.00022   0.00144  -0.00760  -0.00665   1.84462
    A7        1.91646   0.00037  -0.00014   0.00406   0.00396   1.92042
    A8        1.91776   0.00060  -0.00017   0.00564   0.00551   1.92327
    A9        1.85139  -0.00026   0.00143  -0.00973  -0.00821   1.84318
   A10        1.91645   0.00062  -0.00014   0.00631   0.00631   1.92276
   A11        1.91689   0.00047  -0.00015   0.00549   0.00550   1.92239
   A12        1.85087  -0.00014   0.00145  -0.00756  -0.00578   1.84510
   A13        3.14576  -0.00006  -0.00010  -0.02677  -0.02728   3.11848
   A14        3.19023  -0.00090  -0.00118  -0.24554  -0.24603   2.94420
   A15        3.22159  -0.00086  -0.00194  -0.22116  -0.22307   2.99853
   A16        3.13263   0.00013   0.00022   0.03469   0.03447   3.16710
   A17        3.09783  -0.00003   0.00106  -0.04848  -0.04807   3.04976
   A18        3.16311   0.00017  -0.00052   0.07675   0.07634   3.23944
    D1       -0.71282  -0.00017  -0.00083   0.00202   0.00075  -0.71207
    D2        1.33600   0.00020   0.00027  -0.04387  -0.04364   1.29236
    D3       -2.87385  -0.00028   0.00015   0.01463   0.01483  -2.85903
    D4       -0.82504   0.00009   0.00126  -0.03125  -0.02956  -0.85460
    D5        3.13831  -0.00007  -0.00109   0.01994   0.01984  -3.12503
    D6       -1.11445   0.00018   0.00046   0.01334   0.01473  -1.09972
    D7        0.99733  -0.00012  -0.00063   0.00811   0.00655   1.00389
    D8        3.02776   0.00013   0.00092   0.00151   0.00143   3.02919
    D9       -1.66632  -0.00017  -0.00032   0.05728   0.05837  -1.60795
   D10        0.37437   0.00016   0.00098   0.01583   0.01794   0.39231
   D11        0.49389  -0.00002  -0.00126   0.03431   0.03191   0.52580
   D12        2.53458   0.00032   0.00004  -0.00715  -0.00852   2.52606
         Item               Value     Threshold  Converged?
 Maximum Force            0.002289     0.000450     NO 
 RMS     Force            0.001087     0.000300     NO 
 Maximum Displacement     0.627815     0.001800     NO 
 RMS     Displacement     0.249794     0.001200     NO 
 Predicted change in Energy=-3.867516D-04
 GradGradGradGradGradGradGradGradGradGradGradGradGradGradGradGradGradGrad

                          Input orientation:                          
 ---------------------------------------------------------------------
 Center     Atomic      Atomic             Coordinates (Angstroms)
 Number     Number       Type             X           Y           Z
 ---------------------------------------------------------------------
      1          8           0        0.048642   -0.124734   -0.456517
      2          1           0       -0.135997    0.774263   -0.121267
      3          1           0       -0.647798   -0.750213   -0.176021
      4          1           0        0.928317   -0.433953   -0.163156
      5          8           0        2.545760   -0.720178    0.371484
      6          8           0       -0.508554    2.354121    0.466759
      7          8           0       -2.068857   -1.560845    0.373667
      8          1           0        3.070368    0.060602    0.263682
      9          1           0        2.555532   -0.909128    1.299162
     10          1           0       -1.908963   -1.966026    1.214426
     11          1           0       -2.765332   -0.936007    0.518402
     12          1           0        0.154584    2.969170    0.186672
     13          1           0       -1.318729    2.662032    0.085764
 ---------------------------------------------------------------------
                    Distance matrix (angstroms):
                    1          2          3          4          5
     1  O    0.000000
     2  H    0.977077   0.000000
     3  H    0.977205   1.609025   0.000000
     4  H    0.977499   1.610684   1.607583   0.000000
     5  O    2.697358   3.109337   3.240289   1.727393   0.000000
     6  O    2.703263   1.726420   3.173239   3.199179   4.334654
     7  O    2.689875   3.071423   1.725889   3.246710   4.690567
     8  H    3.111891   3.307306   3.830864   2.239455   0.946812
     9  H    3.159459   3.477894   3.530260   2.238749   0.946776
    10  H    3.164589   3.526566   2.236534   3.506443   4.701835
    11  H    3.086597   3.201188   2.236223   3.789410   5.317506
    12  H    3.161828   2.235370   3.822194   3.507461   4.400360
    13  H    3.151164   2.237273   3.487419   3.833575   5.143467
                    6          7          8          9         10
     6  O    0.000000
     7  O    4.215469   0.000000
     8  H    4.255603   5.390068   0.000000
     9  H    4.553055   4.760909   1.509189   0.000000
    10  H    4.602589   0.946897   5.459385   4.588674   0.000000
    11  H    3.990070   0.946809   5.925665   5.377908   1.509554
    12  H    0.946829   5.049722   4.119162   4.695038   5.447078
    13  H    0.946758   4.298636   5.105219   5.406978   4.800122
                   11         12         13
    11  H    0.000000
    12  H    4.887367   0.000000
    13  H    3.902015   1.508365   0.000000
 Stoichiometry    H9O4(1+)
 Framework group  C1[X(H9O4)]
 Deg. of freedom    33
 Full point group                 C1      NOp   1
 Largest Abelian subgroup         C1      NOp   1
 Largest concise Abelian subgroup C1      NOp   1
                         Standard orientation:                         
 ---------------------------------------------------------------------
 Center     Atomic      Atomic             Coordinates (Angstroms)
 Number     Number       Type             X           Y           Z
 ---------------------------------------------------------------------
      1          8           0       -0.035593   -0.147022    0.681166
      2          1           0        0.063885    0.761854    0.336597
      3          1           0        0.718737   -0.706040    0.410214
      4          1           0       -0.880306   -0.542048    0.388045
      5          8           0       -2.460462   -0.987303   -0.149302
      6          8           0        0.286557    2.363683   -0.267627
      7          8           0        2.213325   -1.382976   -0.125190
      8          1           0       -3.057773   -0.259135   -0.052132
      9          1           0       -2.447760   -1.186277   -1.074847
     10          1           0        2.096843   -1.810594   -0.961963
     11          1           0        2.847587   -0.696013   -0.274325
     12          1           0       -0.433625    2.915498    0.003155
     13          1           0        1.061800    2.751705    0.112883
 ---------------------------------------------------------------------
 Rotational constants (GHZ):      2.9639264      2.3084013      1.3807376
 Standard basis: 6-31+G(d,p) (6D, 7F)
 There are   121 symmetry adapted basis functions of A   symmetry.
 Integral buffers will be    262144 words long.
 Raffenetti 1 integral format.
 Two-electron integral symmetry is turned on.
   121 basis functions,   191 primitive gaussians,   121 cartesian basis functions
    20 alpha electrons       20 beta electrons
       nuclear repulsion energy       141.4425127098 Hartrees.
 NAtoms=   13 NActive=   13 NUniq=   13 SFac= 7.50D-01 NAtFMM=   80 NAOKFM=F Big=F
 ------------------------------------------------------------------------------
 Polarizable Continuum Model (PCM)
 =================================
 Model                : PCM.
 Atomic radii         : SMD-Coulomb.
 Polarization charges : Total charges.
 Charge compensation  : None.
 Solution method      : Matrix inversion.
 Cavity type          : VdW (van der Waals Surface) (Alpha=1.000).
 Cavity algorithm     : GePol (No added spheres)
                        Default sphere list used, NSphG=   13.
                        Lebedev-Laikov grids with approx.  5.0 points / Ang**2.
                        Smoothing algorithm: Karplus/York (Gamma=1.0000).
                        Polarization charges: spherical gaussians, with
                                              point-specific exponents (IZeta= 3).
                        Self-potential: point-specific (ISelfS= 7).
                        Self-field    : sphere-specific E.n sum rule (ISelfD= 2).
 1st derivatives      : Analytical E(r).r(x)/FMM algorithm (CHGder, D1EAlg=3).
                        Cavity 1st derivative terms included.
 Solvent              : Water, Eps=  78.355300 Eps(inf)=   1.777849
 ------------------------------------------------------------------------------
 Spheres list:
 ISph  on   Nord    Re0     Alpha      Xe            Ye            Ze
    1   O      1    1.520   1.000     -0.035593     -0.147022      0.681166
    2   H      2    1.200   1.000      0.063885      0.761854      0.336597
    3   H      3    1.200   1.000      0.718737     -0.706040      0.410214
    4   H      4    1.200   1.000     -0.880306     -0.542048      0.388045
    5   O      5    1.520   1.000     -2.460462     -0.987303     -0.149302
    6   O      6    1.520   1.000      0.286557      2.363683     -0.267627
    7   O      7    1.520   1.000      2.213325     -1.382976     -0.125190
    8   H      8    1.200   1.000     -3.057773     -0.259135     -0.052132
    9   H      9    1.200   1.000     -2.447760     -1.186277     -1.074847
   10   H     10    1.200   1.000      2.096843     -1.810594     -0.961963
   11   H     11    1.200   1.000      2.847587     -0.696013     -0.274325
   12   H     12    1.200   1.000     -0.433625      2.915498      0.003155
   13   H     13    1.200   1.000      1.061800      2.751705      0.112883
 ------------------------------------------------------------------------------
 ------------------------------------------------------------------------------
 Atomic radii for non-electrostatic terms: SMD-CDS.
 ------------------------------------------------------------------------------
 Nuclear repulsion after PCM non-electrostatic terms =      141.4503394113 Hartrees.
 One-electron integrals computed using PRISM.
 NBasis=   121 RedAO= T  NBF=   121
 NBsUse=   121 1.00D-06 NBFU=   121
 Initial guess read from the read-write file.
 B after Tr=     0.000000    0.000000    0.000000
         Rot=    1.000000    0.000000    0.000000    0.000000 Ang=   0.00 deg.
 Initial guess orbital symmetries:
       Occupied  (A) (A) (A) (A) (A) (A) (A) (A) (A) (A) (A) (A)
                 (A) (A) (A) (A) (A) (A) (A) (A)
       Virtual   (A) (A) (A) (A) (A) (A) (A) (A) (A) (A) (A) (A)
                 (A) (A) (A) (A) (A) (A) (A) (A) (A) (A) (A) (A)
                 (A) (A) (A) (A) (A) (A) (A) (A) (A) (A) (A) (A)
                 (A) (A) (A) (A) (A) (A) (A) (A) (A) (A) (A) (A)
                 (A) (A) (A) (A) (A) (A) (A) (A) (A) (A) (A) (A)
                 (A) (A) (A) (A) (A) (A) (A) (A) (A) (A) (A) (A)
                 (A) (A) (A) (A) (A) (A) (A) (A) (A) (A) (A) (A)
                 (A) (A) (A) (A) (A) (A) (A) (A) (A) (A) (A) (A)
                 (A) (A) (A) (A) (A)
 Harris functional with IExCor=  205 diagonalized for initial guess.
 ExpMin= 8.45D-02 ExpMax= 5.48D+03 ExpMxC= 8.25D+02 IAcc=2 IRadAn=         0 AccDes= 0.00D+00
 HarFok:  IExCor=  205 AccDes= 0.00D+00 IRadAn=         0 IDoV= 1
 ScaDFX=  1.000000  1.000000  1.000000  1.000000
 FoFCou: FMM=F IPFlag=           0 FMFlag=      100000 FMFlg1=           0
         NFxFlg=           0 DoJE=T BraDBF=F KetDBF=T FulRan=T
         Omega=  0.000000  0.000000  1.000000  0.000000  0.000000 ICntrl=     500 IOpCl=  0
         NMat0=    1 NMatS0=    1 NMatT0=    0 NMatD0=    1 NMtDS0=    0 NMtDT0=    0
         I1Cent=           4 NGrid=           0.
 Petite list used in FoFCou.
 Requested convergence on RMS density matrix=1.00D-08 within 128 cycles.
 Requested convergence on MAX density matrix=1.00D-06.
 Requested convergence on             energy=1.00D-06.
 No special actions if energy rises.
 Keep R1 ints in memory in canonical form, NReq=31190645.
 Error on total polarization charges =  0.03348
 SCF Done:  E(RHF) =  -304.628552809     A.U. after   12 cycles
             Convg  =    0.7037D-08             -V/T =  2.0037
 SMD-CDS (non-electrostatic) energy             (kcal/mol) =       4.91
 (included in total energy above)
 D1PCM: PCM CHGder 1st derivatives, ID1Alg=3 FixD1E=F DoIter=F DoCFld=F I1PDM=0.
 Calling FoFJK, ICntrl=      2127 FMM=F ISym2X=0 I1Cent= 0 IOpClX= 0 NMat=1 NMatS=1 NMatT=0.
 ***** Axes restored to original set *****
 -------------------------------------------------------------------
 Center     Atomic                   Forces (Hartrees/Bohr)
 Number     Number              X              Y              Z
 -------------------------------------------------------------------
      1        8           0.002202687   -0.005010805   -0.001250345
      2        1          -0.000680458    0.000453910    0.001100496
      3        1          -0.003010892    0.003859880    0.001367549
      4        1           0.001048410    0.003743412    0.000480886
      5        8          -0.002635220   -0.001084674   -0.001324690
      6        8           0.001077688   -0.003385148   -0.000359701
      7        8           0.002560774   -0.000647317   -0.001645566
      8        1           0.001233862    0.001630338   -0.001056315
      9        1          -0.000000736   -0.001177220    0.001971915
     10        1           0.000304760   -0.001552049    0.001468796
     11        1          -0.001626358    0.001375541   -0.000371382
     12        1           0.001921017    0.001482350    0.000034127
     13        1          -0.002395533    0.000311781   -0.000415770
 -------------------------------------------------------------------
 Cartesian Forces:  Max     0.005010805 RMS     0.001885802

 GradGradGradGradGradGradGradGradGradGradGradGradGradGradGradGradGradGrad
 Berny optimization.
 Using GEDIIS/GDIIS optimizer.
 Internal  Forces:  Max     0.004301563 RMS     0.001316098
 Search for a local minimum.
 Step number   3 out of a maximum of   52
 All quantities printed in internal units (Hartrees-Bohrs-Radians)
 Mixed Optimization -- RFO/linear search
 Update second derivatives using D2CorX and points    1    3    2
 DE=  5.65D-04 DEPred=-3.87D-04 R=-1.46D+00
 Trust test=-1.46D+00 RLast= 3.65D-01 DXMaxT set to 2.52D-01
 Use linear search instead of GDIIS.
 Quartic linear search produced a step of -0.73694.
 Iteration  1 RMS(Cart)=  0.16880629 RMS(Int)=  0.00903329
 Iteration  2 RMS(Cart)=  0.02230279 RMS(Int)=  0.00016100
 Iteration  3 RMS(Cart)=  0.00018053 RMS(Int)=  0.00013702
 Iteration  4 RMS(Cart)=  0.00000002 RMS(Int)=  0.00013702
 Variable       Old X    -DE/DX   Delta X   Delta X   Delta X     New X
                                 (Linear)    (Quad)   (Total)
    R1        1.84641  -0.00094  -0.00424   0.00000  -0.00425   1.84216
    R2        1.84665  -0.00042  -0.00424   0.00000  -0.00423   1.84242
    R3        1.84721  -0.00127  -0.00437   0.00000  -0.00437   1.84284
    R4        3.26246  -0.00186   0.02638   0.00000   0.02638   3.28885
    R5        3.26146  -0.00080   0.02762   0.00000   0.02762   3.28908
    R6        3.26430  -0.00135   0.02446   0.00000   0.02446   3.28876
    R7        1.78921   0.00214  -0.00021   0.00000  -0.00021   1.78901
    R8        1.78915   0.00216  -0.00018   0.00000  -0.00018   1.78897
    R9        1.78925   0.00231  -0.00016   0.00000  -0.00016   1.78909
   R10        1.78911   0.00232  -0.00014   0.00000  -0.00014   1.78897
   R11        1.78938   0.00204  -0.00027   0.00000  -0.00027   1.78911
   R12        1.78921   0.00206  -0.00016   0.00000  -0.00016   1.78905
    A1        1.93452  -0.00098  -0.00438   0.00000  -0.00461   1.92991
    A2        1.93707  -0.00087  -0.00592   0.00000  -0.00638   1.93069
    A3        1.93130   0.00131  -0.00099   0.00000  -0.00091   1.93038
    A4        1.92509  -0.00018  -0.00500   0.00000  -0.00495   1.92014
    A5        1.92410   0.00033  -0.00475   0.00000  -0.00470   1.91939
    A6        1.84462   0.00032   0.00490   0.00000   0.00499   1.84961
    A7        1.92042   0.00053  -0.00292   0.00000  -0.00293   1.91750
    A8        1.92327  -0.00005  -0.00406   0.00000  -0.00407   1.91920
    A9        1.84318   0.00049   0.00605   0.00000   0.00603   1.84922
   A10        1.92276   0.00060  -0.00465   0.00000  -0.00468   1.91808
   A11        1.92239  -0.00019  -0.00405   0.00000  -0.00409   1.91831
   A12        1.84510   0.00010   0.00426   0.00000   0.00419   1.84929
   A13        3.11848   0.00016   0.02010   0.00000   0.02019   3.13867
   A14        2.94420   0.00430   0.18131   0.00000   0.18119   3.12539
   A15        2.99853   0.00304   0.16439   0.00000   0.16438   3.16291
   A16        3.16710  -0.00015  -0.02541   0.00000  -0.02532   3.14178
   A17        3.04976   0.00001   0.03542   0.00000   0.03554   3.08530
   A18        3.23944  -0.00024  -0.05625   0.00000  -0.05628   3.18317
    D1       -0.71207  -0.00078  -0.00055   0.00000  -0.00045  -0.71252
    D2        1.29236   0.00029   0.03216   0.00000   0.03218   1.32454
    D3       -2.85903  -0.00035  -0.01093   0.00000  -0.01095  -2.86997
    D4       -0.85460   0.00072   0.02178   0.00000   0.02169  -0.83291
    D5       -3.12503  -0.00023  -0.01462   0.00000  -0.01484  -3.13986
    D6       -1.09972   0.00063  -0.01085   0.00000  -0.01105  -1.11077
    D7        1.00389  -0.00061  -0.00483   0.00000  -0.00463   0.99926
    D8        3.02919   0.00025  -0.00106   0.00000  -0.00084   3.02835
    D9       -1.60795  -0.00054  -0.04302   0.00000  -0.04330  -1.65125
   D10        0.39231   0.00053  -0.01322   0.00000  -0.01345   0.37886
   D11        0.52580  -0.00053  -0.02352   0.00000  -0.02329   0.50251
   D12        2.52606   0.00053   0.00628   0.00000   0.00656   2.53262
         Item               Value     Threshold  Converged?
 Maximum Force            0.004302     0.000450     NO 
 RMS     Force            0.001316     0.000300     NO 
 Maximum Displacement     0.465779     0.001800     NO 
 RMS     Displacement     0.183849     0.001200     NO 
 Predicted change in Energy=-5.350591D-05
 GradGradGradGradGradGradGradGradGradGradGradGradGradGradGradGradGradGrad

                          Input orientation:                          
 ---------------------------------------------------------------------
 Center     Atomic      Atomic             Coordinates (Angstroms)
 Number     Number       Type             X           Y           Z
 ---------------------------------------------------------------------
      1          8           0        0.012302   -0.008201   -0.432315
      2          1           0       -0.174704    0.899590   -0.130260
      3          1           0       -0.681749   -0.620863   -0.126548
      4          1           0        0.889140   -0.300000   -0.120868
      5          8           0        2.464765   -0.839338    0.384391
      6          8           0       -0.512903    2.518676    0.411140
      7          8           0       -1.962307   -1.683702    0.383257
      8          1           0        3.091730   -0.135438    0.296739
      9          1           0        2.450551   -1.062546    1.304271
     10          1           0       -1.728363   -2.101473    1.200008
     11          1           0       -2.745282   -1.182487    0.562213
     12          1           0        0.164470    3.107026    0.108921
     13          1           0       -1.318676    2.827858    0.022108
 ---------------------------------------------------------------------
                    Distance matrix (angstroms):
                    1          2          3          4          5
     1  O    0.000000
     2  H    0.974830   0.000000
     3  H    0.974964   1.602775   0.000000
     4  H    0.975187   1.603393   1.603333   0.000000
     5  O    2.715211   3.202426   3.195206   1.740335   0.000000
     6  O    2.715209   1.740382   3.189721   3.192756   4.488148
     7  O    2.715058   3.183178   1.740504   3.209287   4.506874
     8  H    3.167110   3.452999   3.828049   2.247861   0.946701
     9  H    3.173709   3.577684   3.471834   2.247332   0.946680
    10  H    3.174300   3.631783   2.246632   3.441125   4.454272
    11  H    3.157895   3.379709   2.246771   3.801895   5.224362
    12  H    3.165553   2.246112   3.829972   3.490813   4.576137
    13  H    3.165633   2.247244   3.510193   3.831239   5.281477
                    6          7          8          9         10
     6  O    0.000000
     7  O    4.445394   0.000000
     8  H    4.477811   5.286577   0.000000
     9  H    4.733381   4.550540   1.511873   0.000000
    10  H    4.842048   0.946755   5.283416   4.307385   0.000000
    11  H    4.324921   0.946726   5.936118   5.249925   1.511767
    12  H    0.946745   5.248763   4.372379   4.903097   5.648163
    13  H    0.946683   4.571527   5.320548   5.566530   5.084643
                   11         12         13
    11  H    0.000000
    12  H    5.203081   0.000000
    13  H    4.290663   1.511685   0.000000
 Stoichiometry    H9O4(1+)
 Framework group  C1[X(H9O4)]
 Deg. of freedom    33
 Full point group                 C1      NOp   1
 Largest Abelian subgroup         C1      NOp   1
 Largest concise Abelian subgroup C1      NOp   1
                         Standard orientation:                         
 ---------------------------------------------------------------------
 Center     Atomic      Atomic             Coordinates (Angstroms)
 Number     Number       Type             X           Y           Z
 ---------------------------------------------------------------------
      1          8           0       -0.010670   -0.014769    0.655126
      2          1           0        0.147755    0.885465    0.316345
      3          1           0        0.701265   -0.617673    0.371913
      4          1           0       -0.878748   -0.345546    0.358447
      5          8           0       -2.438063   -0.952721   -0.119716
      6          8           0        0.434971    2.491108   -0.290571
      7          8           0        2.012854   -1.660412   -0.099031
      8          1           0       -3.086183   -0.265397   -0.058313
      9          1           0       -2.418832   -1.212134   -1.029957
     10          1           0        1.790227   -2.117599   -0.897632
     11          1           0        2.779702   -1.143047   -0.300447
     12          1           0       -0.259554    3.070100   -0.009982
     13          1           0        1.231639    2.840184    0.083162
 ---------------------------------------------------------------------
 Rotational constants (GHZ):      2.5906866      2.4869998      1.3420849
 Standard basis: 6-31+G(d,p) (6D, 7F)
 There are   121 symmetry adapted basis functions of A   symmetry.
 Integral buffers will be    262144 words long.
 Raffenetti 1 integral format.
 Two-electron integral symmetry is turned on.
   121 basis functions,   191 primitive gaussians,   121 cartesian basis functions
    20 alpha electrons       20 beta electrons
       nuclear repulsion energy       140.3436663007 Hartrees.
 NAtoms=   13 NActive=   13 NUniq=   13 SFac= 7.50D-01 NAtFMM=   80 NAOKFM=F Big=F
 ------------------------------------------------------------------------------
 Polarizable Continuum Model (PCM)
 =================================
 Model                : PCM.
 Atomic radii         : SMD-Coulomb.
 Polarization charges : Total charges.
 Charge compensation  : None.
 Solution method      : Matrix inversion.
 Cavity type          : VdW (van der Waals Surface) (Alpha=1.000).
 Cavity algorithm     : GePol (No added spheres)
                        Default sphere list used, NSphG=   13.
                        Lebedev-Laikov grids with approx.  5.0 points / Ang**2.
                        Smoothing algorithm: Karplus/York (Gamma=1.0000).
                        Polarization charges: spherical gaussians, with
                                              point-specific exponents (IZeta= 3).
                        Self-potential: point-specific (ISelfS= 7).
                        Self-field    : sphere-specific E.n sum rule (ISelfD= 2).
 1st derivatives      : Analytical E(r).r(x)/FMM algorithm (CHGder, D1EAlg=3).
                        Cavity 1st derivative terms included.
 Solvent              : Water, Eps=  78.355300 Eps(inf)=   1.777849
 ------------------------------------------------------------------------------
 Spheres list:
 ISph  on   Nord    Re0     Alpha      Xe            Ye            Ze
    1   O      1    1.520   1.000     -0.010670     -0.014769      0.655126
    2   H      2    1.200   1.000      0.147755      0.885465      0.316345
    3   H      3    1.200   1.000      0.701265     -0.617673      0.371913
    4   H      4    1.200   1.000     -0.878748     -0.345546      0.358447
    5   O      5    1.520   1.000     -2.438063     -0.952721     -0.119716
    6   O      6    1.520   1.000      0.434971      2.491108     -0.290571
    7   O      7    1.520   1.000      2.012854     -1.660412     -0.099031
    8   H      8    1.200   1.000     -3.086183     -0.265397     -0.058313
    9   H      9    1.200   1.000     -2.418832     -1.212134     -1.029957
   10   H     10    1.200   1.000      1.790227     -2.117599     -0.897632
   11   H     11    1.200   1.000      2.779702     -1.143047     -0.300447
   12   H     12    1.200   1.000     -0.259554      3.070100     -0.009982
   13   H     13    1.200   1.000      1.231639      2.840184      0.083162
 ------------------------------------------------------------------------------
 ------------------------------------------------------------------------------
 Atomic radii for non-electrostatic terms: SMD-CDS.
 ------------------------------------------------------------------------------
 Nuclear repulsion after PCM non-electrostatic terms =      140.3514929501 Hartrees.
 One-electron integrals computed using PRISM.
 NBasis=   121 RedAO= T  NBF=   121
 NBsUse=   121 1.00D-06 NBFU=   121
 Initial guess read from the read-write file.
 B after Tr=     0.000000    0.000000    0.000000
         Rot=    1.000000    0.000000    0.000000    0.000000 Ang=   0.00 deg.
 Initial guess orbital symmetries:
       Occupied  (A) (A) (A) (A) (A) (A) (A) (A) (A) (A) (A) (A)
                 (A) (A) (A) (A) (A) (A) (A) (A)
       Virtual   (A) (A) (A) (A) (A) (A) (A) (A) (A) (A) (A) (A)
                 (A) (A) (A) (A) (A) (A) (A) (A) (A) (A) (A) (A)
                 (A) (A) (A) (A) (A) (A) (A) (A) (A) (A) (A) (A)
                 (A) (A) (A) (A) (A) (A) (A) (A) (A) (A) (A) (A)
                 (A) (A) (A) (A) (A) (A) (A) (A) (A) (A) (A) (A)
                 (A) (A) (A) (A) (A) (A) (A) (A) (A) (A) (A) (A)
                 (A) (A) (A) (A) (A) (A) (A) (A) (A) (A) (A) (A)
                 (A) (A) (A) (A) (A) (A) (A) (A) (A) (A) (A) (A)
                 (A) (A) (A) (A) (A)
 Harris functional with IExCor=  205 diagonalized for initial guess.
 ExpMin= 8.45D-02 ExpMax= 5.48D+03 ExpMxC= 8.25D+02 IAcc=2 IRadAn=         0 AccDes= 0.00D+00
 HarFok:  IExCor=  205 AccDes= 0.00D+00 IRadAn=         0 IDoV= 1
 ScaDFX=  1.000000  1.000000  1.000000  1.000000
 FoFCou: FMM=F IPFlag=           0 FMFlag=      100000 FMFlg1=           0
         NFxFlg=           0 DoJE=T BraDBF=F KetDBF=T FulRan=T
         Omega=  0.000000  0.000000  1.000000  0.000000  0.000000 ICntrl=     500 IOpCl=  0
         NMat0=    1 NMatS0=    1 NMatT0=    0 NMatD0=    1 NMtDS0=    0 NMtDT0=    0
         I1Cent=           4 NGrid=           0.
 Petite list used in FoFCou.
 Requested convergence on RMS density matrix=1.00D-08 within 128 cycles.
 Requested convergence on MAX density matrix=1.00D-06.
 Requested convergence on             energy=1.00D-06.
 No special actions if energy rises.
 Keep R1 ints in memory in canonical form, NReq=31182065.
 Error on total polarization charges =  0.03351
 SCF Done:  E(RHF) =  -304.629148793     A.U. after   10 cycles
             Convg  =    0.3843D-08             -V/T =  2.0037
 SMD-CDS (non-electrostatic) energy             (kcal/mol) =       4.91
 (included in total energy above)
 D1PCM: PCM CHGder 1st derivatives, ID1Alg=3 FixD1E=F DoIter=F DoCFld=F I1PDM=0.
 Calling FoFJK, ICntrl=      2127 FMM=F ISym2X=0 I1Cent= 0 IOpClX= 0 NMat=1 NMatS=1 NMatT=0.
 ***** Axes restored to original set *****
 -------------------------------------------------------------------
 Center     Atomic                   Forces (Hartrees/Bohr)
 Number     Number              X              Y              Z
 -------------------------------------------------------------------
      1        8           0.000810569   -0.000648518   -0.000482097
      2        1          -0.000665076    0.002594129    0.000832568
      3        1          -0.002252554   -0.001128726    0.000743475
      4        1           0.002019064   -0.000648737    0.000645228
      5        8          -0.003821217    0.000035285   -0.002119673
      6        8           0.000974213   -0.004382497    0.000122509
      7        8           0.003261922    0.001557253   -0.002287216
      8        1           0.001826794    0.001396609   -0.000489332
      9        1           0.000150664   -0.000800725    0.002105046
     10        1           0.000350274   -0.001406343    0.001616365
     11        1          -0.002154301    0.000920945    0.000183311
     12        1           0.001528624    0.001614852   -0.000252621
     13        1          -0.002028975    0.000896474   -0.000617562
 -------------------------------------------------------------------
 Cartesian Forces:  Max     0.004382497 RMS     0.001677304

 GradGradGradGradGradGradGradGradGradGradGradGradGradGradGradGradGradGrad
 Berny optimization.
 Using GEDIIS/GDIIS optimizer.
 Internal  Forces:  Max     0.002307591 RMS     0.001055149
 Search for a local minimum.
 Step number   4 out of a maximum of   52
 All quantities printed in internal units (Hartrees-Bohrs-Radians)
 Mixed Optimization -- RFO/linear search
 Update second derivatives using D2CorX and points    1    3    2    4
 Use linear search instead of GDIIS.
     Eigenvalues ---    0.00210   0.00230   0.00230   0.00230   0.00230
     Eigenvalues ---    0.00230   0.00230   0.00234   0.02054   0.02508
     Eigenvalues ---    0.03768   0.05333   0.05376   0.05605   0.06592
     Eigenvalues ---    0.06674   0.12270   0.12438   0.15285   0.15998
     Eigenvalues ---    0.16000   0.16000   0.16002   0.16097   0.52156
     Eigenvalues ---    0.55472   0.55473   0.55473   0.55473   0.55483
     Eigenvalues ---    0.55596   0.55692   0.590781000.000001000.00000
     Eigenvalues --- 1000.000001000.000001000.000001000.000001000.00000
     Eigenvalues --- 1000.000001000.00000
 RFO step:  Lambda=-5.14698689D-04 EMin= 2.09584518D-03
 Quartic linear search produced a step of -0.44941.
 Iteration  1 RMS(Cart)=  0.03648836 RMS(Int)=  0.00118973
 Iteration  2 RMS(Cart)=  0.00210267 RMS(Int)=  0.00015414
 Iteration  3 RMS(Cart)=  0.00000324 RMS(Int)=  0.00015413
 Iteration  4 RMS(Cart)=  0.00000000 RMS(Int)=  0.00015413
 Variable       Old X    -DE/DX   Delta X   Delta X   Delta X     New X
                                 (Linear)    (Quad)   (Total)
    R1        1.84216   0.00071  -0.00068   0.00635   0.00567   1.84783
    R2        1.84242   0.00070  -0.00068   0.00636   0.00567   1.84809
    R3        1.84284   0.00020  -0.00070   0.00606   0.00536   1.84820
    R4        3.28885  -0.00209   0.00423  -0.06183  -0.05759   3.23125
    R5        3.28908  -0.00186   0.00443  -0.06219  -0.05775   3.23132
    R6        3.28876  -0.00201   0.00392  -0.05770  -0.05378   3.23498
    R7        1.78901   0.00231  -0.00003   0.00447   0.00443   1.79344
    R8        1.78897   0.00223  -0.00003   0.00434   0.00431   1.79328
    R9        1.78909   0.00217  -0.00003   0.00424   0.00421   1.79330
   R10        1.78897   0.00229  -0.00002   0.00433   0.00430   1.79328
   R11        1.78911   0.00213  -0.00004   0.00440   0.00435   1.79346
   R12        1.78905   0.00230  -0.00003   0.00435   0.00433   1.79338
    A1        1.92991  -0.00007  -0.00060   0.00596   0.00513   1.93504
    A2        1.93069   0.00009  -0.00074   0.00887   0.00842   1.93911
    A3        1.93038   0.00001  -0.00019   0.00133   0.00132   1.93170
    A4        1.92014   0.00050  -0.00082   0.01113   0.01029   1.93043
    A5        1.91939   0.00042  -0.00078   0.01046   0.00966   1.92905
    A6        1.84961  -0.00006   0.00074  -0.00262  -0.00191   1.84771
    A7        1.91750   0.00067  -0.00046   0.00798   0.00744   1.92494
    A8        1.91920   0.00041  -0.00065   0.00907   0.00834   1.92754
    A9        1.84922  -0.00011   0.00098  -0.00508  -0.00425   1.84496
[...]
                                  (DIIS)     (GDIIS)  (Total)
    R1        1.85013  -0.00009   0.00058  -0.00036   0.00022   1.85035
    R2        1.85039  -0.00028   0.00023  -0.00033  -0.00010   1.85029
    R3        1.85214  -0.00015  -0.00006   0.00039   0.00033   1.85248
    R4        3.17965  -0.00037  -0.00711  -0.00306  -0.01016   3.16949
    R5        3.18131  -0.00043  -0.00705   0.00054  -0.00651   3.17480
    R6        3.16379  -0.00016  -0.00292  -0.00592  -0.00884   3.15495
    R7        1.79138   0.00063   0.00043  -0.00078  -0.00036   1.79103
    R8        1.79082   0.00093   0.00051  -0.00053  -0.00003   1.79079
    R9        1.79155   0.00052   0.00038   0.00013   0.00051   1.79206
   R10        1.79198   0.00022   0.00027  -0.00141  -0.00114   1.79083
   R11        1.79212  -0.00006   0.00020  -0.00049  -0.00029   1.79183
   R12        1.79221   0.00010   0.00017  -0.00033  -0.00016   1.79205
    A1        1.93314   0.00050   0.00125  -0.00055   0.00068   1.93382
    A2        1.93482  -0.00029  -0.00032  -0.00197  -0.00228   1.93253
    A3        1.93428  -0.00021  -0.00033  -0.00295  -0.00329   1.93099
    A4        1.98490   0.00022   0.00123   0.00618   0.00738   1.99228
    A5        1.97445   0.00011   0.00250   0.00245   0.00492   1.97937
    A6        1.85468  -0.00004  -0.00006   0.00231   0.00220   1.85688
    A7        1.97445  -0.00001   0.00111   0.00603   0.00712   1.98156
    A8        1.98582   0.00018   0.00026   0.00676   0.00700   1.99282
    A9        1.85623  -0.00024  -0.00109   0.00417   0.00304   1.85927
   A10        1.98025   0.00023   0.00223   0.00270   0.00493   1.98519
   A11        1.98065   0.00029   0.00198   0.00590   0.00788   1.98853
   A12        1.85871  -0.00056  -0.00123   0.00207   0.00084   1.85955
   A13        3.14355   0.00022   0.00250  -0.00574  -0.00324   3.14032
   A14        3.18195   0.00023  -0.00089  -0.00566  -0.00655   3.17541
   A15        3.18123  -0.00026   0.00197  -0.00940  -0.00744   3.17379
   A16        3.12856  -0.00016   0.00271   0.01212   0.01484   3.14340
   A17        3.11343  -0.00031  -0.00843   0.01026   0.00183   3.11526
   A18        3.19840  -0.00042  -0.01046  -0.01355  -0.02401   3.17439
    D1       -1.19838  -0.00005  -0.00179  -0.02840  -0.03020  -1.22858
    D2        0.92979   0.00010   0.00189  -0.02118  -0.01927   0.91053
    D3        2.91100  -0.00018  -0.00106  -0.01943  -0.02051   2.89048
    D4       -1.24401  -0.00004   0.00262  -0.01221  -0.00958  -1.25359
    D5       -3.10946   0.00009  -0.00361  -0.00151  -0.00513  -3.11459
    D6       -0.98700  -0.00012  -0.00465   0.01310   0.00846  -0.97853
    D7        1.02135   0.00020  -0.00490   0.00266  -0.00226   1.01909
    D8       -3.13938  -0.00001  -0.00595   0.01727   0.01133  -3.12804
    D9       -1.53468   0.00012  -0.00839   0.01718   0.00880  -1.52588
   D10        0.60218  -0.00013  -0.00616   0.02469   0.01853   0.62072
   D11        0.63415   0.00006  -0.00653   0.00888   0.00234   0.63649
   D12        2.77101  -0.00020  -0.00431   0.01639   0.01207   2.78308
         Item               Value     Threshold  Converged?
 Maximum Force            0.000926     0.000450     NO 
 RMS     Force            0.000296     0.000300     YES
 Maximum Displacement     0.035982     0.001800     NO 
 RMS     Displacement     0.011061     0.001200     NO 
 Predicted change in Energy=-1.680566D-05
 Optimization stopped.
    -- Number of steps exceeded,  NStep=  52
    -- Flag reset to prevent archiving.
                           ----------------------------
                           ! Non-Optimized Parameters !
                           ! (Angstroms and Degrees)  !
 --------------------------                            --------------------------
 ! Name  Definition              Value          Derivative Info.                !
 --------------------------------------------------------------------------------
 ! R1    R(1,2)                  0.9792         -DE/DX =   -0.0001              !
 ! R2    R(1,3)                  0.9791         -DE/DX =   -0.0003              !
 ! R3    R(1,4)                  0.9803         -DE/DX =   -0.0001              !
 ! R4    R(2,6)                  1.6772         -DE/DX =   -0.0004              !
 ! R5    R(3,7)                  1.68           -DE/DX =   -0.0004              !
 ! R6    R(4,5)                  1.6695         -DE/DX =   -0.0002              !
 ! R7    R(5,8)                  0.9478         -DE/DX =    0.0006              !
 ! R8    R(5,9)                  0.9476         -DE/DX =    0.0009              !
 ! R9    R(6,12)                 0.9483         -DE/DX =    0.0005              !
 ! R10   R(6,13)                 0.9477         -DE/DX =    0.0002              !
 ! R11   R(7,10)                 0.9482         -DE/DX =   -0.0001              !
 ! R12   R(7,11)                 0.9483         -DE/DX =    0.0001              !
 ! A1    A(2,1,3)              110.7996         -DE/DX =    0.0005              !
 ! A2    A(2,1,4)              110.7259         -DE/DX =   -0.0003              !
 ! A3    A(3,1,4)              110.6373         -DE/DX =   -0.0002              !
 ! A4    A(4,5,8)              114.1491         -DE/DX =    0.0002              !
 ! A5    A(4,5,9)              113.4095         -DE/DX =    0.0001              !
 ! A6    A(8,5,9)              106.3912         -DE/DX =    0.0                 !
 ! A7    A(2,6,12)             113.5352         -DE/DX =    0.0                 !
 ! A8    A(2,6,13)             114.1801         -DE/DX =    0.0002              !
 ! A9    A(12,6,13)            106.5285         -DE/DX =   -0.0002              !
 ! A10   A(3,7,10)             113.7428         -DE/DX =    0.0002              !
 ! A11   A(3,7,11)             113.9345         -DE/DX =    0.0003              !
 ! A12   A(10,7,11)            106.5443         -DE/DX =   -0.0006              !
 ! A13   L(1,2,6,3,-1)         179.9269         -DE/DX =    0.0002              !
 ! A14   L(1,3,7,2,-1)         181.9376         -DE/DX =    0.0002              !
 ! A15   L(1,4,5,2,-1)         181.8446         -DE/DX =   -0.0003              !
 ! A16   L(1,2,6,3,-2)         180.1036         -DE/DX =   -0.0002              !
 ! A17   L(1,3,7,2,-2)         178.4915         -DE/DX =   -0.0003              !
 ! A18   L(1,4,5,2,-2)         181.879          -DE/DX =   -0.0004              !
 ! D1    D(2,1,5,8)            -70.3924         -DE/DX =    0.0                 !
 ! D2    D(2,1,5,9)             52.1694         -DE/DX =    0.0001              !
 ! D3    D(3,1,5,8)            165.6125         -DE/DX =   -0.0002              !
 ! D4    D(3,1,5,9)            -71.8256         -DE/DX =    0.0                 !
 ! D5    D(3,1,6,12)          -178.4526         -DE/DX =    0.0001              !
 ! D6    D(3,1,6,13)           -56.0659         -DE/DX =   -0.0001              !
 ! D7    D(4,1,6,12)            58.3895         -DE/DX =    0.0002              !
 ! D8    D(4,1,6,13)          -179.2237         -DE/DX =    0.0                 !
 ! D9    D(2,1,7,10)           -87.4263         -DE/DX =    0.0001              !
 ! D10   D(2,1,7,11)            35.5644         -DE/DX =   -0.0001              !
 ! D11   D(4,1,7,10)            36.4681         -DE/DX =    0.0001              !
 ! D12   D(4,1,7,11)           159.4588         -DE/DX =   -0.0002              !
 --------------------------------------------------------------------------------
 GradGradGradGradGradGradGradGradGradGradGradGradGradGradGradGradGradGrad

                          Input orientation:                          
 ---------------------------------------------------------------------
 Center     Atomic      Atomic             Coordinates (Angstroms)
 Number     Number       Type             X           Y           Z
 ---------------------------------------------------------------------
      1          8           0        0.011634    0.004337   -0.377977
      2          1           0       -0.174001    0.922668   -0.093819
      3          1           0       -0.700549   -0.600366   -0.084838
      4          1           0        0.882787   -0.295152   -0.043285
      5          8           0        2.382025   -0.848477    0.455798
      6          8           0       -0.484056    2.499845    0.403693
      7          8           0       -1.903654   -1.687323    0.368104
      8          1           0        3.109740   -0.411301    0.033975
      9          1           0        2.521340   -0.755898    1.388578
     10          1           0       -1.775795   -2.052857    1.233783
     11          1           0       -2.774564   -1.311941    0.360228
     12          1           0        0.172930    3.118153    0.112390
     13          1           0       -1.318862    2.837418    0.106428
 ---------------------------------------------------------------------
                    Distance matrix (angstroms):
                    1          2          3          4          5
     1  O    0.000000
     2  H    0.979049   0.000000
     3  H    0.979184   1.611510   0.000000
     4  H    0.980112   1.613208   1.613020   0.000000
     5  O    2.653531   3.157895   3.139443   1.674206   0.000000
     6  O    2.661630   1.682599   3.145924   3.143256   4.407765
     7  O    2.662081   3.164984   1.683477   3.141916   4.367882
     8  H    3.152890   3.546655   3.816826   2.231317   0.947959
     9  H    3.161851   3.504276   3.546225   2.224270   0.947660
    10  H    3.166184   3.630705   2.237107   3.433437   4.398097
    11  H    3.168664   3.458693   2.237401   3.817447   5.178256
    12  H    3.156315   2.232272   3.824820   3.489811   4.553261
    13  H    3.167209   2.239882   3.498178   3.831797   5.234925
                    6          7          8          9         10
     6  O    0.000000
     7  O    4.421414   0.000000
     8  H    4.639701   5.184012   0.000000
     9  H    4.538972   4.635676   1.516546   0.000000
    10  H    4.804658   0.948348   5.291758   4.491263   0.000000
    11  H    4.447249   0.948398   5.961763   5.423402   1.519735
    12  H    0.948047   5.241201   4.592172   4.706586   5.638652
    13  H    0.948274   4.569873   5.492899   5.413223   5.039296
                   11         12         13
    11  H    0.000000
    12  H    5.326807   0.000000
    13  H    4.404618   1.517989   0.000000
 Stoichiometry    H9O4(1+)
 Framework group  C1[X(H9O4)]
 Deg. of freedom    33
 Full point group                 C1      NOp   1
 Largest Abelian subgroup         C1      NOp   1
 Largest concise Abelian subgroup C1      NOp   1
                         Standard orientation:                         
 ---------------------------------------------------------------------
 Center     Atomic      Atomic             Coordinates (Angstroms)
 Number     Number       Type             X           Y           Z
 ---------------------------------------------------------------------
      1          8           0        0.000041   -0.001373   -0.617868
      2          1           0        0.109640    0.916557   -0.295487
      3          1           0       -0.862741   -0.367921   -0.334935
      4          1           0        0.737469   -0.569388   -0.310981
      5          8           0        1.994385   -1.579714    0.138872
      6          8           0        0.306255    2.489937    0.267501
      7          8           0       -2.340763   -1.047515    0.098305
      8          1           0        2.819303   -1.371722   -0.279310
      9          1           0        2.160862   -1.574030    1.071778
     10          1           0       -2.327475   -1.470697    0.946894
     11          1           0       -3.052581   -0.421203    0.120833
     12          1           0        1.120781    2.886405   -0.012059
     13          1           0       -0.384603    3.081320   -0.001210
 ---------------------------------------------------------------------
 Rotational constants (GHZ):      2.6263379      2.6113805      1.3817910

 **********************************************************************

            Population analysis using the SCF density.

 **********************************************************************

 Orbital symmetries:
       Occupied  (A) (A) (A) (A) (A) (A) (A) (A) (A) (A) (A) (A)
                 (A) (A) (A) (A) (A) (A) (A) (A)
       Virtual   (A) (A) (A) (A) (A) (A) (A) (A) (A) (A) (A) (A)
                 (A) (A) (A) (A) (A) (A) (A) (A) (A) (A) (A) (A)
                 (A) (A) (A) (A) (A) (A) (A) (A) (A) (A) (A) (A)
                 (A) (A) (A) (A) (A) (A) (A) (A) (A) (A) (A) (A)
                 (A) (A) (A) (A) (A) (A) (A) (A) (A) (A) (A) (A)
                 (A) (A) (A) (A) (A) (A) (A) (A) (A) (A) (A) (A)
                 (A) (A) (A) (A) (A) (A) (A) (A) (A) (A) (A) (A)
                 (A) (A) (A) (A) (A) (A) (A) (A) (A) (A) (A) (A)
                 (A) (A) (A) (A) (A)
 The electronic state is 1-A.
 Alpha  occ. eigenvalues --  -20.66270 -20.59628 -20.59601 -20.59583  -1.47127
 Alpha  occ. eigenvalues --   -1.37895  -1.37834  -1.37590  -0.81374  -0.81335
 Alpha  occ. eigenvalues --   -0.74131  -0.74074  -0.74065  -0.64281  -0.60726
 Alpha  occ. eigenvalues --   -0.60538  -0.60204  -0.53698  -0.53162  -0.53078
 Alpha virt. eigenvalues --    0.12532   0.15649   0.16144   0.19681   0.20516
 Alpha virt. eigenvalues --    0.21140   0.22421   0.23763   0.24777   0.28816
 Alpha virt. eigenvalues --    0.30210   0.30510   0.31060   0.34871   0.35291
 Alpha virt. eigenvalues --    0.38030   0.38513   0.38645   0.41612   0.43836
 Alpha virt. eigenvalues --    0.45638   0.46647   0.47979   0.50786   0.50948
 Alpha virt. eigenvalues --    1.19510   1.19756   1.22239   1.24919   1.25341
 Alpha virt. eigenvalues --    1.28163   1.29450   1.30284   1.30717   1.32023
 Alpha virt. eigenvalues --    1.32561   1.33889   1.35063   1.39057   1.40074
 Alpha virt. eigenvalues --    1.40094   1.41442   1.41976   1.46804   1.49578
 Alpha virt. eigenvalues --    1.49934   1.55052   1.67022   1.67407   1.68913
 Alpha virt. eigenvalues --    1.69437   1.73005   1.77278   1.78722   1.79335
 Alpha virt. eigenvalues --    1.81259   1.82144   1.83855   1.96508   2.03999
 Alpha virt. eigenvalues --    2.04274   2.36894   2.54455   2.54773   2.55037
 Alpha virt. eigenvalues --    2.55099   2.56993   2.58877   2.69011   2.71163
 Alpha virt. eigenvalues --    2.76186   2.88793   2.89421   2.89899   2.94887
 Alpha virt. eigenvalues --    2.96732   2.96809   2.98687   2.99044   2.99693
 Alpha virt. eigenvalues --    3.03082   3.04070   3.11255   3.38668   3.39546
 Alpha virt. eigenvalues --    3.40284   3.41433   3.41732   3.69910   3.73532
 Alpha virt. eigenvalues --    3.74239   3.89611   3.92325   3.92646   3.93186
 Alpha virt. eigenvalues --    4.04306   4.04525   4.51008   4.57252   4.58969
 Alpha virt. eigenvalues --    4.90392
          Condensed to atoms (all electrons):
              1          2          3          4          5          6
     1  O    8.044741   0.257563   0.256972   0.256172  -0.026957  -0.032409
     2  H    0.257563   0.177609  -0.006653  -0.006786   0.000520   0.016095
     3  H    0.256972  -0.006653   0.178937  -0.006369   0.001078   0.001342
     4  H    0.256172  -0.006786  -0.006369   0.177163   0.013340   0.001392
     5  O   -0.026957   0.000520   0.001078   0.013340   8.275568  -0.000420
     6  O   -0.032409   0.016095   0.001342   0.001392  -0.000420   8.276941
     7  O   -0.025954   0.000415   0.013099   0.000754  -0.000102  -0.000316
     8  H    0.000742  -0.000008   0.000005  -0.001309   0.300887   0.000019
     9  H    0.000617  -0.000010  -0.000028  -0.001361   0.301749   0.000025
    10  H    0.000561   0.000001  -0.001305  -0.000028   0.000064  -0.000004
    11  H    0.000605  -0.000010  -0.001273   0.000008  -0.000003   0.000055
    12  H    0.001083  -0.001484  -0.000001  -0.000054   0.000021   0.300706
    13  H    0.001072  -0.001479  -0.000052  -0.000002  -0.000008   0.300723
              7          8          9         10         11         12
     1  O   -0.025954   0.000742   0.000617   0.000561   0.000605   0.001083
     2  H    0.000415  -0.000008  -0.000010   0.000001  -0.000010  -0.001484
     3  H    0.013099   0.000005  -0.000028  -0.001305  -0.001273  -0.000001
     4  H    0.000754  -0.001309  -0.001361  -0.000028   0.000008  -0.000054
     5  O   -0.000102   0.300887   0.301749   0.000064  -0.000003   0.000021
     6  O   -0.000316   0.000019   0.000025  -0.000004   0.000055   0.300706
     7  O    8.274321  -0.000005   0.000020   0.302014   0.301162  -0.000007
     8  H   -0.000005   0.276711  -0.016918   0.000000   0.000000  -0.000001
     9  H    0.000020  -0.016918   0.276887  -0.000002   0.000000  -0.000001
    10  H    0.302014   0.000000  -0.000002   0.276699  -0.016898   0.000000
    11  H    0.301162   0.000000   0.000000  -0.016898   0.276914   0.000000
    12  H   -0.000007  -0.000001  -0.000001   0.000000   0.000000   0.277866
    13  H    0.000008   0.000000   0.000000   0.000000  -0.000002  -0.016643
             13
     1  O    0.001072
     2  H   -0.001479
     3  H   -0.000052
     4  H   -0.000002
     5  O   -0.000008
     6  O    0.300723
     7  O    0.000008
     8  H    0.000000
     9  H    0.000000
    10  H    0.000000
    11  H   -0.000002
    12  H   -0.016643
    13  H    0.277583
 Mulliken atomic charges:
              1
     1  O   -0.734809
     2  H    0.564225
     3  H    0.564248
     4  H    0.567079
     5  O   -0.865739
     6  O   -0.864146
     7  O   -0.865409
     8  H    0.439878
     9  H    0.439022
    10  H    0.438897
    11  H    0.439442
    12  H    0.438514
    13  H    0.438798
 Sum of Mulliken atomic charges =   1.00000
 Mulliken charges with hydrogens summed into heavy atoms:
              1
     1  O    0.960743
     5  O    0.013161
     6  O    0.013166
     7  O    0.012930
 Sum of Mulliken charges with hydrogens summed into heavy atoms =   1.00000
 Electronic spatial extent (au):  <R**2>=            799.3915
 Charge=              1.0000 electrons
 Dipole moment (field-independent basis, Debye):
    X=              0.9400    Y=              3.1982    Z=              1.8169  Tot=              3.7964
 Quadrupole moment (field-independent basis, Debye-Ang):
   XX=              1.2832   YY=            -10.7911   ZZ=            -23.7908
   XY=             -1.8465   XZ=             -3.1759   YZ=             -8.5881
 Traceless Quadrupole moment (field-independent basis, Debye-Ang):
   XX=             12.3827   YY=              0.3085   ZZ=            -12.6912
   XY=             -1.8465   XZ=             -3.1759   YZ=             -8.5881
 Octapole moment (field-independent basis, Debye-Ang**2):
  XXX=              6.1917  YYY=             60.7908  ZZZ=              6.1415  XYY=              5.8386
  XXY=             -5.9678  XXZ=             14.2634  XZZ=              1.7865  YZZ=             -9.6216
  YYZ=             -0.8987  XYZ=              2.4976
 Hexadecapole moment (field-independent basis, Debye-Ang**3):
 XXXX=           -162.9924 YYYY=           -247.0037 ZZZZ=            -39.0043 XXXY=            -39.2641
 XXXZ=            -28.5792 YYYX=             20.7976 YYYZ=            -41.9553 ZZZX=             -0.1484
 ZZZY=            -14.0984 XXYY=           -101.7043 XXZZ=            -52.8451 YYZZ=            -72.9850
 XXYZ=            -26.0583 YYXZ=             -8.7044 ZZXY=             -4.2932
 N-N= 1.418456600181D+02 E-N=-9.970737967144D+02  KE= 3.035239915252D+02


 A MAN SHOULD NEVER BE ASHAMED TO OWN HE HAS BEEN IN THE WRONG
 WHICH IS BUT SAYING IN OTHER WORDS,
 THAT HE IS WISER TODAY THAN HE WAS YESTERDAY.

                          -- JONATHAN SWIFT
 Error termination request processed by link 9999.
 Error termination via Lnk1e in C:\G09W\l9999.exe at Tue Nov 17 01:17:30 2020.
 Job cpu time:  0 days  0 hours  8 minutes 51.0 seconds.
 File lengths (MBytes):  RWF=     38 Int=      0 D2E=      0 Chk=      3 Scr=      1
