 Entering Link 1 = C:\G09W\l1.exe PID=      6852.
  
 Copyright (c) 1988,1990,1992,1993,1995,1998,2003,2009, Gaussian, Inc.
                  All Rights Reserved.
  
 This is part of the Gaussian(R) 09 program.  It is based on
 the Gaussian(R) 03 system (copyright 2003, Gaussian, Inc.),
 the Gaussian(R) 98 system (copyright 1998, Gaussian, Inc.),
 the Gaussian(R) 94 system (copyright 1995, Gaussian, Inc.),
 the Gaussian 92(TM) system (copyright 1992, Gaussian, Inc.),
 the Gaussian 90(TM) system (copyright 1990, Gaussian, Inc.),
 the Gaussian 88(TM) system (copyright 1988, Gaussian, Inc.),
 the Gaussian 86(TM) system (copyright 1986, Carnegie Mellon
 University), and the Gaussian 82(TM) system (copyright 1983,
 Carnegie Mellon University). Gaussian is a federally registered
 trademark of Gaussian, Inc.
  
 This software contains proprietary and confidential information,
 including trade secrets, belonging to Gaussian, Inc.
  
 This software is provided under written license and may be
 used, copied, transmitted, or stored only in accord with that
 written license.
  
 The following legend is applicable only to US Government
 contracts under FAR:
  
                    RESTRICTED RIGHTS LEGEND
  
 Use, reproduction and disclosure by the US Government is
 subject to restrictions as set forth in subparagraphs (a)
 and (c) of the Commercial Computer Software - Restricted
 Rights clause in FAR 52.227-19.
  
 Gaussian, Inc.
 340 Quinnipiac St., Bldg. 40, Wallingford CT 06492
  
  
 ---------------------------------------------------------------
 Warning -- This program may not be used in any manner that
 competes with the business of Gaussian, Inc. or will provide
 assistance to any competitor of Gaussian, Inc.  The licensee
 of this program is prohibited from giving any competitor of
 Gaussian, Inc. access to this program.  By using this program,
 the user acknowledges that Gaussian, Inc. is engaged in the
 business of creating and licensing software in the field of
 computational chemistry and represents and warrants to the
 licensee that it is not a competitor of Gaussian, Inc. and that
 it will not use this program in any manner prohibited above.
 ---------------------------------------------------------------
  

 Cite this work as:
 Gaussian 09, Revision A.02,
 M. J. Frisch, G. W. Trucks, H. B. Schlegel, G. E. Scuseria, 
 M. A. Robb, J. R. Cheeseman, G. Scalmani, V. Barone, B. Mennucci, 
 G. A. Petersson, H. Nakatsuji, M. Caricato, X. Li, H. P. Hratchian, 
 A. F. Izmaylov, J. Bloino, G. Zheng, J. L. Sonnenberg, M. Hada, 
 M. Ehara, K. Toyota, R. Fukuda, J. Hasegawa, M. Ishida, T. Nakajima, 
 Y. Honda, O. Kitao, H. Nakai, T. Vreven, J. A. Montgomery, Jr., 
 J. E. Peralta, F. Ogliaro, M. Bearpark, J. J. Heyd, E. Brothers, 
 K. N. Kudin, V. N. Staroverov, R. Kobayashi, J. Normand, 
 K. Raghavachari, A. Rendell, J. C. Burant, S. S. Iyengar, J. Tomasi, 
 M. Cossi, N. Rega, J. M. Millam, M. Klene, J. E. Knox, J. B. Cross, 
 V. Bakken, C. Adamo, J. Jaramillo, R. Gomperts, R. E. Stratmann, 
 O. Yazyev, A. J. Austin, R. Cammi, C. Pomelli, J. W. Ochterski, 
 R. L. Martin, K. Morokuma, V. G. Zakrzewski, G. A. Voth, 
 P. Salvador, J. J. Dannenberg, S. Dapprich, A. D. Daniels, 
 O. Farkas, J. B. Foresman, J. V. Ortiz, J. Cioslowski, 
 and D. J. Fox, Gaussian, Inc., Wallingford CT, 2009.
 
 ******************************************
 Gaussian 09:  IA32W-G09RevA.02 11-Jun-2009
                16-Nov-2020 
 ******************************************
 %chk=C:\Users\sagad\Documents\rayGit\FQ\quimicaComputacional\clase8Pka\productos
 \hydroniumHF.chk
 %mem=1500mb
 %nproc=4
 Will use up to    4 processors via shared memory.
 ----------------------------------
 # hf/6-31+g(d,p) opt freq scrf=smd
 ----------------------------------
 1/14=-1,18=20,19=15,38=1/1,3;
 2/9=110,12=2,17=6,18=5,40=1/2;
 3/5=1,6=6,7=111,11=9,16=1,25=1,30=1,70=32201,71=1,72=1/1,2,3;
 4//1;
 5/5=2,38=5/2;
 6/7=2,8=2,9=2,10=2,28=1/1;
 7//1,2,3,16;
 1/14=-1,18=20,19=15/3(2);
 2/9=110/2;
 99//99;
 2/9=110/2;
 3/5=1,6=6,7=111,11=9,16=1,25=1,30=1,70=32205,71=1/1,2,3;
 4/5=5,16=3/1;
 5/5=2,38=5/2;
 7//1,2,3,16;
 1/14=-1,18=20,19=15/3(-5);
 2/9=110/2;
 6/7=2,8=2,9=2,10=2,19=2,28=1/1;
 99/9=1/99;
 ------------
 Hydronium HF
 ------------
 Symbolic Z-matrix:
 Charge =  1 Multiplicity = 1
 O                    -1.40071  -0.11761   0. 
 H                    -0.49147  -0.01411   0.20623 
 H                    -1.76432   0.71557   0.30854 
 H                    -2.0669   -0.77802   0. 
 

 GradGradGradGradGradGradGradGradGradGradGradGradGradGradGradGradGradGrad
 Berny optimization.
 Initialization pass.
                           ----------------------------
                           !    Initial Parameters    !
                           ! (Angstroms and Degrees)  !
 --------------------------                            --------------------------
 ! Name  Definition              Value          Derivative Info.                !
 --------------------------------------------------------------------------------
 ! R1    R(1,2)                  0.9381         estimate D2E/DX2                !
 ! R2    R(1,3)                  0.96           estimate D2E/DX2                !
 ! R3    R(1,4)                  0.9381         estimate D2E/DX2                !
 ! A1    A(2,1,3)              101.5782         estimate D2E/DX2                !
 ! A2    A(2,1,4)              140.0            estimate D2E/DX2                !
 ! A3    A(3,1,4)              110.0            estimate D2E/DX2                !
 ! D1    D(2,1,4,3)            140.0            estimate D2E/DX2                !
 --------------------------------------------------------------------------------
 Trust Radius=3.00D-01 FncErr=1.00D-07 GrdErr=1.00D-07
 Number of steps in this run=  20 maximum allowed number of steps= 100.
 GradGradGradGradGradGradGradGradGradGradGradGradGradGradGradGradGradGrad

                          Input orientation:                          
 ---------------------------------------------------------------------
 Center     Atomic      Atomic             Coordinates (Angstroms)
 Number     Number       Type             X           Y           Z
 ---------------------------------------------------------------------
      1          8           0       -1.400708   -0.117611    0.000000
      2          1           0       -0.491471   -0.014107    0.206229
      3          1           0       -1.764321    0.715570    0.308538
      4          1           0       -2.066904   -0.778019    0.000000
 ---------------------------------------------------------------------
                    Distance matrix (angstroms):
                    1          2          3          4
     1  O    0.000000
     2  H    0.938059   0.000000
     3  H    0.960000   1.470728   0.000000
     4  H    0.938059   1.762975   1.554850   0.000000
 Stoichiometry    H3O(1+)
 Framework group  C1[X(H3O)]
 Deg. of freedom     6
 Full point group                 C1      NOp   1
 Largest Abelian subgroup         C1      NOp   1
 Largest concise Abelian subgroup C1      NOp   1
                         Standard orientation:                         
 ---------------------------------------------------------------------
 Center     Atomic      Atomic             Coordinates (Angstroms)
 Number     Number       Type             X           Y           Z
 ---------------------------------------------------------------------
      1          8           0       -0.011164   -0.035090   -0.039812
      2          1           0        0.829529   -0.419192    0.120367
      3          1           0        0.179446    0.899165    0.071702
      4          1           0       -0.919663   -0.199254    0.126427
 ---------------------------------------------------------------------
 Rotational constants (GHZ):    457.9594172    308.9306355    192.3396499
 Standard basis: 6-31+G(d,p) (6D, 7F)
 There are    34 symmetry adapted basis functions of A   symmetry.
 Integral buffers will be    262144 words long.
 Raffenetti 1 integral format.
 Two-electron integral symmetry is turned on.
    34 basis functions,    53 primitive gaussians,    34 cartesian basis functions
     5 alpha electrons        5 beta electrons
       nuclear repulsion energy        14.4360231867 Hartrees.
 NAtoms=    4 NActive=    4 NUniq=    4 SFac= 7.50D-01 NAtFMM=   80 NAOKFM=F Big=F
 ------------------------------------------------------------------------------
 Polarizable Continuum Model (PCM)
 =================================
 Model                : PCM.
 Atomic radii         : SMD-Coulomb.
 Polarization charges : Total charges.
 Charge compensation  : None.
 Solution method      : Matrix inversion.
 Cavity type          : VdW (van der Waals Surface) (Alpha=1.000).
 Cavity algorithm     : GePol (No added spheres)
                        Default sphere list used, NSphG=    4.
                        Lebedev-Laikov grids with approx.  5.0 points / Ang**2.
                        Smoothing algorithm: Karplus/York (Gamma=1.0000).
                        Polarization charges: spherical gaussians, with
                                              point-specific exponents (IZeta= 3).
                        Self-potential: point-specific (ISelfS= 7).
                        Self-field    : sphere-specific E.n sum rule (ISelfD= 2).
 1st derivatives      : Analytical E(r).r(x)/FMM algorithm (CHGder, D1EAlg=3).
                        Cavity 1st derivative terms included.
 Solvent              : Water, Eps=  78.355300 Eps(inf)=   1.777849
 ------------------------------------------------------------------------------
 Spheres list:
 ISph  on   Nord    Re0     Alpha      Xe            Ye            Ze
    1   O      1    1.520   1.000     -0.011164     -0.035090     -0.039812
    2   H      2    1.200   1.000      0.829529     -0.419192      0.120367
    3   H      3    1.200   1.000      0.179446      0.899165      0.071702
    4   H      4    1.200   1.000     -0.919663     -0.199254      0.126427
 ------------------------------------------------------------------------------
 ------------------------------------------------------------------------------
 Atomic radii for non-electrostatic terms: SMD-CDS.
 ------------------------------------------------------------------------------
 Nuclear repulsion after PCM non-electrostatic terms =       14.4394093635 Hartrees.
 One-electron integrals computed using PRISM.
 NBasis=    34 RedAO= T  NBF=    34
 NBsUse=    34 1.00D-06 NBFU=    34
 Harris functional with IExCor=  205 diagonalized for initial guess.
 ExpMin= 8.45D-02 ExpMax= 5.48D+03 ExpMxC= 8.25D+02 IAcc=2 IRadAn=         0 AccDes= 0.00D+00
 HarFok:  IExCor=  205 AccDes= 0.00D+00 IRadAn=         0 IDoV= 1
 ScaDFX=  1.000000  1.000000  1.000000  1.000000
 FoFCou: FMM=F IPFlag=           0 FMFlag=      100000 FMFlg1=           0
         NFxFlg=           0 DoJE=T BraDBF=F KetDBF=T FulRan=T
         Omega=  0.000000  0.000000  1.000000  0.000000  0.000000 ICntrl=     500 IOpCl=  0
         NMat0=    1 NMatS0=    1 NMatT0=    0 NMatD0=    1 NMtDS0=    0 NMtDT0=    0
         I1Cent=           4 NGrid=           0.
 Petite list used in FoFCou.
 Initial guess orbital symmetries:
       Occupied  (A) (A) (A) (A) (A)
       Virtual   (A) (A) (A) (A) (A) (A) (A) (A) (A) (A) (A) (A)
                 (A) (A) (A) (A) (A) (A) (A) (A) (A) (A) (A) (A)
                 (A) (A) (A) (A) (A)
 The electronic state of the initial guess is 1-A.
 Requested convergence on RMS density matrix=1.00D-08 within 128 cycles.
 Requested convergence on MAX density matrix=1.00D-06.
 Requested convergence on             energy=1.00D-06.
 No special actions if energy rises.
 Keep R1 ints in memory in canonical form, NReq=3143006.
 Error on total polarization charges =  0.00763
 SCF Done:  E(RHF) =  -76.4482079042     A.U. after    9 cycles
             Convg  =    0.8344D-08             -V/T =  2.0039
 SMD-CDS (non-electrostatic) energy             (kcal/mol) =       2.12
 (included in total energy above)

 **********************************************************************

            Population analysis using the SCF density.

 **********************************************************************

 Orbital symmetries:
       Occupied  (A) (A) (A) (A) (A)
       Virtual   (A) (A) (A) (A) (A) (A) (A) (A) (A) (A) (A) (A)
                 (A) (A) (A) (A) (A) (A) (A) (A) (A) (A) (A) (A)
                 (A) (A) (A) (A) (A)
 The electronic state is 1-A.
 Alpha  occ. eigenvalues --  -20.71480  -1.52435  -0.91027  -0.82187  -0.65545
 Alpha virt. eigenvalues --    0.13407   0.19149   0.20951   0.22716   0.29830
 Alpha virt. eigenvalues --    0.36423   0.40523   1.04671   1.20490   1.21220
 Alpha virt. eigenvalues --    1.25169   1.29140   1.30743   1.40806   1.60447
 Alpha virt. eigenvalues --    1.69726   2.16974   2.35621   2.55180   2.64409
 Alpha virt. eigenvalues --    2.72368   2.89745   3.08139   3.10070   3.49149
 Alpha virt. eigenvalues --    3.68197   3.75015   3.98217   4.78321
          Condensed to atoms (all electrons):
              1          2          3          4
     1  O    7.624845   0.300906   0.298844   0.300691
     2  H    0.300906   0.202524  -0.012389  -0.003476
     3  H    0.298844  -0.012389   0.226279  -0.009890
     4  H    0.300691  -0.003476  -0.009890   0.196979
 Mulliken atomic charges:
              1
     1  O   -0.525286
     2  H    0.512434
     3  H    0.497156
     4  H    0.515695
 Sum of Mulliken atomic charges =   1.00000
 Mulliken charges with hydrogens summed into heavy atoms:
              1
     1  O    1.000000
 Sum of Mulliken charges with hydrogens summed into heavy atoms =   1.00000
 Electronic spatial extent (au):  <R**2>=             17.7843
 Charge=              1.0000 electrons
 Dipole moment (field-independent basis, Debye):
    X=              0.2057    Y=              0.6767    Z=              0.9979  Tot=              1.2231
 Quadrupole moment (field-independent basis, Debye-Ang):
   XX=             -1.4182   YY=             -3.2464   ZZ=             -6.5314
   XY=             -0.0177   XZ=             -0.0130   YZ=             -0.0408
 Traceless Quadrupole moment (field-independent basis, Debye-Ang):
   XX=              2.3138   YY=              0.4856   ZZ=             -2.7994
   XY=             -0.0177   XZ=             -0.0130   YZ=             -0.0408
 Octapole moment (field-independent basis, Debye-Ang**2):
  XXX=             -0.5194  YYY=              2.1351  ZZZ=              0.5337  XYY=              0.7678
  XXY=             -1.1636  XXZ=              0.7324  XZZ=              0.0299  YZZ=              0.0989
  YYZ=              0.4041  XYZ=             -0.0198
 Hexadecapole moment (field-independent basis, Debye-Ang**3):
 XXXX=             -1.6077 YYYY=             -3.1385 ZZZZ=             -4.8655 XXXY=             -0.2917
 XXXZ=             -0.1073 YYYX=              0.2533 YYYZ=              0.1254 ZZZX=             -0.0097
 ZZZY=             -0.0329 XXYY=             -1.2631 XXZZ=             -1.6861 YYZZ=             -1.6900
 XXYZ=             -0.1916 YYXZ=              0.0782 ZZXY=             -0.0084
 N-N= 1.443940936353D+01 E-N=-2.053815471960D+02  KE= 7.615039454703D+01
 D1PCM: PCM CHGder 1st derivatives, ID1Alg=3 FixD1E=F DoIter=F DoCFld=F I1PDM=0.
 Calling FoFJK, ICntrl=      2127 FMM=F ISym2X=0 I1Cent= 0 IOpClX= 0 NMat=1 NMatS=1 NMatT=0.
 ***** Axes restored to original set *****
 -------------------------------------------------------------------
 Center     Atomic                   Forces (Hartrees/Bohr)
 Number     Number              X              Y              Z
 -------------------------------------------------------------------
      1        8          -0.020490697    0.074234611   -0.008007786
      2        1           0.027107966   -0.036661282    0.005614737
      3        1          -0.011399387   -0.003112265   -0.004879702
      4        1           0.004782118   -0.034461063    0.007272752
 -------------------------------------------------------------------
 Cartesian Forces:  Max     0.074234611 RMS     0.028183857

 GradGradGradGradGradGradGradGradGradGradGradGradGradGradGradGradGradGrad
 Berny optimization.
 Internal  Forces:  Max     0.045119478 RMS     0.023672094
 Search for a local minimum.
 Step number   1 out of a maximum of   20
 All quantities printed in internal units (Hartrees-Bohrs-Radians)
 Mixed Optimization -- RFO/linear search
 Second derivative matrix not updated -- first step.
 The second derivative matrix:
                          R1        R2        R3        A1        A2
           R1           0.60473
           R2           0.00000   0.55473
           R3           0.00000   0.00000   0.60473
           A1           0.00000   0.00000   0.00000   0.16000
           A2           0.00000   0.00000   0.00000   0.00000   0.16000
           A3           0.00000   0.00000   0.00000   0.00000   0.00000
           D1           0.00000   0.00000   0.00000   0.00000   0.00000
                          A3        D1
           A3           0.16000
           D1           0.00000   0.01848
     Eigenvalues ---    0.02703   0.16000   0.16000   0.55473   0.60473
     Eigenvalues ---    0.604731000.00000
 RFO step:  Lambda=-1.80703314D-02 EMin= 2.70302537D-02
 Linear search not attempted -- first point.
 Maximum step size (   0.300) exceeded in Quadratic search.
    -- Step size scaled by   0.973
 Iteration  1 RMS(Cart)=  0.07720603 RMS(Int)=  0.01873894
 Iteration  2 RMS(Cart)=  0.01704552 RMS(Int)=  0.00028628
 Iteration  3 RMS(Cart)=  0.00019255 RMS(Int)=  0.00008425
 Iteration  4 RMS(Cart)=  0.00000005 RMS(Int)=  0.00008425
 Variable       Old X    -DE/DX   Delta X   Delta X   Delta X     New X
                                 (Linear)    (Quad)   (Total)
    R1        1.77268   0.02346   0.00000   0.03664   0.03664   1.80932
    R2        1.81414   0.00002   0.00000   0.00004   0.00004   1.81418
    R3        1.77268   0.02089   0.00000   0.03263   0.03263   1.80531
    A1        1.77287   0.02917   0.00000   0.15927   0.15913   1.93201
    A2        2.44346  -0.04512   0.00000  -0.24651  -0.24662   2.19684
    A3        1.91986   0.00699   0.00000   0.03815   0.03803   1.95789
    D1        2.44346  -0.00003   0.00000  -0.00055  -0.00048   2.44298
         Item               Value     Threshold  Converged?
 Maximum Force            0.045119     0.000450     NO 
 RMS     Force            0.023672     0.000300     NO 
 Maximum Displacement     0.142676     0.001800     NO 
 RMS     Displacement     0.090152     0.001200     NO 
 Predicted change in Energy=-9.841582D-03
 GradGradGradGradGradGradGradGradGradGradGradGradGradGradGradGradGradGrad

                          Input orientation:                          
 ---------------------------------------------------------------------
 Center     Atomic      Atomic             Coordinates (Angstroms)
 Number     Number       Type             X           Y           Z
 ---------------------------------------------------------------------
      1          8           0       -1.412457   -0.058701   -0.014903
      2          1           0       -0.480873   -0.089608    0.203967
      3          1           0       -1.811343    0.750626    0.312997
      4          1           0       -2.018730   -0.796484    0.012706
 ---------------------------------------------------------------------
                    Distance matrix (angstroms):
                    1          2          3          4
     1  O    0.000000
     2  H    0.957449   0.000000
     3  H    0.960021   1.577349   0.000000
     4  H    0.955328   1.703308   1.589570   0.000000
 Stoichiometry    H3O(1+)
 Framework group  C1[X(H3O)]
 Deg. of freedom     6
 Full point group                 C1      NOp   1
 Largest Abelian subgroup         C1      NOp   1
 Largest concise Abelian subgroup C1      NOp   1
                         Standard orientation:                         
 ---------------------------------------------------------------------
 Center     Atomic      Atomic             Coordinates (Angstroms)
 Number     Number       Type             X           Y           Z
 ---------------------------------------------------------------------
      1          8           0       -0.002050   -0.014992   -0.050557
      2          1           0        0.834090   -0.439817    0.142058
      3          1           0        0.050052    0.928664    0.118079
      4          1           0       -0.867739   -0.368912    0.144316
 ---------------------------------------------------------------------
 Rotational constants (GHZ):    391.1794937    325.9693275    189.5123733
 Standard basis: 6-31+G(d,p) (6D, 7F)
 There are    34 symmetry adapted basis functions of A   symmetry.
 Integral buffers will be    262144 words long.
 Raffenetti 1 integral format.
 Two-electron integral symmetry is turned on.
    34 basis functions,    53 primitive gaussians,    34 cartesian basis functions
     5 alpha electrons        5 beta electrons
       nuclear repulsion energy        14.2417192866 Hartrees.
 NAtoms=    4 NActive=    4 NUniq=    4 SFac= 7.50D-01 NAtFMM=   80 NAOKFM=F Big=F
 ------------------------------------------------------------------------------
 Polarizable Continuum Model (PCM)
 =================================
 Model                : PCM.
 Atomic radii         : SMD-Coulomb.
 Polarization charges : Total charges.
 Charge compensation  : None.
 Solution method      : Matrix inversion.
 Cavity type          : VdW (van der Waals Surface) (Alpha=1.000).
 Cavity algorithm     : GePol (No added spheres)
                        Default sphere list used, NSphG=    4.
                        Lebedev-Laikov grids with approx.  5.0 points / Ang**2.
                        Smoothing algorithm: Karplus/York (Gamma=1.0000).
                        Polarization charges: spherical gaussians, with
                                              point-specific exponents (IZeta= 3).
                        Self-potential: point-specific (ISelfS= 7).
                        Self-field    : sphere-specific E.n sum rule (ISelfD= 2).
 1st derivatives      : Analytical E(r).r(x)/FMM algorithm (CHGder, D1EAlg=3).
                        Cavity 1st derivative terms included.
 Solvent              : Water, Eps=  78.355300 Eps(inf)=   1.777849
 ------------------------------------------------------------------------------
 Spheres list:
 ISph  on   Nord    Re0     Alpha      Xe            Ye            Ze
    1   O      1    1.520   1.000     -0.002050     -0.014992     -0.050557
    2   H      2    1.200   1.000      0.834090     -0.439817      0.142058
    3   H      3    1.200   1.000      0.050052      0.928664      0.118079
    4   H      4    1.200   1.000     -0.867739     -0.368912      0.144316
 ------------------------------------------------------------------------------
 ------------------------------------------------------------------------------
 Atomic radii for non-electrostatic terms: SMD-CDS.
 ------------------------------------------------------------------------------
 Nuclear repulsion after PCM non-electrostatic terms =       14.2451975875 Hartrees.
 One-electron integrals computed using PRISM.
 NBasis=    34 RedAO= T  NBF=    34
 NBsUse=    34 1.00D-06 NBFU=    34
 Initial guess read from the read-write file.
 B after Tr=     0.000000    0.000000    0.000000
         Rot=    1.000000    0.000000    0.000000    0.000000 Ang=   0.00 deg.
 Initial guess orbital symmetries:
       Occupied  (A) (A) (A) (A) (A)
       Virtual   (A) (A) (A) (A) (A) (A) (A) (A) (A) (A) (A) (A)
                 (A) (A) (A) (A) (A) (A) (A) (A) (A) (A) (A) (A)
                 (A) (A) (A) (A) (A)
 Harris functional with IExCor=  205 diagonalized for initial guess.
 ExpMin= 8.45D-02 ExpMax= 5.48D+03 ExpMxC= 8.25D+02 IAcc=2 IRadAn=         0 AccDes= 0.00D+00
 HarFok:  IExCor=  205 AccDes= 0.00D+00 IRadAn=         0 IDoV= 1
 ScaDFX=  1.000000  1.000000  1.000000  1.000000
 FoFCou: FMM=F IPFlag=           0 FMFlag=      100000 FMFlg1=           0
         NFxFlg=           0 DoJE=T BraDBF=F KetDBF=T FulRan=T
         Omega=  0.000000  0.000000  1.000000  0.000000  0.000000 ICntrl=     500 IOpCl=  0
         NMat0=    1 NMatS0=    1 NMatT0=    0 NMatD0=    1 NMtDS0=    0 NMtDT0=    0
         I1Cent=           4 NGrid=           0.
 Petite list used in FoFCou.
 Requested convergence on RMS density matrix=1.00D-08 within 128 cycles.
 Requested convergence on MAX density matrix=1.00D-06.
 Requested convergence on             energy=1.00D-06.
 No special actions if energy rises.
 Keep R1 ints in memory in canonical form, NReq=3145832.
 Error on total polarization charges =  0.00706
 SCF Done:  E(RHF) =  -76.4606232849     A.U. after    9 cycles
             Convg  =    0.6490D-08             -V/T =  2.0050
 SMD-CDS (non-electrostatic) energy             (kcal/mol) =       2.18
 (included in total energy above)
 D1PCM: PCM CHGder 1st derivatives, ID1Alg=3 FixD1E=F DoIter=F DoCFld=F I1PDM=0.
 Calling FoFJK, ICntrl=      2127 FMM=F ISym2X=0 I1Cent= 0 IOpClX= 0 NMat=1 NMatS=1 NMatT=0.
 ***** Axes restored to original set *****
 -------------------------------------------------------------------
 Center     Atomic                   Forces (Hartrees/Bohr)
 Number     Number              X              Y              Z
 -------------------------------------------------------------------
      1        8          -0.009181354    0.029870388   -0.007289880
      2        1          -0.002833956   -0.017037406    0.002642616
      3        1           0.000440731   -0.003453743   -0.001028059
      4        1           0.011574579   -0.009379239    0.005675324
 -------------------------------------------------------------------
 Cartesian Forces:  Max     0.029870388 RMS     0.011555292

 GradGradGradGradGradGradGradGradGradGradGradGradGradGradGradGradGradGrad
 Berny optimization.
 Using GEDIIS/GDIIS optimizer.
 Internal  Forces:  Max     0.023185711 RMS     0.010136380
 Search for a local minimum.
 Step number   2 out of a maximum of   20
 All quantities printed in internal units (Hartrees-Bohrs-Radians)
 Mixed Optimization -- RFO/linear search
 Update second derivatives using D2CorX and points    1    2
 DE= -1.24D-02 DEPred=-9.84D-03 R= 1.26D+00
 SS=  1.41D+00  RLast= 3.00D-01 DXNew= 5.0454D-01 9.0000D-01
 Trust test= 1.26D+00 RLast= 3.00D-01 DXMaxT set to 5.05D-01
 The second derivative matrix:
                          R1        R2        R3        A1        A2
           R1           0.63535
           R2           0.00864   0.55594
           R3           0.02370   0.00720   0.62287
           A1           0.01056   0.00651   0.00672   0.15356
           A2           0.00187  -0.00755   0.00479   0.02373   0.10725
           A3          -0.00636   0.00032  -0.00580  -0.00824   0.01345
           D1           0.01232   0.00171   0.01027   0.00930  -0.01081
                          A3        D1
           A3           0.15770
           D1           0.00047   0.02091
 Use linear search instead of GDIIS.
     Eigenvalues ---    0.03207   0.09688   0.16408   0.55486   0.60462
     Eigenvalues ---    0.655841000.00000
 RFO step:  Lambda=-4.60431307D-03 EMin= 3.20743644D-02
 Quartic linear search produced a step of  0.88304.
 Iteration  1 RMS(Cart)=  0.08157771 RMS(Int)=  0.06105115
 Iteration  2 RMS(Cart)=  0.05359662 RMS(Int)=  0.01534993
 Iteration  3 RMS(Cart)=  0.00237012 RMS(Int)=  0.01503849
 Iteration  4 RMS(Cart)=  0.00006014 RMS(Int)=  0.01503832
 Iteration  5 RMS(Cart)=  0.00000225 RMS(Int)=  0.01503832
 Iteration  6 RMS(Cart)=  0.00000009 RMS(Int)=  0.01503832
 Variable       Old X    -DE/DX   Delta X   Delta X   Delta X     New X
                                 (Linear)    (Quad)   (Total)
    R1        1.80932  -0.00157   0.03235  -0.02945   0.00291   1.81222
    R2        1.81418  -0.00346   0.00003  -0.01159  -0.01156   1.80262
    R3        1.80531   0.00004   0.02882  -0.02183   0.00698   1.81229
    A1        1.93201   0.01030   0.14052  -0.03137   0.08249   2.01450
    A2        2.19684  -0.02319  -0.21778  -0.13243  -0.36589   1.83095
    A3        1.95789   0.00605   0.03358   0.00806   0.02777   1.98567
    D1        2.44298  -0.00497  -0.00043  -0.24577  -0.22536   2.21762
         Item               Value     Threshold  Converged?
 Maximum Force            0.023186     0.000450     NO 
 RMS     Force            0.010136     0.000300     NO 
 Maximum Displacement     0.191095     0.001800     NO 
 RMS     Displacement     0.133377     0.001200     NO 
 Predicted change in Energy=-4.313628D-03
 GradGradGradGradGradGradGradGradGradGradGradGradGradGradGradGradGradGrad

                          Input orientation:                          
 ---------------------------------------------------------------------
 Center     Atomic      Atomic             Coordinates (Angstroms)
 Number     Number       Type             X           Y           Z
 ---------------------------------------------------------------------
      1          8           0       -1.429804    0.014822   -0.078828
      2          1           0       -0.538566   -0.182221    0.215324
      3          1           0       -1.837427    0.774248    0.329889
      4          1           0       -1.917607   -0.801016    0.048383
 ---------------------------------------------------------------------
                    Distance matrix (angstroms):
                    1          2          3          4
     1  O    0.000000
     2  H    0.958987   0.000000
     3  H    0.953905   1.617096   0.000000
     4  H    0.959024   1.520700   1.602227   0.000000
 Stoichiometry    H3O(1+)
 Framework group  C1[X(H3O)]
 Deg. of freedom     6
 Full point group                 C1      NOp   1
 Largest Abelian subgroup         C1      NOp   1
 Largest concise Abelian subgroup C1      NOp   1
                         Standard orientation:                         
 ---------------------------------------------------------------------
 Center     Atomic      Atomic             Coordinates (Angstroms)
 Number     Number       Type             X           Y           Z
 ---------------------------------------------------------------------
      1          8           0        0.011239   -0.002581   -0.078055
      2          1           0       -0.559386   -0.720748    0.201730
      3          1           0        0.913729   -0.054178    0.226552
      4          1           0       -0.444257    0.795577    0.196157
 ---------------------------------------------------------------------
 Rotational constants (GHZ):    368.0087960    322.6955625    200.4038806
 Standard basis: 6-31+G(d,p) (6D, 7F)
 There are    34 symmetry adapted basis functions of A   symmetry.
 Integral buffers will be    262144 words long.
 Raffenetti 1 integral format.
 Two-electron integral symmetry is turned on.
    34 basis functions,    53 primitive gaussians,    34 cartesian basis functions
     5 alpha electrons        5 beta electrons
       nuclear repulsion energy        14.2722529342 Hartrees.
 NAtoms=    4 NActive=    4 NUniq=    4 SFac= 7.50D-01 NAtFMM=   80 NAOKFM=F Big=F
 ------------------------------------------------------------------------------
 Polarizable Continuum Model (PCM)
 =================================
 Model                : PCM.
 Atomic radii         : SMD-Coulomb.
 Polarization charges : Total charges.
 Charge compensation  : None.
 Solution method      : Matrix inversion.
 Cavity type          : VdW (van der Waals Surface) (Alpha=1.000).
 Cavity algorithm     : GePol (No added spheres)
                        Default sphere list used, NSphG=    4.
                        Lebedev-Laikov grids with approx.  5.0 points / Ang**2.
                        Smoothing algorithm: Karplus/York (Gamma=1.0000).
                        Polarization charges: spherical gaussians, with
                                              point-specific exponents (IZeta= 3).
                        Self-potential: point-specific (ISelfS= 7).
                        Self-field    : sphere-specific E.n sum rule (ISelfD= 2).
 1st derivatives      : Analytical E(r).r(x)/FMM algorithm (CHGder, D1EAlg=3).
                        Cavity 1st derivative terms included.
 Solvent              : Water, Eps=  78.355300 Eps(inf)=   1.777849
 ------------------------------------------------------------------------------
 Spheres list:
 ISph  on   Nord    Re0     Alpha      Xe            Ye            Ze
    1   O      1    1.520   1.000      0.011239     -0.002581     -0.078055
    2   H      2    1.200   1.000     -0.559386     -0.720748      0.201730
    3   H      3    1.200   1.000      0.913729     -0.054178      0.226552
    4   H      4    1.200   1.000     -0.444257      0.795577      0.196157
 ------------------------------------------------------------------------------
 ------------------------------------------------------------------------------
 Atomic radii for non-electrostatic terms: SMD-CDS.
 ------------------------------------------------------------------------------
 Nuclear repulsion after PCM non-electrostatic terms =       14.2757025948 Hartrees.
 One-electron integrals computed using PRISM.
 NBasis=    34 RedAO= T  NBF=    34
 NBsUse=    34 1.00D-06 NBFU=    34
 Initial guess read from the read-write file.
 B after Tr=     0.000000    0.000000    0.000000
         Rot=    1.000000    0.000000    0.000000    0.000000 Ang=   0.00 deg.
 Initial guess orbital symmetries:
       Occupied  (A) (A) (A) (A) (A)
       Virtual   (A) (A) (A) (A) (A) (A) (A) (A) (A) (A) (A) (A)
                 (A) (A) (A) (A) (A) (A) (A) (A) (A) (A) (A) (A)
                 (A) (A) (A) (A) (A)
 Harris functional with IExCor=  205 diagonalized for initial guess.
 ExpMin= 8.45D-02 ExpMax= 5.48D+03 ExpMxC= 8.25D+02 IAcc=2 IRadAn=         0 AccDes= 0.00D+00
 HarFok:  IExCor=  205 AccDes= 0.00D+00 IRadAn=         0 IDoV= 1
 ScaDFX=  1.000000  1.000000  1.000000  1.000000
 FoFCou: FMM=F IPFlag=           0 FMFlag=      100000 FMFlg1=           0
         NFxFlg=           0 DoJE=T BraDBF=F KetDBF=T FulRan=T
         Omega=  0.000000  0.000000  1.000000  0.000000  0.000000 ICntrl=     500 IOpCl=  0
         NMat0=    1 NMatS0=    1 NMatT0=    0 NMatD0=    1 NMtDS0=    0 NMtDT0=    0
         I1Cent=           4 NGrid=           0.
 Petite list used in FoFCou.
 Requested convergence on RMS density matrix=1.00D-08 within 128 cycles.
 Requested convergence on MAX density matrix=1.00D-06.
 Requested convergence on             energy=1.00D-06.
 No special actions if energy rises.
 Keep R1 ints in memory in canonical form, NReq=3147257.
 Error on total polarization charges =  0.00699
 SCF Done:  E(RHF) =  -76.4637701266     A.U. after   10 cycles
             Convg  =    0.6688D-08             -V/T =  2.0048
 SMD-CDS (non-electrostatic) energy             (kcal/mol) =       2.16
 (included in total energy above)
 D1PCM: PCM CHGder 1st derivatives, ID1Alg=3 FixD1E=F DoIter=F DoCFld=F I1PDM=0.
 Calling FoFJK, ICntrl=      2127 FMM=F ISym2X=0 I1Cent= 0 IOpClX= 0 NMat=1 NMatS=1 NMatT=0.
 ***** Axes restored to original set *****
 -------------------------------------------------------------------
 Center     Atomic                   Forces (Hartrees/Bohr)
 Number     Number              X              Y              Z
 -------------------------------------------------------------------
      1        8           0.007107042   -0.018907166   -0.009003751
      2        1           0.002590151    0.012430288    0.002574113
      3        1           0.000247278    0.001404134    0.006860326
      4        1          -0.009944470    0.005072744   -0.000430688
 -------------------------------------------------------------------
 Cartesian Forces:  Max     0.018907166 RMS     0.008320722

 GradGradGradGradGradGradGradGradGradGradGradGradGradGradGradGradGradGrad
 Berny optimization.
 Using GEDIIS/GDIIS optimizer.
 Internal  Forces:  Max     0.016324311 RMS     0.007575832
 Search for a local minimum.
 Step number   3 out of a maximum of   20
 All quantities printed in internal units (Hartrees-Bohrs-Radians)
 Mixed Optimization -- RFO/linear search
 Update second derivatives using D2CorX and points    2    3
 DE= -3.15D-03 DEPred=-4.31D-03 R= 7.30D-01
 SS=  1.41D+00  RLast= 4.39D-01 DXNew= 8.4853D-01 1.3160D+00
 Trust test= 7.30D-01 RLast= 4.39D-01 DXMaxT set to 8.49D-01
 The second derivative matrix:
                          R1        R2        R3        A1        A2
           R1           0.63558
           R2           0.00937   0.55824
           R3           0.02384   0.00768   0.62287
           A1           0.00824  -0.00119   0.00588   0.17393
           A2           0.00470   0.00041   0.00816  -0.01533   0.10646
           A3          -0.00808  -0.00551  -0.00622   0.00572  -0.01947
           D1           0.01262   0.00273   0.01035   0.00680  -0.00525
                          A3        D1
           A3           0.16676
           D1          -0.00118   0.02121
 Use linear search instead of GDIIS.
     Eigenvalues ---    0.04717   0.14589   0.16648   0.55675   0.60458
     Eigenvalues ---    0.656411000.00000
 RFO step:  Lambda=-4.78486207D-04 EMin= 4.71706672D-02
 Quartic linear search produced a step of -0.29805.
 Iteration  1 RMS(Cart)=  0.04034070 RMS(Int)=  0.00490081
 Iteration  2 RMS(Cart)=  0.00110139 RMS(Int)=  0.00463873
 Iteration  3 RMS(Cart)=  0.00000631 RMS(Int)=  0.00463873
 Iteration  4 RMS(Cart)=  0.00000007 RMS(Int)=  0.00463873
 Variable       Old X    -DE/DX   Delta X   Delta X   Delta X     New X
                                 (Linear)    (Quad)   (Total)
    R1        1.81222   0.00064  -0.00087   0.00153   0.00066   1.81288
    R2        1.80262   0.00393   0.00344   0.00292   0.00637   1.80898
    R3        1.81229   0.00071  -0.00208   0.00226   0.00018   1.81247
    A1        2.01450  -0.00837  -0.02459  -0.03384  -0.05025   1.96425
    A2        1.83095   0.01632   0.10905  -0.01538   0.09848   1.92943
    A3        1.98567  -0.00644  -0.00828  -0.02865  -0.03222   1.95345
    D1        2.21762  -0.00271   0.06717  -0.07398  -0.01301   2.20461
         Item               Value     Threshold  Converged?
 Maximum Force            0.016324     0.000450     NO 
 RMS     Force            0.007576     0.000300     NO 
 Maximum Displacement     0.062211     0.001800     NO 
 RMS     Displacement     0.040043     0.001200     NO 
 Predicted change in Energy=-1.301555D-03
 GradGradGradGradGradGradGradGradGradGradGradGradGradGradGradGradGradGrad

                          Input orientation:                          
 ---------------------------------------------------------------------
 Center     Atomic      Atomic             Coordinates (Angstroms)
 Number     Number       Type             X           Y           Z
 ---------------------------------------------------------------------
      1          8           0       -1.423300   -0.005605   -0.079048
      2          1           0       -0.523034   -0.150907    0.218833
      3          1           0       -1.826543    0.759660    0.330998
      4          1           0       -1.950527   -0.797315    0.043984
 ---------------------------------------------------------------------
                    Distance matrix (angstroms):
                    1          2          3          4
     1  O    0.000000
     2  H    0.959336   0.000000
     3  H    0.957273   1.594004   0.000000
     4  H    0.959120   1.576754   1.588055   0.000000
 Stoichiometry    H3O(1+)
 Framework group  C1[X(H3O)]
 Deg. of freedom     6
 Full point group                 C1      NOp   1
 Largest Abelian subgroup         C1      NOp   1
 Largest concise Abelian subgroup C1      NOp   1
                         Standard orientation:                         
 ---------------------------------------------------------------------
 Center     Atomic      Atomic             Coordinates (Angstroms)
 Number     Number       Type             X           Y           Z
 ---------------------------------------------------------------------
      1          8           0        0.002019   -0.000960   -0.077155
      2          1           0       -0.596272   -0.695832    0.204848
      3          1           0        0.902615   -0.153461    0.209276
      4          1           0       -0.322500    0.856972    0.203114
 ---------------------------------------------------------------------
 Rotational constants (GHZ):    347.2456306    339.6790941    199.2702798
 Standard basis: 6-31+G(d,p) (6D, 7F)
 There are    34 symmetry adapted basis functions of A   symmetry.
 Integral buffers will be    262144 words long.
 Raffenetti 1 integral format.
 Two-electron integral symmetry is turned on.
    34 basis functions,    53 primitive gaussians,    34 cartesian basis functions
     5 alpha electrons        5 beta electrons
       nuclear repulsion energy        14.2499065743 Hartrees.
 NAtoms=    4 NActive=    4 NUniq=    4 SFac= 7.50D-01 NAtFMM=   80 NAOKFM=F Big=F
 ------------------------------------------------------------------------------
 Polarizable Continuum Model (PCM)
 =================================
 Model                : PCM.
 Atomic radii         : SMD-Coulomb.
 Polarization charges : Total charges.
 Charge compensation  : None.
 Solution method      : Matrix inversion.
 Cavity type          : VdW (van der Waals Surface) (Alpha=1.000).
 Cavity algorithm     : GePol (No added spheres)
                        Default sphere list used, NSphG=    4.
                        Lebedev-Laikov grids with approx.  5.0 points / Ang**2.
                        Smoothing algorithm: Karplus/York (Gamma=1.0000).
                        Polarization charges: spherical gaussians, with
                                              point-specific exponents (IZeta= 3).
                        Self-potential: point-specific (ISelfS= 7).
                        Self-field    : sphere-specific E.n sum rule (ISelfD= 2).
 1st derivatives      : Analytical E(r).r(x)/FMM algorithm (CHGder, D1EAlg=3).
                        Cavity 1st derivative terms included.
 Solvent              : Water, Eps=  78.355300 Eps(inf)=   1.777849
 ------------------------------------------------------------------------------
 Spheres list:
 ISph  on   Nord    Re0     Alpha      Xe            Ye            Ze
    1   O      1    1.520   1.000      0.002019     -0.000960     -0.077155
    2   H      2    1.200   1.000     -0.596272     -0.695832      0.204848
    3   H      3    1.200   1.000      0.902615     -0.153461      0.209276
    4   H      4    1.200   1.000     -0.322500      0.856972      0.203114
 ------------------------------------------------------------------------------
 ------------------------------------------------------------------------------
 Atomic radii for non-electrostatic terms: SMD-CDS.
 ------------------------------------------------------------------------------
 Nuclear repulsion after PCM non-electrostatic terms =       14.2533687526 Hartrees.
 One-electron integrals computed using PRISM.
 NBasis=    34 RedAO= T  NBF=    34
 NBsUse=    34 1.00D-06 NBFU=    34
 Initial guess read from the read-write file.
 B after Tr=     0.000000    0.000000    0.000000
         Rot=    1.000000    0.000000    0.000000    0.000000 Ang=   0.00 deg.
 Initial guess orbital symmetries:
       Occupied  (A) (A) (A) (A) (A)
       Virtual   (A) (A) (A) (A) (A) (A) (A) (A) (A) (A) (A) (A)
                 (A) (A) (A) (A) (A) (A) (A) (A) (A) (A) (A) (A)
                 (A) (A) (A) (A) (A)
 Harris functional with IExCor=  205 diagonalized for initial guess.
 ExpMin= 8.45D-02 ExpMax= 5.48D+03 ExpMxC= 8.25D+02 IAcc=2 IRadAn=         0 AccDes= 0.00D+00
 HarFok:  IExCor=  205 AccDes= 0.00D+00 IRadAn=         0 IDoV= 1
 ScaDFX=  1.000000  1.000000  1.000000  1.000000
 FoFCou: FMM=F IPFlag=           0 FMFlag=      100000 FMFlg1=           0
         NFxFlg=           0 DoJE=T BraDBF=F KetDBF=T FulRan=T
         Omega=  0.000000  0.000000  1.000000  0.000000  0.000000 ICntrl=     500 IOpCl=  0
         NMat0=    1 NMatS0=    1 NMatT0=    0 NMatD0=    1 NMtDS0=    0 NMtDT0=    0
         I1Cent=           4 NGrid=           0.
 Petite list used in FoFCou.
 Requested convergence on RMS density matrix=1.00D-08 within 128 cycles.
 Requested convergence on MAX density matrix=1.00D-06.
 Requested convergence on             energy=1.00D-06.
 No special actions if energy rises.
 Keep R1 ints in memory in canonical form, NReq=3150855.
 Error on total polarization charges =  0.00702
 SCF Done:  E(RHF) =  -76.4650368552     A.U. after    9 cycles
             Convg  =    0.1923D-08             -V/T =  2.0050
 SMD-CDS (non-electrostatic) energy             (kcal/mol) =       2.17
 (included in total energy above)
 D1PCM: PCM CHGder 1st derivatives, ID1Alg=3 FixD1E=F DoIter=F DoCFld=F I1PDM=0.
 Calling FoFJK, ICntrl=      2127 FMM=F ISym2X=0 I1Cent= 0 IOpClX= 0 NMat=1 NMatS=1 NMatT=0.
 ***** Axes restored to original set *****
 -------------------------------------------------------------------
 Center     Atomic                   Forces (Hartrees/Bohr)
 Number     Number              X              Y              Z
 -------------------------------------------------------------------
      1        8           0.001223110   -0.004506688   -0.005150313
      2        1          -0.001112347    0.002341134    0.001593107
      3        1           0.000443362    0.000417168    0.002306468
      4        1          -0.000554124    0.001748387    0.001250739
 -------------------------------------------------------------------
 Cartesian Forces:  Max     0.005150313 RMS     0.002384093

 GradGradGradGradGradGradGradGradGradGradGradGradGradGradGradGradGradGrad
 Berny optimization.
 Using GEDIIS/GDIIS optimizer.
 Internal  Forces:  Max     0.002572113 RMS     0.001641742
 Search for a local minimum.
 Step number   4 out of a maximum of   20
 All quantities printed in internal units (Hartrees-Bohrs-Radians)
 Mixed Optimization -- RFO/linear search
 Update second derivatives using D2CorX and points    2    3    4
 DE= -1.27D-03 DEPred=-1.30D-03 R= 9.73D-01
 SS=  1.41D+00  RLast= 1.16D-01 DXNew= 1.4270D+00 3.4820D-01
 Trust test= 9.73D-01 RLast= 1.16D-01 DXMaxT set to 8.49D-01
 The second derivative matrix:
                          R1        R2        R3        A1        A2
           R1           0.63654
           R2           0.01065   0.55422
           R3           0.02511   0.00885   0.62455
           A1           0.00537   0.01190   0.00359   0.13242
           A2           0.01173  -0.00033   0.01642  -0.00643   0.14137
           A3          -0.01041   0.00373  -0.00822  -0.02383  -0.01458
           D1           0.01227   0.00529   0.01011  -0.00111  -0.00204
                          A3        D1
           A3           0.14580
           D1          -0.00682   0.01986
 Use linear search instead of GDIIS.
     Eigenvalues ---    0.03733   0.14418   0.16469   0.55265   0.60479
     Eigenvalues ---    0.659811000.00000
 RFO step:  Lambda=-2.42340242D-04 EMin= 3.73311296D-02
 Quartic linear search produced a step of  0.21949.
 Iteration  1 RMS(Cart)=  0.01844175 RMS(Int)=  0.00063050
 Iteration  2 RMS(Cart)=  0.00044645 RMS(Int)=  0.00039019
 Iteration  3 RMS(Cart)=  0.00000021 RMS(Int)=  0.00039019
 Variable       Old X    -DE/DX   Delta X   Delta X   Delta X     New X
                                 (Linear)    (Quad)   (Total)
    R1        1.81288  -0.00092   0.00014  -0.00044  -0.00030   1.81258
    R2        1.80898   0.00121   0.00140   0.00257   0.00397   1.81295
    R3        1.81247  -0.00104   0.00004  -0.00082  -0.00078   1.81169
    A1        1.96425  -0.00194  -0.01103  -0.02685  -0.03857   1.92567
    A2        1.92943   0.00157   0.02162  -0.01992   0.00133   1.93076
    A3        1.95345  -0.00161  -0.00707  -0.02254  -0.02998   1.92347
    D1        2.20461  -0.00257  -0.00285  -0.06802  -0.07032   2.13429
         Item               Value     Threshold  Converged?
 Maximum Force            0.002572     0.000450     NO 
 RMS     Force            0.001642     0.000300     NO 
 Maximum Displacement     0.032506     0.001800     NO 
 RMS     Displacement     0.018622     0.001200     NO 
 Predicted change in Energy=-1.412831D-04
 GradGradGradGradGradGradGradGradGradGradGradGradGradGradGradGradGradGrad

                          Input orientation:                          
 ---------------------------------------------------------------------
 Center     Atomic      Atomic             Coordinates (Angstroms)
 Number     Number       Type             X           Y           Z
 ---------------------------------------------------------------------
      1          8           0       -1.421193   -0.008409   -0.096250
      2          1           0       -0.527593   -0.143142    0.225227
      3          1           0       -1.820383    0.749205    0.336259
      4          1           0       -1.954234   -0.791821    0.049530
 ---------------------------------------------------------------------
                    Distance matrix (angstroms):
                    1          2          3          4
     1  O    0.000000
     2  H    0.959177   0.000000
     3  H    0.959372   1.574775   0.000000
     4  H    0.958707   1.577009   1.573179   0.000000
 Stoichiometry    H3O(1+)
 Framework group  C1[X(H3O)]
 Deg. of freedom     6
 Full point group                 C1      NOp   1
 Largest Abelian subgroup         C1      NOp   1
 Largest concise Abelian subgroup C1      NOp   1
                         Standard orientation:                         
 ---------------------------------------------------------------------
 Center     Atomic      Atomic             Coordinates (Angstroms)
 Number     Number       Type             X           Y           Z
 ---------------------------------------------------------------------
      1          8           0        0.000180   -0.000452   -0.083161
      2          1           0        0.866840   -0.275415    0.222316
      3          1           0       -0.193899    0.888521    0.220904
      4          1           0       -0.674378   -0.609488    0.222071
 ---------------------------------------------------------------------
 Rotational constants (GHZ):    340.8026472    339.1904053    202.1511319
 Standard basis: 6-31+G(d,p) (6D, 7F)
 There are    34 symmetry adapted basis functions of A   symmetry.
 Integral buffers will be    262144 words long.
 Raffenetti 1 integral format.
 Two-electron integral symmetry is turned on.
    34 basis functions,    53 primitive gaussians,    34 cartesian basis functions
     5 alpha electrons        5 beta electrons
       nuclear repulsion energy        14.2500124456 Hartrees.
 NAtoms=    4 NActive=    4 NUniq=    4 SFac= 7.50D-01 NAtFMM=   80 NAOKFM=F Big=F
 ------------------------------------------------------------------------------
 Polarizable Continuum Model (PCM)
 =================================
 Model                : PCM.
 Atomic radii         : SMD-Coulomb.
 Polarization charges : Total charges.
 Charge compensation  : None.
 Solution method      : Matrix inversion.
 Cavity type          : VdW (van der Waals Surface) (Alpha=1.000).
 Cavity algorithm     : GePol (No added spheres)
                        Default sphere list used, NSphG=    4.
                        Lebedev-Laikov grids with approx.  5.0 points / Ang**2.
                        Smoothing algorithm: Karplus/York (Gamma=1.0000).
                        Polarization charges: spherical gaussians, with
                                              point-specific exponents (IZeta= 3).
                        Self-potential: point-specific (ISelfS= 7).
                        Self-field    : sphere-specific E.n sum rule (ISelfD= 2).
 1st derivatives      : Analytical E(r).r(x)/FMM algorithm (CHGder, D1EAlg=3).
                        Cavity 1st derivative terms included.
 Solvent              : Water, Eps=  78.355300 Eps(inf)=   1.777849
 ------------------------------------------------------------------------------
 Spheres list:
 ISph  on   Nord    Re0     Alpha      Xe            Ye            Ze
    1   O      1    1.520   1.000      0.000180     -0.000452     -0.083161
    2   H      2    1.200   1.000      0.866840     -0.275415      0.222316
    3   H      3    1.200   1.000     -0.193899      0.888521      0.220904
    4   H      4    1.200   1.000     -0.674378     -0.609488      0.222071
 ------------------------------------------------------------------------------
 ------------------------------------------------------------------------------
 Atomic radii for non-electrostatic terms: SMD-CDS.
 ------------------------------------------------------------------------------
 Nuclear repulsion after PCM non-electrostatic terms =       14.2534497926 Hartrees.
 One-electron integrals computed using PRISM.
 NBasis=    34 RedAO= T  NBF=    34
 NBsUse=    34 1.00D-06 NBFU=    34
 Initial guess read from the read-write file.
 B after Tr=     0.000000    0.000000    0.000000
         Rot=    1.000000    0.000000    0.000000    0.000000 Ang=   0.00 deg.
 Initial guess orbital symmetries:
       Occupied  (A) (A) (A) (A) (A)
       Virtual   (A) (A) (A) (A) (A) (A) (A) (A) (A) (A) (A) (A)
                 (A) (A) (A) (A) (A) (A) (A) (A) (A) (A) (A) (A)
                 (A) (A) (A) (A) (A)
 Harris functional with IExCor=  205 diagonalized for initial guess.
 ExpMin= 8.45D-02 ExpMax= 5.48D+03 ExpMxC= 8.25D+02 IAcc=2 IRadAn=         0 AccDes= 0.00D+00
 HarFok:  IExCor=  205 AccDes= 0.00D+00 IRadAn=         0 IDoV= 1
 ScaDFX=  1.000000  1.000000  1.000000  1.000000
 FoFCou: FMM=F IPFlag=           0 FMFlag=      100000 FMFlg1=           0
         NFxFlg=           0 DoJE=T BraDBF=F KetDBF=T FulRan=T
         Omega=  0.000000  0.000000  1.000000  0.000000  0.000000 ICntrl=     500 IOpCl=  0
         NMat0=    1 NMatS0=    1 NMatT0=    0 NMatD0=    1 NMtDS0=    0 NMtDT0=    0
         I1Cent=           4 NGrid=           0.
 Petite list used in FoFCou.
 Requested convergence on RMS density matrix=1.00D-08 within 128 cycles.
 Requested convergence on MAX density matrix=1.00D-06.
 Requested convergence on             energy=1.00D-06.
 No special actions if energy rises.
 Keep R1 ints in memory in canonical form, NReq=3149410.
 Error on total polarization charges =  0.00706
 SCF Done:  E(RHF) =  -76.4652279819     A.U. after   10 cycles
             Convg  =    0.6714D-08             -V/T =  2.0049
 SMD-CDS (non-electrostatic) energy             (kcal/mol) =       2.16
 (included in total energy above)
 D1PCM: PCM CHGder 1st derivatives, ID1Alg=3 FixD1E=F DoIter=F DoCFld=F I1PDM=0.
 Calling FoFJK, ICntrl=      2127 FMM=F ISym2X=0 I1Cent= 0 IOpClX= 0 NMat=1 NMatS=1 NMatT=0.
 ***** Axes restored to original set *****
 -------------------------------------------------------------------
 Center     Atomic                   Forces (Hartrees/Bohr)
 Number     Number              X              Y              Z
 -------------------------------------------------------------------
      1        8           0.000421173    0.000819015   -0.000655473
      2        1          -0.000483124   -0.000155311    0.000406573
      3        1          -0.000031170    0.000073461   -0.000198949
      4        1           0.000093121   -0.000737165    0.000447849
 -------------------------------------------------------------------
 Cartesian Forces:  Max     0.000819015 RMS     0.000456367

 GradGradGradGradGradGradGradGradGradGradGradGradGradGradGradGradGradGrad
 Berny optimization.
 Using GEDIIS/GDIIS optimizer.
 Internal  Forces:  Max     0.000683826 RMS     0.000389602
 Search for a local minimum.
 Step number   5 out of a maximum of   20
 All quantities printed in internal units (Hartrees-Bohrs-Radians)
 Mixed Optimization -- En-DIIS/RFO-DIIS
 Update second derivatives using D2CorX and points    2    3    4    5
 DE= -1.91D-04 DEPred=-1.41D-04 R= 1.35D+00
 SS=  1.41D+00  RLast= 8.57D-02 DXNew= 1.4270D+00 2.5720D-01
 Trust test= 1.35D+00 RLast= 8.57D-02 DXMaxT set to 8.49D-01
 The second derivative matrix:
                          R1        R2        R3        A1        A2
           R1           0.63545
           R2           0.01159   0.55413
           R3           0.02532   0.00598   0.62937
           A1          -0.00041   0.01973   0.00428   0.09388
           A2           0.00826   0.00306   0.00547  -0.00589   0.11919
           A3          -0.01421   0.00798  -0.00647  -0.04924  -0.01703
           D1           0.01219   0.00066   0.01698  -0.00110  -0.01929
                          A3        D1
           A3           0.12969
           D1          -0.00387   0.03357
 Use linear search instead of GDIIS.
     Eigenvalues ---    0.02958   0.11846   0.16369   0.55275   0.60718
     Eigenvalues ---    0.660601000.00000
 RFO step:  Lambda=-8.64233347D-06 EMin= 2.95829417D-02
 Quartic linear search produced a step of  0.03678.
 Iteration  1 RMS(Cart)=  0.00347974 RMS(Int)=  0.00004200
 Iteration  2 RMS(Cart)=  0.00001666 RMS(Int)=  0.00003837
 Iteration  3 RMS(Cart)=  0.00000000 RMS(Int)=  0.00003837
 Variable       Old X    -DE/DX   Delta X   Delta X   Delta X     New X
                                 (Linear)    (Quad)   (Total)
    R1        1.81258  -0.00035  -0.00001  -0.00033  -0.00034   1.81224
    R2        1.81295   0.00007   0.00015   0.00013   0.00028   1.81323
    R3        1.81169   0.00059  -0.00003   0.00133   0.00130   1.81299
    A1        1.92567   0.00006  -0.00142  -0.00101  -0.00250   1.92318
    A2        1.93076  -0.00068   0.00005  -0.00857  -0.00855   1.92221
    A3        1.92347   0.00009  -0.00110  -0.00096  -0.00210   1.92137
    D1        2.13429  -0.00033  -0.00259  -0.00770  -0.01023   2.12406
         Item               Value     Threshold  Converged?
 Maximum Force            0.000684     0.000450     NO 
 RMS     Force            0.000390     0.000300     NO 
 Maximum Displacement     0.005524     0.001800     NO 
 RMS     Displacement     0.003489     0.001200     NO 
 Predicted change in Energy=-5.278614D-06
 GradGradGradGradGradGradGradGradGradGradGradGradGradGradGradGradGradGrad

                          Input orientation:                          
 ---------------------------------------------------------------------
 Center     Atomic      Atomic             Coordinates (Angstroms)
 Number     Number       Type             X           Y           Z
 ---------------------------------------------------------------------
      1          8           0       -1.421337   -0.006921   -0.099173
      2          1           0       -0.529711   -0.144402    0.226056
      3          1           0       -1.820091    0.748968    0.337068
      4          1           0       -1.952265   -0.791812    0.050815
 ---------------------------------------------------------------------
                    Distance matrix (angstroms):
                    1          2          3          4
     1  O    0.000000
     2  H    0.958995   0.000000
     3  H    0.959521   1.573377   0.000000
     4  H    0.959394   1.572740   1.572710   0.000000
 Stoichiometry    H3O(1+)
 Framework group  C1[X(H3O)]
 Deg. of freedom     6
 Full point group                 C1      NOp   1
 Largest Abelian subgroup         C1      NOp   1
 Largest concise Abelian subgroup C1      NOp   1
                         Standard orientation:                         
 ---------------------------------------------------------------------
 Center     Atomic      Atomic             Coordinates (Angstroms)
 Number     Number       Type             X           Y           Z
 ---------------------------------------------------------------------
      1          8           0       -0.000111   -0.000112   -0.084302
      2          1           0       -0.795429   -0.437631    0.225078
      3          1           0        0.777625   -0.469475    0.224737
      4          1           0        0.018690    0.907999    0.224598
 ---------------------------------------------------------------------
 Rotational constants (GHZ):    339.4035050    339.0894095    202.6778677
 Standard basis: 6-31+G(d,p) (6D, 7F)
 There are    34 symmetry adapted basis functions of A   symmetry.
 Integral buffers will be    262144 words long.
 Raffenetti 1 integral format.
 Two-electron integral symmetry is turned on.
    34 basis functions,    53 primitive gaussians,    34 cartesian basis functions
     5 alpha electrons        5 beta electrons
       nuclear repulsion energy        14.2483170669 Hartrees.
 NAtoms=    4 NActive=    4 NUniq=    4 SFac= 7.50D-01 NAtFMM=   80 NAOKFM=F Big=F
 ------------------------------------------------------------------------------
 Polarizable Continuum Model (PCM)
 =================================
 Model                : PCM.
 Atomic radii         : SMD-Coulomb.
 Polarization charges : Total charges.
 Charge compensation  : None.
 Solution method      : Matrix inversion.
 Cavity type          : VdW (van der Waals Surface) (Alpha=1.000).
 Cavity algorithm     : GePol (No added spheres)
                        Default sphere list used, NSphG=    4.
                        Lebedev-Laikov grids with approx.  5.0 points / Ang**2.
                        Smoothing algorithm: Karplus/York (Gamma=1.0000).
                        Polarization charges: spherical gaussians, with
                                              point-specific exponents (IZeta= 3).
                        Self-potential: point-specific (ISelfS= 7).
                        Self-field    : sphere-specific E.n sum rule (ISelfD= 2).
 1st derivatives      : Analytical E(r).r(x)/FMM algorithm (CHGder, D1EAlg=3).
                        Cavity 1st derivative terms included.
 Solvent              : Water, Eps=  78.355300 Eps(inf)=   1.777849
 ------------------------------------------------------------------------------
 Spheres list:
 ISph  on   Nord    Re0     Alpha      Xe            Ye            Ze
    1   O      1    1.520   1.000     -0.000111     -0.000112     -0.084302
    2   H      2    1.200   1.000     -0.795429     -0.437631      0.225078
    3   H      3    1.200   1.000      0.777625     -0.469475      0.224737
    4   H      4    1.200   1.000      0.018690      0.907999      0.224598
 ------------------------------------------------------------------------------
 ------------------------------------------------------------------------------
 Atomic radii for non-electrostatic terms: SMD-CDS.
 ------------------------------------------------------------------------------
 Nuclear repulsion after PCM non-electrostatic terms =       14.2517728930 Hartrees.
 One-electron integrals computed using PRISM.
 NBasis=    34 RedAO= T  NBF=    34
 NBsUse=    34 1.00D-06 NBFU=    34
 Initial guess read from the read-write file.
 B after Tr=     0.000000    0.000000    0.000000
         Rot=    1.000000    0.000000    0.000000    0.000000 Ang=   0.00 deg.
 Initial guess orbital symmetries:
       Occupied  (A) (A) (A) (A) (A)
       Virtual   (A) (A) (A) (A) (A) (A) (A) (A) (A) (A) (A) (A)
                 (A) (A) (A) (A) (A) (A) (A) (A) (A) (A) (A) (A)
                 (A) (A) (A) (A) (A)
 Requested convergence on RMS density matrix=1.00D-08 within 128 cycles.
 Requested convergence on MAX density matrix=1.00D-06.
 Requested convergence on             energy=1.00D-06.
 No special actions if energy rises.
 Keep R1 ints in memory in canonical form, NReq=3145832.
 Error on total polarization charges =  0.00695
 SCF Done:  E(RHF) =  -76.4652450697     A.U. after   11 cycles
             Convg  =    0.3902D-08             -V/T =  2.0050
 SMD-CDS (non-electrostatic) energy             (kcal/mol) =       2.17
 (included in total energy above)
 D1PCM: PCM CHGder 1st derivatives, ID1Alg=3 FixD1E=F DoIter=F DoCFld=F I1PDM=0.
 Calling FoFJK, ICntrl=      2127 FMM=F ISym2X=0 I1Cent= 0 IOpClX= 0 NMat=1 NMatS=1 NMatT=0.
 ***** Axes restored to original set *****
 -------------------------------------------------------------------
 Center     Atomic                   Forces (Hartrees/Bohr)
 Number     Number              X              Y              Z
 -------------------------------------------------------------------
      1        8          -0.000975886   -0.000423554   -0.000171300
      2        1           0.000363953    0.000234652    0.000006137
      3        1           0.000373873    0.000139485   -0.000114802
      4        1           0.000238059    0.000049417    0.000279965
 -------------------------------------------------------------------
 Cartesian Forces:  Max     0.000975886 RMS     0.000371771

 GradGradGradGradGradGradGradGradGradGradGradGradGradGradGradGradGradGrad
 Berny optimization.
 Using GEDIIS/GDIIS optimizer.
 Internal  Forces:  Max     0.000376559 RMS     0.000254510
 Search for a local minimum.
 Step number   6 out of a maximum of   20
 All quantities printed in internal units (Hartrees-Bohrs-Radians)
 Mixed Optimization -- En-DIIS/RFO-DIIS
 Swaping is turned off.
 Update second derivatives using D2CorX and points    2    3    4    5    6
 DE= -1.71D-05 DEPred=-5.28D-06 R= 3.24D+00
 SS=  1.41D+00  RLast= 1.38D-02 DXNew= 1.4270D+00 4.1384D-02
 Trust test= 3.24D+00 RLast= 1.38D-02 DXMaxT set to 8.49D-01
 The second derivative matrix:
                          R1        R2        R3        A1        A2
           R1           0.67305
           R2           0.00411   0.55513
           R3          -0.00828   0.01195   0.65961
           A1          -0.02286   0.02296   0.02406   0.11135
           A2           0.03271  -0.00270  -0.01023  -0.03784   0.11057
           A3           0.01192   0.00119  -0.03709  -0.05573   0.00282
           D1           0.02252   0.00081   0.01424  -0.01614  -0.00967
                          A3        D1
           A3           0.14421
           D1           0.00493   0.03625
     Eigenvalues ---    0.02615   0.11762   0.18657   0.55408   0.65972
     Eigenvalues ---    0.683111000.00000
 En-DIIS/RFO-DIIS IScMMF=        0 using points:     6    5
 RFO step:  Lambda=-8.40832042D-07.
 DIIS coeffs:      0.95616      0.04384
 Iteration  1 RMS(Cart)=  0.00122829 RMS(Int)=  0.00000212
 Iteration  2 RMS(Cart)=  0.00000159 RMS(Int)=  0.00000085
 Iteration  3 RMS(Cart)=  0.00000000 RMS(Int)=  0.00000085
 Variable       Old X    -DE/DX   Delta X   Delta X   Delta X     New X
                                  (DIIS)     (GDIIS)  (Total)
    R1        1.81224   0.00037   0.00002   0.00057   0.00059   1.81282
    R2        1.81323  -0.00006  -0.00001   0.00003   0.00002   1.81325
    R3        1.81299  -0.00023  -0.00006  -0.00003  -0.00009   1.81291
    A1        1.92318  -0.00032   0.00011  -0.00330  -0.00319   1.91998
    A2        1.92221   0.00010   0.00038  -0.00127  -0.00089   1.92131
    A3        1.92137   0.00038   0.00009   0.00123   0.00133   1.92269
    D1        2.12406  -0.00008   0.00045  -0.00416  -0.00371   2.12035
         Item               Value     Threshold  Converged?
 Maximum Force            0.000377     0.000450     YES
 RMS     Force            0.000255     0.000300     YES
 Maximum Displacement     0.001825     0.001800     NO 
 RMS     Displacement     0.001229     0.001200     NO 
 Predicted change in Energy=-9.828250D-07
 GradGradGradGradGradGradGradGradGradGradGradGradGradGradGradGradGradGrad

                          Input orientation:                          
 ---------------------------------------------------------------------
 Center     Atomic      Atomic             Coordinates (Angstroms)
 Number     Number       Type             X           Y           Z
 ---------------------------------------------------------------------
      1          8           0       -1.421929   -0.007054   -0.099897
      2          1           0       -0.530295   -0.143910    0.226485
      3          1           0       -1.819126    0.749090    0.337348
      4          1           0       -1.952054   -0.792292    0.050830
 ---------------------------------------------------------------------
                    Distance matrix (angstroms):
                    1          2          3          4
     1  O    0.000000
     2  H    0.959305   0.000000
     3  H    0.959532   1.571885   0.000000
     4  H    0.959348   1.572466   1.573410   0.000000
 Stoichiometry    H3O(1+)
 Framework group  C1[X(H3O)]
 Deg. of freedom     6
 Full point group                 C1      NOp   1
 Largest Abelian subgroup         C1      NOp   1
 Largest concise Abelian subgroup C1      NOp   1
                         Standard orientation:                         
 ---------------------------------------------------------------------
 Center     Atomic      Atomic             Coordinates (Angstroms)
 Number     Number       Type             X           Y           Z
 ---------------------------------------------------------------------
      1          8           0        0.000122   -0.000103   -0.084543
      2          1           0       -0.175202    0.890724    0.225221
      3          1           0       -0.684912   -0.596225    0.225404
      4          1           0        0.859135   -0.293674    0.225720
 ---------------------------------------------------------------------
 Rotational constants (GHZ):    339.3778109    338.7369291    202.7693837
 Standard basis: 6-31+G(d,p) (6D, 7F)
 There are    34 symmetry adapted basis functions of A   symmetry.
 Integral buffers will be    262144 words long.
 Raffenetti 1 integral format.
 Two-electron integral symmetry is turned on.
    34 basis functions,    53 primitive gaussians,    34 cartesian basis functions
     5 alpha electrons        5 beta electrons
       nuclear repulsion energy        14.2472770487 Hartrees.
 NAtoms=    4 NActive=    4 NUniq=    4 SFac= 7.50D-01 NAtFMM=   80 NAOKFM=F Big=F
 ------------------------------------------------------------------------------
 Polarizable Continuum Model (PCM)
 =================================
 Model                : PCM.
 Atomic radii         : SMD-Coulomb.
 Polarization charges : Total charges.
 Charge compensation  : None.
 Solution method      : Matrix inversion.
 Cavity type          : VdW (van der Waals Surface) (Alpha=1.000).
 Cavity algorithm     : GePol (No added spheres)
                        Default sphere list used, NSphG=    4.
                        Lebedev-Laikov grids with approx.  5.0 points / Ang**2.
                        Smoothing algorithm: Karplus/York (Gamma=1.0000).
                        Polarization charges: spherical gaussians, with
                                              point-specific exponents (IZeta= 3).
                        Self-potential: point-specific (ISelfS= 7).
                        Self-field    : sphere-specific E.n sum rule (ISelfD= 2).
 1st derivatives      : Analytical E(r).r(x)/FMM algorithm (CHGder, D1EAlg=3).
                        Cavity 1st derivative terms included.
 Solvent              : Water, Eps=  78.355300 Eps(inf)=   1.777849
 ------------------------------------------------------------------------------
 Spheres list:
 ISph  on   Nord    Re0     Alpha      Xe            Ye            Ze
    1   O      1    1.520   1.000      0.000122     -0.000103     -0.084543
    2   H      2    1.200   1.000     -0.175202      0.890724      0.225221
    3   H      3    1.200   1.000     -0.684912     -0.596225      0.225404
    4   H      4    1.200   1.000      0.859135     -0.293674      0.225720
 ------------------------------------------------------------------------------
 ------------------------------------------------------------------------------
 Atomic radii for non-electrostatic terms: SMD-CDS.
 ------------------------------------------------------------------------------
 Nuclear repulsion after PCM non-electrostatic terms =       14.2507218473 Hartrees.
 One-electron integrals computed using PRISM.
 NBasis=    34 RedAO= T  NBF=    34
 NBsUse=    34 1.00D-06 NBFU=    34
 Initial guess read from the read-write file.
 B after Tr=     0.000000    0.000000    0.000000
         Rot=    1.000000    0.000000    0.000000    0.000000 Ang=   0.00 deg.
 Initial guess orbital symmetries:
       Occupied  (A) (A) (A) (A) (A)
       Virtual   (A) (A) (A) (A) (A) (A) (A) (A) (A) (A) (A) (A)
                 (A) (A) (A) (A) (A) (A) (A) (A) (A) (A) (A) (A)
                 (A) (A) (A) (A) (A)
 Requested convergence on RMS density matrix=1.00D-08 within 128 cycles.
 Requested convergence on MAX density matrix=1.00D-06.
 Requested convergence on             energy=1.00D-06.
 No special actions if energy rises.
 Keep R1 ints in memory in canonical form, NReq=3149410.
 Error on total polarization charges =  0.00704
 SCF Done:  E(RHF) =  -76.4652204935     A.U. after   11 cycles
             Convg  =    0.2240D-08             -V/T =  2.0050
 SMD-CDS (non-electrostatic) energy             (kcal/mol) =       2.16
 (included in total energy above)
 D1PCM: PCM CHGder 1st derivatives, ID1Alg=3 FixD1E=F DoIter=F DoCFld=F I1PDM=0.
 Calling FoFJK, ICntrl=      2127 FMM=F ISym2X=0 I1Cent= 0 IOpClX= 0 NMat=1 NMatS=1 NMatT=0.
 ***** Axes restored to original set *****
 -------------------------------------------------------------------
 Center     Atomic                   Forces (Hartrees/Bohr)
 Number     Number              X              Y              Z
 -------------------------------------------------------------------
      1        8          -0.000443810   -0.000260142    0.000119948
      2        1           0.000417606    0.000103592   -0.000313806
      3        1          -0.000127331   -0.000041578    0.000004195
      4        1           0.000153535    0.000198127    0.000189662
 -------------------------------------------------------------------
 Cartesian Forces:  Max     0.000443810 RMS     0.000237940

 GradGradGradGradGradGradGradGradGradGradGradGradGradGradGradGradGradGrad
 Berny optimization.
 Using GEDIIS/GDIIS optimizer.
 Internal  Forces:  Max     0.000353052 RMS     0.000186276
 Search for a local minimum.
 Step number   7 out of a maximum of   20
 All quantities printed in internal units (Hartrees-Bohrs-Radians)
 Mixed Optimization -- En-DIIS/RFO-DIIS
 Swaping is turned off.
 Update second derivatives using D2CorX and points    2    3    4    5    6
                                                      7
 DE=  2.46D-05 DEPred=-9.83D-07 R=-2.50D+01
 Trust test=-2.50D+01 RLast= 5.18D-03 DXMaxT set to 4.24D-01
 The second derivative matrix:
                          R1        R2        R3        A1        A2
           R1           0.65174
           R2           0.00955   0.55506
           R3          -0.01072   0.00810   0.67820
           A1           0.03308   0.02200  -0.01968   0.10601
           A2           0.03582   0.00015  -0.01542  -0.02124   0.10932
           A3          -0.04457   0.00075   0.00403  -0.05627  -0.01715
           D1           0.04532   0.00324  -0.01046   0.00109  -0.00194
                          A3        D1
           A3           0.15248
           D1          -0.01956   0.05255
     Eigenvalues ---    0.03905   0.12076   0.18389   0.55393   0.65742
     Eigenvalues ---    0.687661000.00000
 En-DIIS/RFO-DIIS IScMMF=        0 using points:     7    6    5
 RFO step:  Lambda=-3.37895207D-07.
 DIIS coeffs:      0.73976      0.06640      0.19384
 Iteration  1 RMS(Cart)=  0.00083384 RMS(Int)=  0.00000449
 Iteration  2 RMS(Cart)=  0.00000074 RMS(Int)=  0.00000441
 Variable       Old X    -DE/DX   Delta X   Delta X   Delta X     New X
                                  (DIIS)     (GDIIS)  (Total)
    R1        1.81282   0.00035  -0.00009   0.00036   0.00027   1.81310
    R2        1.81325   0.00001  -0.00006   0.00002  -0.00004   1.81321
    R3        1.81291  -0.00029  -0.00023  -0.00017  -0.00040   1.81251
    A1        1.91998   0.00006   0.00132   0.00012   0.00144   1.92143
    A2        1.92131   0.00012   0.00189  -0.00043   0.00146   1.92278
    A3        1.92269  -0.00007   0.00006   0.00004   0.00011   1.92280
    D1        2.12035   0.00011   0.00295  -0.00010   0.00284   2.12319
         Item               Value     Threshold  Converged?
 Maximum Force            0.000353     0.000450     YES
 RMS     Force            0.000186     0.000300     YES
 Maximum Displacement     0.001307     0.001800     YES
 RMS     Displacement     0.000834     0.001200     YES
 Predicted change in Energy=-2.422904D-07
 Optimization completed.
    -- Stationary point found.
                           ----------------------------
                           !   Optimized Parameters   !
                           ! (Angstroms and Degrees)  !
 --------------------------                            --------------------------
 ! Name  Definition              Value          Derivative Info.                !
 --------------------------------------------------------------------------------
 ! R1    R(1,2)                  0.9593         -DE/DX =    0.0004              !
 ! R2    R(1,3)                  0.9595         -DE/DX =    0.0                 !
 ! R3    R(1,4)                  0.9593         -DE/DX =   -0.0003              !
 ! A1    A(2,1,3)              110.0069         -DE/DX =    0.0001              !
 ! A2    A(2,1,4)              110.0831         -DE/DX =    0.0001              !
 ! A3    A(3,1,4)              110.1621         -DE/DX =   -0.0001              !
 ! D1    D(2,1,4,3)            121.4872         -DE/DX =    0.0001              !
 --------------------------------------------------------------------------------
 GradGradGradGradGradGradGradGradGradGradGradGradGradGradGradGradGradGrad

                          Input orientation:                          
 ---------------------------------------------------------------------
 Center     Atomic      Atomic             Coordinates (Angstroms)
 Number     Number       Type             X           Y           Z
 ---------------------------------------------------------------------
      1          8           0       -1.421929   -0.007054   -0.099897
      2          1           0       -0.530295   -0.143910    0.226485
      3          1           0       -1.819126    0.749090    0.337348
      4          1           0       -1.952054   -0.792292    0.050830
 ---------------------------------------------------------------------
                    Distance matrix (angstroms):
                    1          2          3          4
     1  O    0.000000
     2  H    0.959305   0.000000
     3  H    0.959532   1.571885   0.000000
     4  H    0.959348   1.572466   1.573410   0.000000
 Stoichiometry    H3O(1+)
 Framework group  C1[X(H3O)]
 Deg. of freedom     6
 Full point group                 C1      NOp   1
 Largest Abelian subgroup         C1      NOp   1
 Largest concise Abelian subgroup C1      NOp   1
                         Standard orientation:                         
 ---------------------------------------------------------------------
 Center     Atomic      Atomic             Coordinates (Angstroms)
 Number     Number       Type             X           Y           Z
 ---------------------------------------------------------------------
      1          8           0        0.000122   -0.000103   -0.084543
      2          1           0       -0.175202    0.890724    0.225221
      3          1           0       -0.684912   -0.596225    0.225404
      4          1           0        0.859135   -0.293674    0.225720
 ---------------------------------------------------------------------
 Rotational constants (GHZ):    339.3778109    338.7369291    202.7693837

 **********************************************************************

            Population analysis using the SCF density.

 **********************************************************************

 Orbital symmetries:
       Occupied  (A) (A) (A) (A) (A)
       Virtual   (A) (A) (A) (A) (A) (A) (A) (A) (A) (A) (A) (A)
[...]
          Differentiating once with respect to electric field.
                with respect to dipole field.
          Electric field/nuclear overlap derivatives assumed to be zero.
          Keep R1 ints in memory in canonical form, NReq=997604.
          There are     3 degrees of freedom in the 1st order CPHF.  IDoFFX=0.
      3 vectors produced by pass  0 Test12= 4.83D-15 3.33D-08 XBig12= 8.67D-01 5.10D-01.
 AX will form     3 AO Fock derivatives at one time.
      3 vectors produced by pass  1 Test12= 4.83D-15 3.33D-08 XBig12= 3.02D-02 8.69D-02.
      3 vectors produced by pass  2 Test12= 4.83D-15 3.33D-08 XBig12= 3.17D-03 2.80D-02.
      3 vectors produced by pass  3 Test12= 4.83D-15 3.33D-08 XBig12= 1.16D-04 5.59D-03.
      3 vectors produced by pass  4 Test12= 4.83D-15 3.33D-08 XBig12= 7.77D-07 3.42D-04.
      3 vectors produced by pass  5 Test12= 4.83D-15 3.33D-08 XBig12= 1.10D-08 5.66D-05.
      3 vectors produced by pass  6 Test12= 4.83D-15 3.33D-08 XBig12= 8.93D-11 2.96D-06.
      3 vectors produced by pass  7 Test12= 4.83D-15 3.33D-08 XBig12= 5.09D-13 2.91D-07.
 Inverted reduced A of dimension    24 with in-core refinement.
 End of Minotr Frequency-dependent properties file   721 does not exist.
 End of Minotr Frequency-dependent properties file   722 does not exist.
 Symmetrizing basis deriv contribution to polar:
 IMax=3 JMax=2 DiffMx= 0.00D+00
 G2DrvN: will do     5 centers at a time, making    1 passes doing MaxLOS=2.
 Calling FoFCou, ICntrl=  3107 FMM=F I1Cent=   0 AccDes= 0.00D+00.
 FoFDir/FoFCou used for L=0 through L=2.
 G2PCM: DoFxE=T DoFxN=T DoGrad=T DoPD/DQ/DG=TFF NFrqRd=   0 IEInf=0 DoCFld=F IF1Alg=4.
 End of G2Drv Frequency-dependent properties file   721 does not exist.
 End of G2Drv Frequency-dependent properties file   722 does not exist.
          IDoAtm=1111
 NEqPCM:  Using equilibrium solvation (IEInf=0, Eps=  78.3553, EpsInf=   1.7778)
          Differentiating once with respect to electric field.
                with respect to dipole field.
          Differentiating once with respect to nuclear coordinates.
          Keep R1 ints in memory in canonical form, NReq=997652.
          There are    15 degrees of freedom in the 1st order CPHF.  IDoFFX=5.
 Will reuse    3 saved solutions.
      9 vectors produced by pass  0 Test12= 9.67D-16 6.67D-09 XBig12= 2.76D-02 6.00D-02.
 AX will form     9 AO Fock derivatives at one time.
      9 vectors produced by pass  1 Test12= 9.67D-16 6.67D-09 XBig12= 1.39D-03 1.19D-02.
      9 vectors produced by pass  2 Test12= 9.67D-16 6.67D-09 XBig12= 3.13D-05 2.57D-03.
      9 vectors produced by pass  3 Test12= 9.67D-16 6.67D-09 XBig12= 5.49D-07 3.38D-04.
      9 vectors produced by pass  4 Test12= 9.67D-16 6.67D-09 XBig12= 2.89D-09 2.32D-05.
      9 vectors produced by pass  5 Test12= 9.67D-16 6.67D-09 XBig12= 8.10D-12 1.28D-06.
      3 vectors produced by pass  6 Test12= 9.67D-16 6.67D-09 XBig12= 1.55D-14 4.70D-08.
 Inverted reduced A of dimension    57 with in-core refinement.
 Isotropic polarizability for W=    0.000000        5.67 Bohr**3.
 End of Minotr Frequency-dependent properties file   721 does not exist.
 End of Minotr Frequency-dependent properties file   722 does not exist.

 **********************************************************************

            Population analysis using the SCF density.

 **********************************************************************

 Orbital symmetries:
       Occupied  (A) (A) (A) (A) (A)
       Virtual   (A) (A) (A) (A) (A) (A) (A) (A) (A) (A) (A) (A)
                 (A) (A) (A) (A) (A) (A) (A) (A) (A) (A) (A) (A)
                 (A) (A) (A) (A) (A)
 The electronic state is 1-A.
 Alpha  occ. eigenvalues --  -20.72532  -1.52450  -0.85073  -0.85031  -0.67561
 Alpha virt. eigenvalues --    0.12906   0.20479   0.20495   0.22409   0.33528
 Alpha virt. eigenvalues --    0.33555   0.38073   1.11814   1.11864   1.23040
 Alpha virt. eigenvalues --    1.23046   1.25871   1.31039   1.43302   1.61793
 Alpha virt. eigenvalues --    1.61848   2.21131   2.33419   2.58440   2.58519
 Alpha virt. eigenvalues --    2.78691   2.78762   3.05862   3.35022   3.35130
 Alpha virt. eigenvalues --    3.64665   3.78643   3.78721   4.38291
          Condensed to atoms (all electrons):
              1          2          3          4
     1  O    7.634452   0.296551   0.296533   0.296614
     2  H    0.296551   0.215817  -0.010185  -0.010171
     3  H    0.296533  -0.010185   0.215625  -0.010142
     4  H    0.296614  -0.010171  -0.010142   0.215707
 Mulliken atomic charges:
              1
     1  O   -0.524149
     2  H    0.507989
     3  H    0.508169
     4  H    0.507992
 Sum of Mulliken atomic charges =   1.00000
 Mulliken charges with hydrogens summed into heavy atoms:
              1
     1  O    1.000000
 Sum of Mulliken charges with hydrogens summed into heavy atoms =   1.00000
 APT atomic charges:
              1
     1  O   -0.637366
     2  H    0.544806
     3  H    0.546640
     4  H    0.545921
 Sum of APT charges=   1.00000
 APT Atomic charges with hydrogens summed into heavy atoms:
              1
     1  O    1.000000
     2  H    0.000000
     3  H    0.000000
     4  H    0.000000
 Sum of APT charges=   1.00000
 Electronic spatial extent (au):  <R**2>=             18.0192
 Charge=              1.0000 electrons
 Dipole moment (field-independent basis, Debye):
    X=             -0.0030    Y=              0.0012    Z=              2.0069  Tot=              2.0069
 Quadrupole moment (field-independent basis, Debye-Ang):
   XX=             -2.5924   YY=             -2.6009   ZZ=             -6.1575
   XY=              0.0001   XZ=              0.0004   YZ=             -0.0001
 Traceless Quadrupole moment (field-independent basis, Debye-Ang):
   XX=              1.1912   YY=              1.1827   ZZ=             -2.3739
   XY=              0.0001   XZ=              0.0004   YZ=             -0.0001
 Octapole moment (field-independent basis, Debye-Ang**2):
  XXX=              0.8944  YYY=              1.3679  ZZZ=              1.1074  XYY=             -0.8991
  XXY=             -1.3669  XXZ=              1.1309  XZZ=             -0.0003  YZZ=              0.0001
  YYZ=              1.1280  XYZ=             -0.0001
 Hexadecapole moment (field-independent basis, Debye-Ang**3):
 XXXX=             -3.0326 YYYY=             -3.0382 ZZZZ=             -5.1258 XXXY=              0.0019
 XXXZ=              0.2405 YYYX=             -0.0014 YYYZ=              0.3653 ZZZX=              0.0004
 ZZZY=             -0.0002 XXYY=             -1.0120 XXZZ=             -1.5604 YYZZ=             -1.5609
 XXYZ=             -0.3659 YYXZ=             -0.2401 ZZXY=             -0.0001
 N-N= 1.425072184727D+01 E-N=-2.049801655815D+02  KE= 7.608787268213D+01
  Exact polarizability:   6.223   0.001   6.218   0.000   0.000   4.584
 Approx polarizability:   4.616   0.000   4.611   0.000   0.000   3.457
 D2PCM: PCM CHGder 2nd derivatives, FixD1E=F FixD2E=F DoIter=F DoCFld=F I1PDM=0
 Calling FoFJK, ICntrl=    100127 FMM=F ISym2X=0 I1Cent= 0 IOpClX= 0 NMat=1 NMatS=1 NMatT=0.
 Full mass-weighted force constant matrix:
 Low frequencies --- -274.4319 -236.2181 -168.5149   -0.0023   -0.0021   -0.0017
 Low frequencies --- 1036.5186 1742.7924 1787.5290
 Diagonal vibrational polarizability:
        2.4545973       2.5340754      16.3131061
 Diagonal vibrational hyperpolarizability:
       -0.3648421      -0.6313403      14.1751937
 Harmonic frequencies (cm**-1), IR intensities (KM/Mole), Raman scattering
 activities (A**4/AMU), depolarization ratios for plane and unpolarized
 incident light, reduced masses (AMU), force constants (mDyne/A),
 and normal coordinates:
                     1                      2                      3
                     A                      A                      A
 Frequencies --  1036.2034              1742.6027              1787.4966
 Red. masses --     1.1650                 1.0632                 1.0631
 Frc consts  --     0.7370                 1.9023                 2.0012
 IR Inten    --   644.1010               166.0068               162.7197
 Raman Activ --     0.4162                 3.2954                 3.3073
 Depolar (P) --     0.2934                 0.7498                 0.7500
 Depolar (U) --     0.4537                 0.8570                 0.8571
  Atom  AN      X      Y      Z        X      Y      Z        X      Y      Z
     1   8     0.00   0.00   0.10     0.02   0.06   0.00     0.06  -0.02   0.00
     2   1    -0.04   0.19  -0.54    -0.42   0.03  -0.19    -0.63  -0.20   0.12
     3   1    -0.15  -0.12  -0.54     0.33  -0.20   0.19    -0.40   0.55   0.11
     4   1     0.18  -0.06  -0.54    -0.25  -0.73  -0.01     0.13  -0.02  -0.22
                     4                      5                      6
                     A                      A                      A
 Frequencies --  3887.6232              3987.6788              3991.0694
 Red. masses --     1.0222                 1.0864                 1.0868
 Frc consts  --     9.1027                10.1781                10.1996
 IR Inten    --    95.3094               635.3457               634.3242
 Raman Activ --    67.5816                17.6722                17.6413
 Depolar (P) --     0.0375                 0.7500                 0.7477
 Depolar (U) --     0.0723                 0.8571                 0.8556
  Atom  AN      X      Y      Z        X      Y      Z        X      Y      Z
     1   8     0.00   0.00   0.03     0.05   0.06   0.00     0.06  -0.05   0.00
     2   1     0.11  -0.53  -0.16     0.10  -0.48  -0.17    -0.12   0.60   0.21
     3   1     0.42   0.36  -0.16    -0.57  -0.50   0.26    -0.10  -0.09   0.05
     4   1    -0.54   0.19  -0.17    -0.26   0.09  -0.09    -0.67   0.23  -0.24

 -------------------
 - Thermochemistry -
 -------------------
 Temperature   298.150 Kelvin.  Pressure   1.00000 Atm.
 Atom     1 has atomic number  8 and mass  15.99491
 Atom     2 has atomic number  1 and mass   1.00783
 Atom     3 has atomic number  1 and mass   1.00783
 Atom     4 has atomic number  1 and mass   1.00783
 Molecular mass:    19.01839 amu.
 Principal axes and moments of inertia in atomic units:
                           1         2         3
     Eigenvalues --     5.31779   5.32785   8.90046
           X            1.00000   0.00002   0.00005
           Y           -0.00002   1.00000  -0.00004
           Z           -0.00005   0.00004   1.00000
 This molecule is an asymmetric top.
 Rotational symmetry number  1.
 Rotational temperatures (Kelvin)     16.28755    16.25679     9.73138
 Rotational constants (GHZ):         339.37781   338.73693   202.76938
 Zero-point vibrational energy      98289.2 (Joules/Mol)
                                   23.49169 (Kcal/Mol)
 Vibrational temperatures:   1490.86  2507.21  2571.81  5593.42  5737.37
          (Kelvin)           5742.25
 
 Zero-point correction=                           0.037436 (Hartree/Particle)
 Thermal correction to Energy=                    0.040304
 Thermal correction to Enthalpy=                  0.041248
 Thermal correction to Gibbs Free Energy=         0.018368
 Sum of electronic and zero-point Energies=            -76.427784
 Sum of electronic and thermal Energies=               -76.424916
 Sum of electronic and thermal Enthalpies=             -76.423972
 Sum of electronic and thermal Free Energies=          -76.446853
 
                     E (Thermal)             CV                S
                      KCal/Mol        Cal/Mol-Kelvin    Cal/Mol-Kelvin
 Total                   25.291              6.359             48.157
 Electronic               0.000              0.000              0.000
 Translational            0.889              2.981             34.771
 Rotational               0.889              2.981             13.298
 Vibrational             23.514              0.397              0.088
                       Q            Log10(Q)             Ln(Q)
 Total Bot       0.356053D-08         -8.448485        -19.453356
 Total V=0       0.590229D+09          8.771020         20.196020
 Vib (Bot)       0.607581D-17        -17.216396        -39.642216
 Vib (V=0)       0.100719D+01          0.003110          0.007160
 Electronic      0.100000D+01          0.000000          0.000000
 Translational   0.325999D+07          6.513216         14.997234
 Rotational      0.179761D+03          2.254695          5.191626
 ***** Axes restored to original set *****
 -------------------------------------------------------------------
 Center     Atomic                   Forces (Hartrees/Bohr)
 Number     Number              X              Y              Z
 -------------------------------------------------------------------
      1        8          -0.000443810   -0.000260142    0.000119949
      2        1           0.000417607    0.000103592   -0.000313806
      3        1          -0.000127331   -0.000041577    0.000004195
      4        1           0.000153534    0.000198127    0.000189662
 -------------------------------------------------------------------
 Cartesian Forces:  Max     0.000443810 RMS     0.000237940

 GradGradGradGradGradGradGradGradGradGradGradGradGradGradGradGradGradGrad
 Berny optimization.
 Internal  Forces:  Max     0.000353052 RMS     0.000186276
 Search for a local minimum.
 Step number   1 out of a maximum of    2
 All quantities printed in internal units (Hartrees-Bohrs-Radians)
 Second derivative matrix not updated -- analytic derivatives used.
 The second derivative matrix:
                          R1        R2        R3        A1        A2
           R1           0.56323
           R2           0.00249   0.56244
           R3           0.00180   0.00172   0.56280
           A1           0.00323   0.00463  -0.00497   0.06117
           A2           0.01167  -0.00064   0.01321  -0.04618   0.11895
           A3          -0.00089   0.01001   0.01115  -0.04652  -0.02260
           D1           0.01110   0.01191   0.00973   0.01581   0.00537
                          A3        D1
           A3           0.11871
           D1           0.00465   0.02632
     Eigenvalues ---    0.03602   0.14110   0.14602   0.56064   0.56161
     Eigenvalues ---    0.568231000.00000
 Angle between quadratic step and forces=  59.30 degrees.
 Linear search not attempted -- first point.
 Iteration  1 RMS(Cart)=  0.00091137 RMS(Int)=  0.00000141
 Iteration  2 RMS(Cart)=  0.00000083 RMS(Int)=  0.00000108
 Variable       Old X    -DE/DX   Delta X   Delta X   Delta X     New X
                                 (Linear)    (Quad)   (Total)
    R1        1.81282   0.00035   0.00000   0.00053   0.00053   1.81335
    R2        1.81325   0.00001   0.00000  -0.00007  -0.00007   1.81318
    R3        1.81291  -0.00029   0.00000  -0.00059  -0.00059   1.81231
    A1        1.91998   0.00006   0.00000   0.00148   0.00148   1.92147
    A2        1.92131   0.00012   0.00000   0.00153   0.00153   1.92285
    A3        1.92269  -0.00007   0.00000   0.00026   0.00026   1.92295
    D1        2.12035   0.00011   0.00000   0.00303   0.00303   2.12338
         Item               Value     Threshold  Converged?
 Maximum Force            0.000353     0.000450     YES
 RMS     Force            0.000186     0.000300     YES
 Maximum Displacement     0.001404     0.001800     YES
 RMS     Displacement     0.000911     0.001200     YES
 Predicted change in Energy=-4.780276D-07
 Optimization completed.
    -- Stationary point found.
                           ----------------------------
                           !   Optimized Parameters   !
                           ! (Angstroms and Degrees)  !
 --------------------------                            --------------------------
 ! Name  Definition              Value          Derivative Info.                !
 --------------------------------------------------------------------------------
 ! R1    R(1,2)                  0.9593         -DE/DX =    0.0004              !
 ! R2    R(1,3)                  0.9595         -DE/DX =    0.0                 !
 ! R3    R(1,4)                  0.9593         -DE/DX =   -0.0003              !
 ! A1    A(2,1,3)              110.0069         -DE/DX =    0.0001              !
 ! A2    A(2,1,4)              110.0831         -DE/DX =    0.0001              !
 ! A3    A(3,1,4)              110.1621         -DE/DX =   -0.0001              !
 ! D1    D(2,1,4,3)            121.4872         -DE/DX =    0.0001              !
 --------------------------------------------------------------------------------
 GradGradGradGradGradGradGradGradGradGradGradGradGradGradGradGradGradGrad

 1|1|UNPC-DESKTOP-319GPER|Freq|RHF|6-31+G(d,p)|H3O1(1+)|SAGAD|16-Nov-20
 20|0||#N Geom=AllCheck Guess=TCheck SCRF=Check GenChk RHF/6-31+G(d,p) 
 Freq||Hydronium HF||1,1|O,-1.4219291632,-0.0070542404,-0.0998966415|H,
 -0.5302953213,-0.1439101321,0.2264851117|H,-1.8191255476,0.749089632,0
 .3373481389|H,-1.9520538378,-0.7922918795,0.0508303309||Version=IA32W-
 G09RevA.02|State=1-A|HF=-76.4652205|RMSD=1.138e-010|RMSF=2.379e-004|Ze
 roPoint=0.0374364|Thermal=0.0403042|Dipole=-0.0307652,-0.1407042,0.776
 3192|DipoleDeriv=-0.6858622,0.0040077,-0.0072282,0.0046332,-0.6756431,
 -0.0244912,-0.0069069,-0.0247993,-0.5505941,0.6789967,-0.0259568,0.030
 0768,-0.0241326,0.4420909,-0.0159166,0.016274,-0.0150136,0.5133289,0.4
 849186,-0.0903627,-0.0284491,-0.0917613,0.6299408,0.0424799,-0.0226988
 ,0.0315402,0.5250613,0.5219468,0.1123118,0.0056005,0.1112607,0.6036114
 ,-0.0020721,0.0133318,0.0082727,0.5122039|Polar=6.2156024,-0.0110929,6
 .1696675,0.0646415,0.2891372,4.6391783|PolarDeriv=-1.5375965,0.8417403
 ,1.815976,-2.0231137,0.3658337,-0.0252806,0.9247262,1.8103984,0.689673
 5,0.366211,-1.9132387,-0.3554935,-2.544684,0.3674997,-2.4510552,-0.042
 2902,-0.4485548,-2.122108,4.9405224,-0.4931252,0.7215936,1.125572,-0.1
 377623,1.0305819,-0.5045442,1.008242,-0.421933,-0.1028858,0.3177536,-0
 .1076699,1.3222976,-0.108891,0.4543118,1.1456678,-0.0915664,0.7430663,
 -1.3651836,1.2190435,-1.0699359,0.6515383,-0.406842,-0.5454322,0.9275,
 -1.1796537,3.6128154,-0.4308865,1.2237271,1.1178727,0.7654816,-0.44077
 51,1.4154261,-0.5913225,1.2450323,1.200959,-2.0377424,-1.5676587,-1.46
 76336,0.2460034,0.1787706,-0.459869,-1.3476819,-1.6389867,-3.8805559,0
 .1675613,0.371758,-0.6547093,0.4569048,0.1821665,0.5813173,-0.5120551,
 -0.7049111,0.1780826|HyperPolar=7.7139726,-2.684532,-7.9159365,0.50545
 04,3.0546859,-1.5659185,2.9462286,-0.0812679,0.8272332,1.4284169|PG=C0
 1 [X(H3O1)]|NImag=0||0.85040850,0.00078185,0.82981520,0.02714476,0.109
 80434,0.25229356,-0.46896059,0.05986387,-0.15147997,0.49607705,0.06832
 710,-0.08995184,0.01240840,-0.06687016,0.07572614,-0.20054677,0.016579
 44,-0.08517760,0.16615021,-0.01474661,0.07592753,-0.16239023,0.1474740
 0,0.08544773,-0.01051127,0.03363092,0.02407593,0.15477490,0.14315247,-
 0.35074651,-0.17419034,0.00321819,0.00146921,-0.00013664,-0.16248586,0
 .37113393,0.10592329,-0.21957272,-0.13421223,-0.00535133,0.01783602,0.
 00785516,-0.09438264,0.19216843,0.12335923,-0.21905768,-0.20811972,0.0
 3888748,-0.01660519,-0.03508786,0.01032063,0.01812660,0.01611520,-0.00
 618932,0.21753627,-0.21226143,-0.38911686,0.05197760,0.00378810,0.0127
 5649,-0.00169619,-0.01861906,-0.02185663,0.00956827,0.22709239,0.39821
 700,0.06747872,0.09318893,-0.03290373,-0.00931891,-0.01549780,0.001394
 91,-0.01514102,-0.01784145,0.00299784,-0.04301879,-0.05984968,0.028510
 97||0.00044381,0.00026014,-0.00011995,-0.00041761,-0.00010359,0.000313
 81,0.00012733,0.00004158,-0.00000420,-0.00015353,-0.00019813,-0.000189
 66|||@


 ... THIS SEEMS PLAINLY ABSURD; BUT WHOEVER WISHES TO BECOME A 
 PHILOSOPHER MUST LEARN NOT TO BE FRIGHTENED BY ABSURDITIES.

                          -- BERTRAND RUSSELL
 Job cpu time:  0 days  0 hours  0 minutes  8.0 seconds.
 File lengths (MBytes):  RWF=      5 Int=      0 D2E=      0 Chk=      2 Scr=      1
 Normal termination of Gaussian 09 at Mon Nov 16 23:04:54 2020.
