 Entering Link 1 = C:\G09W\l1.exe PID=       616.
  
 Copyright (c) 1988,1990,1992,1993,1995,1998,2003,2009, Gaussian, Inc.
                  All Rights Reserved.
  
 This is part of the Gaussian(R) 09 program.  It is based on
 the Gaussian(R) 03 system (copyright 2003, Gaussian, Inc.),
 the Gaussian(R) 98 system (copyright 1998, Gaussian, Inc.),
 the Gaussian(R) 94 system (copyright 1995, Gaussian, Inc.),
 the Gaussian 92(TM) system (copyright 1992, Gaussian, Inc.),
 the Gaussian 90(TM) system (copyright 1990, Gaussian, Inc.),
 the Gaussian 88(TM) system (copyright 1988, Gaussian, Inc.),
 the Gaussian 86(TM) system (copyright 1986, Carnegie Mellon
 University), and the Gaussian 82(TM) system (copyright 1983,
 Carnegie Mellon University). Gaussian is a federally registered
 trademark of Gaussian, Inc.
  
 This software contains proprietary and confidential information,
 including trade secrets, belonging to Gaussian, Inc.
  
 This software is provided under written license and may be
 used, copied, transmitted, or stored only in accord with that
 written license.
  
 The following legend is applicable only to US Government
 contracts under FAR:
  
                    RESTRICTED RIGHTS LEGEND
  
 Use, reproduction and disclosure by the US Government is
 subject to restrictions as set forth in subparagraphs (a)
 and (c) of the Commercial Computer Software - Restricted
 Rights clause in FAR 52.227-19.
  
 Gaussian, Inc.
 340 Quinnipiac St., Bldg. 40, Wallingford CT 06492
  
  
 ---------------------------------------------------------------
 Warning -- This program may not be used in any manner that
 competes with the business of Gaussian, Inc. or will provide
 assistance to any competitor of Gaussian, Inc.  The licensee
 of this program is prohibited from giving any competitor of
 Gaussian, Inc. access to this program.  By using this program,
 the user acknowledges that Gaussian, Inc. is engaged in the
 business of creating and licensing software in the field of
 computational chemistry and represents and warrants to the
 licensee that it is not a competitor of Gaussian, Inc. and that
 it will not use this program in any manner prohibited above.
 ---------------------------------------------------------------
  

 Cite this work as:
 Gaussian 09, Revision A.02,
 M. J. Frisch, G. W. Trucks, H. B. Schlegel, G. E. Scuseria, 
 M. A. Robb, J. R. Cheeseman, G. Scalmani, V. Barone, B. Mennucci, 
 G. A. Petersson, H. Nakatsuji, M. Caricato, X. Li, H. P. Hratchian, 
 A. F. Izmaylov, J. Bloino, G. Zheng, J. L. Sonnenberg, M. Hada, 
 M. Ehara, K. Toyota, R. Fukuda, J. Hasegawa, M. Ishida, T. Nakajima, 
 Y. Honda, O. Kitao, H. Nakai, T. Vreven, J. A. Montgomery, Jr., 
 J. E. Peralta, F. Ogliaro, M. Bearpark, J. J. Heyd, E. Brothers, 
 K. N. Kudin, V. N. Staroverov, R. Kobayashi, J. Normand, 
 K. Raghavachari, A. Rendell, J. C. Burant, S. S. Iyengar, J. Tomasi, 
 M. Cossi, N. Rega, J. M. Millam, M. Klene, J. E. Knox, J. B. Cross, 
 V. Bakken, C. Adamo, J. Jaramillo, R. Gomperts, R. E. Stratmann, 
 O. Yazyev, A. J. Austin, R. Cammi, C. Pomelli, J. W. Ochterski, 
 R. L. Martin, K. Morokuma, V. G. Zakrzewski, G. A. Voth, 
 P. Salvador, J. J. Dannenberg, S. Dapprich, A. D. Daniels, 
 O. Farkas, J. B. Foresman, J. V. Ortiz, J. Cioslowski, 
 and D. J. Fox, Gaussian, Inc., Wallingford CT, 2009.
 
 ******************************************
 Gaussian 09:  IA32W-G09RevA.02 11-Jun-2009
                08-Feb-2021 
 ******************************************
 %chk=D:\Documents\rayGit\FQ\quimicaComputacional\proyecto\decompositionHydrogenP
 eroxide\descompositionByRadicals\gasPhase\step4\ts\tsm062x.chk
 %mem=1500MB
 %nprocshared=4
 Will use up to    4 processors via shared memory.
 ----------------------------------------------------------------------
 # opt=(calcfc,ts,noeigen,maxcycles=100) freq=noraman 6-31+g(d,p) m062x
 ----------------------------------------------------------------------
 1/5=1,6=100,10=4,11=1,14=-1,18=20,26=3,38=1/1,3;
 2/9=110,12=2,17=6,18=5,40=1/2;
 3/5=1,6=6,7=111,11=2,16=1,25=1,30=1,71=2,74=-55/1,2,3;
 4//1;
 5/5=2,38=5/2;
 8/6=4,10=90,11=11/1;
 11/6=1,8=1,9=11,15=111,16=1/1,2,10;
 10/6=1,7=6,13=1/2;
 6/7=2,8=2,9=2,10=2,28=1/1;
 7/10=1,18=20,25=1/1,2,3,16;
 1/5=1,6=100,10=4,11=1,14=-1,18=20/3(2);
 2/9=110/2;
 99//99;
 2/9=110/2;
 3/5=1,6=6,7=111,11=2,16=1,25=1,30=1,71=1,74=-55/1,2,3;
 4/5=5,16=3/1;
 5/5=2,38=5/2;
 7//1,2,3,16;
 1/5=1,6=100,11=1,14=-1,18=20/3(-5);
 2/9=110/2;
 6/7=2,8=2,9=2,10=2,19=2,28=1/1;
 99/9=1/99;
 ---
 ts2
 ---
 Symbolic Z-matrix:
 Charge =  0 Multiplicity = 1
 O                    -1.20732   0.34506   0. 
 H                    -1.64127   1.5705    0. 
 O                     0.11268   0.34506   0. 
 O                    -2.07522   2.79593   0. 
 H                    -1.57875   3.31121  -0.64 
 

 GradGradGradGradGradGradGradGradGradGradGradGradGradGradGradGradGradGrad
 Berny optimization.
 Initialization pass.
                           ----------------------------
                           !    Initial Parameters    !
                           ! (Angstroms and Degrees)  !
 --------------------------                            --------------------------
 ! Name  Definition              Value          Derivative Info.                !
 --------------------------------------------------------------------------------
 ! R1    R(1,2)                  1.3            calculate D2E/DX2 analytically  !
 ! R2    R(1,3)                  1.32           calculate D2E/DX2 analytically  !
 ! R3    R(2,4)                  1.3            calculate D2E/DX2 analytically  !
 ! R4    R(4,5)                  0.96           calculate D2E/DX2 analytically  !
 ! A1    A(2,1,3)              109.5            calculate D2E/DX2 analytically  !
 ! A2    A(2,4,5)              109.4712         calculate D2E/DX2 analytically  !
 ! A3    L(1,2,4,3,-1)         180.0            calculate D2E/DX2 analytically  !
 ! A4    L(1,2,4,3,-2)         180.0            calculate D2E/DX2 analytically  !
 ! D1    D(3,1,4,5)             45.0            calculate D2E/DX2 analytically  !
 --------------------------------------------------------------------------------
 Trust Radius=3.00D-01 FncErr=1.00D-07 GrdErr=1.00D-06
 Number of steps in this run= 100 maximum allowed number of steps= 100.
 Search for a saddle point of order  1.
 GradGradGradGradGradGradGradGradGradGradGradGradGradGradGradGradGradGrad

                          Input orientation:                          
 ---------------------------------------------------------------------
 Center     Atomic      Atomic             Coordinates (Angstroms)
 Number     Number       Type             X           Y           Z
 ---------------------------------------------------------------------
      1          8           0       -1.207323    0.345064    0.000000
      2          1           0       -1.641272    1.570498    0.000000
      3          8           0        0.112677    0.345064    0.000000
      4          8           0       -2.075221    2.795932    0.000000
      5          1           0       -1.578749    3.311214   -0.640000
 ---------------------------------------------------------------------
                    Distance matrix (angstroms):
                    1          2          3          4          5
     1  O    0.000000
     2  H    1.300000   0.000000
     3  O    1.320000   2.139632   0.000000
     4  O    2.600000   1.300000   3.285369   0.000000
     5  H    3.057057   1.855694   3.473984   0.960000   0.000000
 Stoichiometry    H2O3
 Framework group  C1[X(H2O3)]
 Deg. of freedom     9
 Full point group                 C1      NOp   1
 Largest Abelian subgroup         C1      NOp   1
 Largest concise Abelian subgroup C1      NOp   1
                         Standard orientation:                         
 ---------------------------------------------------------------------
 Center     Atomic      Atomic             Coordinates (Angstroms)
 Number     Number       Type             X           Y           Z
 ---------------------------------------------------------------------
      1          8           0        0.695450    0.603359    0.049307
      2          1           0       -0.560945    0.275318   -0.012819
      3          8           0        1.439367   -0.483833   -0.034370
      4          8           0       -1.817341   -0.052723   -0.074945
      5          1           0       -1.978870   -0.809740    0.492887
 ---------------------------------------------------------------------
 Rotational constants (GHZ):     47.2447265      5.1447317      4.6704267
 Standard basis: 6-31+G(d,p) (6D, 7F)
 There are    67 symmetry adapted basis functions of A   symmetry.
 Integral buffers will be    262144 words long.
 Raffenetti 2 integral format.
 Two-electron integral symmetry is turned on.
    67 basis functions,   110 primitive gaussians,    67 cartesian basis functions
    13 alpha electrons       13 beta electrons
       nuclear repulsion energy        64.7814165661 Hartrees.
 NAtoms=    5 NActive=    5 NUniq=    5 SFac= 7.50D-01 NAtFMM=   80 NAOKFM=F Big=F
 One-electron integrals computed using PRISM.
 NBasis=    67 RedAO= T  NBF=    67
 NBsUse=    67 1.00D-06 NBFU=    67
 Harris functional with IExCor= 1009 diagonalized for initial guess.
 ExpMin= 8.45D-02 ExpMax= 5.48D+03 ExpMxC= 8.25D+02 IAcc=2 IRadAn=         0 AccDes= 0.00D+00
 HarFok:  IExCor= 1009 AccDes= 0.00D+00 IRadAn=         0 IDoV= 1
 ScaDFX=  1.000000  1.000000  1.000000  1.000000
 FoFCou: FMM=F IPFlag=           0 FMFlag=      100000 FMFlg1=           0
         NFxFlg=           0 DoJE=T BraDBF=F KetDBF=T FulRan=T
         Omega=  0.000000  0.000000  1.000000  0.000000  0.000000 ICntrl=     500 IOpCl=  0
         NMat0=    1 NMatS0=    1 NMatT0=    0 NMatD0=    1 NMtDS0=    0 NMtDT0=    0
         I1Cent=           4 NGrid=           0.
 Petite list used in FoFCou.
 Initial guess orbital symmetries:
       Occupied  (A) (A) (A) (A) (A) (A) (A) (A) (A) (A) (A) (A)
                 (A)
       Virtual   (A) (A) (A) (A) (A) (A) (A) (A) (A) (A) (A) (A)
                 (A) (A) (A) (A) (A) (A) (A) (A) (A) (A) (A) (A)
                 (A) (A) (A) (A) (A) (A) (A) (A) (A) (A) (A) (A)
                 (A) (A) (A) (A) (A) (A) (A) (A) (A) (A) (A) (A)
                 (A) (A) (A) (A) (A) (A)
 The electronic state of the initial guess is 1-A.
 Requested convergence on RMS density matrix=1.00D-08 within 128 cycles.
 Requested convergence on MAX density matrix=1.00D-06.
 Requested convergence on             energy=1.00D-06.
 No special actions if energy rises.
 Keep R1 ints in memory in canonical form, NReq=3551229.
 Integral accuracy reduced to 1.0D-05 until final iterations.
 EnCoef did     5 forward-backward iterations
 Rare condition: small coef for last iteration:  0.000D+00
 Initial convergence to 1.0D-05 achieved.  Increase integral accuracy.
 Rare condition: small coef for last iteration:  0.000D+00
 Rare condition: small coef for last iteration:  0.000D+00
 Rare condition: small coef for last iteration:  0.000D+00
 Rare condition: small coef for last iteration:  0.000D+00
 Rare condition: small coef for last iteration:  0.000D+00
 Rare condition: small coef for last iteration:  0.000D+00
 Rare condition: small coef for last iteration:  0.000D+00
 Rare condition: small coef for last iteration:  0.000D+00
 Rare condition: small coef for last iteration:  0.000D+00
 Rare condition: small coef for last iteration:  0.000D+00
 Rare condition: small coef for last iteration:  0.000D+00
 Rare condition: small coef for last iteration:  0.000D+00
 Rare condition: small coef for last iteration:  0.000D+00
 Rare condition: small coef for last iteration:  0.000D+00
 Rare condition: small coef for last iteration:  0.000D+00
 Rare condition: small coef for last iteration:  0.000D+00
 Rare condition: small coef for last iteration:  0.000D+00
 Rare condition: small coef for last iteration:  0.000D+00
 Rare condition: small coef for last iteration:  0.000D+00
 Rare condition: small coef for last iteration:  0.000D+00
 SCF Done:  E(RM062X) =  -226.520256482     A.U. after   83 cycles
             Convg  =    0.1320D-08             -V/T =  2.0103
 Range of M.O.s used for correlation:     1    67
 NBasis=    67 NAE=    13 NBE=    13 NFC=     0 NFV=     0
 NROrb=     67 NOA=    13 NOB=    13 NVA=    54 NVB=    54

 **** Warning!!: The largest alpha MO coefficient is  0.15914476D+02

 Symmetrizing basis deriv contribution to polar:
 IMax=3 JMax=2 DiffMx= 0.00D+00
 G2DrvN: will do     6 centers at a time, making    1 passes doing MaxLOS=2.
 Calling FoFCou, ICntrl=  3107 FMM=F I1Cent=   0 AccDes= 0.00D+00.
 FoFDir/FoFCou used for L=0 through L=2.
 End of G2Drv Frequency-dependent properties file   721 does not exist.
 End of G2Drv Frequency-dependent properties file   722 does not exist.
          IDoAtm=11111
          Differentiating once with respect to nuclear coordinates.
          Keep R1 ints in memory in canonical form, NReq=3416925.
          There are    18 degrees of freedom in the 1st order CPHF.  IDoFFX=5.
     12 vectors produced by pass  0 Test12= 3.90D-11 5.56D-07 XBig12= 1.34D-01 2.22D-01.
 AX will form    12 AO Fock derivatives at one time.
     12 vectors produced by pass  1 Test12= 3.90D-11 5.56D-07 XBig12= 2.34D-02 9.25D-02.
     12 vectors produced by pass  2 Test12= 3.90D-11 5.56D-07 XBig12= 4.30D-03 1.52D-02.
     12 vectors produced by pass  3 Test12= 3.90D-11 5.56D-07 XBig12= 6.94D-05 1.94D-03.
     12 vectors produced by pass  4 Test12= 3.90D-11 5.56D-07 XBig12= 6.08D-07 1.59D-04.
      6 vectors produced by pass  5 Test12= 3.90D-11 5.56D-07 XBig12= 3.94D-09 1.51D-05.
      1 vectors produced by pass  6 Test12= 3.90D-11 5.56D-07 XBig12= 1.78D-11 9.33D-07.
 Inverted reduced A of dimension    67 with in-core refinement.
 End of Minotr Frequency-dependent properties file   721 does not exist.
 End of Minotr Frequency-dependent properties file   722 does not exist.

 **********************************************************************

            Population analysis using the SCF density.

 **********************************************************************

 Orbital symmetries:
       Occupied  (A) (A) (A) (A) (A) (A) (A) (A) (A) (A) (A) (A)
                 (A)
       Virtual   (A) (A) (A) (A) (A) (A) (A) (A) (A) (A) (A) (A)
                 (A) (A) (A) (A) (A) (A) (A) (A) (A) (A) (A) (A)
                 (A) (A) (A) (A) (A) (A) (A) (A) (A) (A) (A) (A)
                 (A) (A) (A) (A) (A) (A) (A) (A) (A) (A) (A) (A)
                 (A) (A) (A) (A) (A) (A)
 The electronic state is 1-A.
 Alpha  occ. eigenvalues --  -19.88714 -19.87743 -19.63193  -1.40407  -1.06733
 Alpha  occ. eigenvalues --   -1.01914  -0.69257  -0.65062  -0.61623  -0.52456
 Alpha  occ. eigenvalues --   -0.45357  -0.38373  -0.35930
 Alpha virt. eigenvalues --   -0.21852   0.05024   0.06742   0.11199   0.12869
 Alpha virt. eigenvalues --    0.16585   0.17409   0.17810   0.19431   0.20456
 Alpha virt. eigenvalues --    0.22287   0.24812   0.27270   0.29669   0.32207
 Alpha virt. eigenvalues --    0.34025   0.98291   1.02533   1.06419   1.06762
 Alpha virt. eigenvalues --    1.09659   1.13394   1.14295   1.20215   1.22779
 Alpha virt. eigenvalues --    1.23476   1.26889   1.32075   1.43832   1.44413
 Alpha virt. eigenvalues --    1.47581   1.51981   1.58926   1.60580   1.64103
 Alpha virt. eigenvalues --    1.74608   1.78003   1.84656   1.85559   2.16995
 Alpha virt. eigenvalues --    2.21800   2.39341   2.44019   2.45788   2.59269
 Alpha virt. eigenvalues --    2.62352   2.70928   2.86347   2.99378   3.35033
 Alpha virt. eigenvalues --    3.57821   3.75987   4.08791   4.13410
          Condensed to atoms (all electrons):
              1          2          3          4          5
     1  O    7.724962   0.005959   0.336961  -0.034144   0.004698
     2  H    0.005959   0.355191  -0.014414   0.220585  -0.018111
     3  O    0.336961  -0.014414   7.611886   0.013472  -0.002005
     4  O   -0.034144   0.220585   0.013472   8.355177   0.268533
     5  H    0.004698  -0.018111  -0.002005   0.268533   0.389715
 Mulliken atomic charges:
              1
     1  O   -0.038436
     2  H    0.450790
     3  O    0.054100
     4  O   -0.823623
     5  H    0.357169
 Sum of Mulliken atomic charges =   0.00000
 Mulliken charges with hydrogens summed into heavy atoms:
              1
     1  O   -0.038436
     3  O    0.054100
     4  O   -0.015664
 Sum of Mulliken charges with hydrogens summed into heavy atoms =   0.00000
 APT atomic charges:
              1
     1  O   -0.108440
     2  H    0.373149
     3  O    0.132637
     4  O   -0.962170
     5  H    0.564823
 Sum of APT charges=   0.00000
 APT Atomic charges with hydrogens summed into heavy atoms:
              1
     1  O   -0.108440
     2  H    0.000000
     3  O    0.132637
     4  O   -0.024197
     5  H    0.000000
 Sum of APT charges=   0.00000
 Electronic spatial extent (au):  <R**2>=            244.8993
 Charge=              0.0000 electrons
 Dipole moment (field-independent basis, Debye):
    X=              2.7606    Y=             -0.8800    Z=              1.0269  Tot=              3.0741
 Quadrupole moment (field-independent basis, Debye-Ang):
   XX=            -22.1688   YY=            -16.4312   ZZ=            -17.2479
   XY=              2.3864   XZ=             -2.8362   YZ=             -1.6367
 Traceless Quadrupole moment (field-independent basis, Debye-Ang):
   XX=             -3.5528   YY=              2.1848   ZZ=              1.3680
   XY=              2.3864   XZ=             -2.8362   YZ=             -1.6367
 Octapole moment (field-independent basis, Debye-Ang**2):
  XXX=             14.2466  YYY=             -1.2461  ZZZ=              0.7943  XYY=             -0.2041
  XXY=             -7.0587  XXZ=              3.4203  XZZ=              2.4276  YZZ=             -0.4359
  YYZ=              0.7861  XYZ=              1.7868
 Hexadecapole moment (field-independent basis, Debye-Ang**3):
 XXXX=           -244.9037 YYYY=            -33.2970 ZZZZ=            -15.5404 XXXY=             13.9663
 XXXZ=            -12.8407 YYYX=              2.1024 YYYZ=             -2.1357 ZZZX=             -2.1726
 ZZZY=             -1.2451 XXYY=            -39.0866 XXZZ=            -40.1967 YYZZ=             -7.9838
 XXYZ=             -4.7125 YYXZ=             -1.9193 ZZXY=              0.7967
 N-N= 6.478141656613D+01 E-N=-6.632791565501D+02  KE= 2.242128438320D+02
  Exact polarizability:   0.000   0.000   0.000   0.000   0.000   0.000
 Approx polarizability:  71.026  -7.225  26.974   0.133   0.068  13.832
 Calling FoFJK, ICntrl=    100147 FMM=F ISym2X=0 I1Cent= 0 IOpClX= 0 NMat=1 NMatS=1 NMatT=0.
 ***** Axes restored to original set *****
 -------------------------------------------------------------------
 Center     Atomic                   Forces (Hartrees/Bohr)
 Number     Number              X              Y              Z
 -------------------------------------------------------------------
      1        8           0.133722032   -0.011847965   -0.003438503
      2        1          -0.028745903    0.094418326    0.004388801
      3        8          -0.132023249    0.001084579    0.000558224
      4        8           0.023113799   -0.084062590    0.002566103
      5        1           0.003933321    0.000407650   -0.004074626
 -------------------------------------------------------------------
 Cartesian Forces:  Max     0.133722032 RMS     0.059366324

 GradGradGradGradGradGradGradGradGradGradGradGradGradGradGradGradGradGrad
 Berny optimization.
 Internal  Forces:  Max     0.132052041 RMS     0.053079462
 Search for a saddle point.
 Step number   1 out of a maximum of  100
 All quantities printed in internal units (Hartrees-Bohrs-Radians)
 Swaping is turned off.
 Second derivative matrix not updated -- analytic derivatives used.
 The second derivative matrix:
                          R1        R2        R3        R4        A1
           R1           0.03479
           R2           0.04451   0.32719
           R3           0.07623  -0.01678   0.02880
           R4           0.00346  -0.00685  -0.00562   0.56727
           A1           0.00110   0.00984   0.00180  -0.00241   0.09221
           A2           0.02049   0.00417   0.00982   0.01322   0.00378
           A3           0.00151  -0.00179   0.00345  -0.00052  -0.00171
           A4          -0.01152   0.01036   0.00023   0.00130   0.00159
           D1           0.00083  -0.00289  -0.00077  -0.00080  -0.00115
                          A2        A3        A4        D1
           A2           0.09221
           A3          -0.00447   0.02466
           A4          -0.00511  -0.00704   0.00253
           D1          -0.00197   0.00326   0.00081  -0.00004
     Eigenvalues ---   -0.05157  -0.00118   0.00188   0.02619   0.07730
     Eigenvalues ---    0.09202   0.12246   0.33463   0.56790
 Eigenvectors required to have negative eigenvalues:
                          R1        R3        A4        R2        A2
   1                    0.69663  -0.68315   0.17406  -0.11703  -0.04190
                          D1        A3        R4        A1
   1                   -0.03421   0.02958  -0.01084   0.01027
 RFO step:  Lambda0=6.056643939D-02 Lambda=-5.89305892D-02.
 Linear search not attempted -- option 19 set.
 Maximum step size (   0.300) exceeded in Quadratic search.
    -- Step size scaled by   0.259
 Iteration  1 RMS(Cart)=  0.08764037 RMS(Int)=  0.00423987
 Iteration  2 RMS(Cart)=  0.00365983 RMS(Int)=  0.00001113
 Iteration  3 RMS(Cart)=  0.00001319 RMS(Int)=  0.00000000
 Iteration  4 RMS(Cart)=  0.00000000 RMS(Int)=  0.00000000
 Variable       Old X    -DE/DX   Delta X   Delta X   Delta X     New X
                                 (Linear)    (Quad)   (Total)
    R1        2.45664   0.01074   0.00000  -0.17649  -0.17649   2.28016
    R2        2.49444  -0.13205   0.00000  -0.05338  -0.05338   2.44106
    R3        2.45664  -0.08788   0.00000   0.05316   0.05316   2.50980
    R4        1.81414   0.00497   0.00000   0.00358   0.00358   1.81772
    A1        1.91114  -0.00255   0.00000   0.00127   0.00127   1.91241
    A2        1.91063  -0.00501   0.00000   0.01276   0.01276   1.92339
    A3        3.14159   0.00245   0.00000  -0.04283  -0.04283   3.09876
    A4        3.14159  -0.00427   0.00000  -0.17544  -0.17544   2.96615
    D1        0.78540   0.00054   0.00000   0.14278   0.14278   0.92818
         Item               Value     Threshold  Converged?
 Maximum Force            0.132052     0.000450     NO 
 RMS     Force            0.053079     0.000300     NO 
 Maximum Displacement     0.107233     0.001800     NO 
 RMS     Displacement     0.088431     0.001200     NO 
 Predicted change in Energy=-6.771461D-04
 GradGradGradGradGradGradGradGradGradGradGradGradGradGradGradGradGradGrad

                          Input orientation:                          
 ---------------------------------------------------------------------
 Center     Atomic      Atomic             Coordinates (Angstroms)
 Number     Number       Type             X           Y           Z
 ---------------------------------------------------------------------
      1          8           0       -1.217390    0.392934   -0.056745
      2          1           0       -1.634833    1.520275    0.046914
      3          8           0        0.072244    0.400534    0.016832
      4          8           0       -2.039479    2.784967    0.019605
      5          1           0       -1.570430    3.269062   -0.666606
 ---------------------------------------------------------------------
                    Distance matrix (angstroms):
                    1          2          3          4          5
     1  O    0.000000
     2  H    1.206607   0.000000
     3  O    1.291753   2.041773   0.000000
     4  O    2.530511   1.328131   3.185107   0.000000
     5  H    2.961195   1.889845   3.375488   0.961894   0.000000
 Stoichiometry    H2O3
 Framework group  C1[X(H2O3)]
 Deg. of freedom     9
 Full point group                 C1      NOp   1
 Largest Abelian subgroup         C1      NOp   1
 Largest concise Abelian subgroup C1      NOp   1
                         Standard orientation:                         
 ---------------------------------------------------------------------
 Center     Atomic      Atomic             Coordinates (Angstroms)
 Number     Number       Type             X           Y           Z
 ---------------------------------------------------------------------
      1          8           0        0.675050    0.592482    0.057273
      2          1           0       -0.490822    0.311665   -0.076097
      3          8           0        1.391583   -0.478183   -0.036970
      4          8           0       -1.765693   -0.060602   -0.083224
      5          1           0       -1.916698   -0.741249    0.579465
 ---------------------------------------------------------------------
 Rotational constants (GHZ):     48.2663840      5.4646163      4.9558509
 Standard basis: 6-31+G(d,p) (6D, 7F)
 There are    67 symmetry adapted basis functions of A   symmetry.
 Integral buffers will be    262144 words long.
 Raffenetti 2 integral format.
 Two-electron integral symmetry is turned on.
    67 basis functions,   110 primitive gaussians,    67 cartesian basis functions
    13 alpha electrons       13 beta electrons
       nuclear repulsion energy        66.3691193318 Hartrees.
 NAtoms=    5 NActive=    5 NUniq=    5 SFac= 7.50D-01 NAtFMM=   80 NAOKFM=F Big=F
 One-electron integrals computed using PRISM.
 NBasis=    67 RedAO= T  NBF=    67
 NBsUse=    67 1.00D-06 NBFU=    67
 Initial guess read from the read-write file.
 B after Tr=     0.000000    0.000000    0.000000
         Rot=    1.000000    0.000000    0.000000    0.000000 Ang=   0.00 deg.
 Initial guess orbital symmetries:
       Occupied  (A) (A) (A) (A) (A) (A) (A) (A) (A) (A) (A) (A)
                 (A)
       Virtual   (A) (A) (A) (A) (A) (A) (A) (A) (A) (A) (A) (A)
                 (A) (A) (A) (A) (A) (A) (A) (A) (A) (A) (A) (A)
                 (A) (A) (A) (A) (A) (A) (A) (A) (A) (A) (A) (A)
                 (A) (A) (A) (A) (A) (A) (A) (A) (A) (A) (A) (A)
                 (A) (A) (A) (A) (A) (A)
 Harris functional with IExCor= 1009 diagonalized for initial guess.
 ExpMin= 8.45D-02 ExpMax= 5.48D+03 ExpMxC= 8.25D+02 IAcc=2 IRadAn=         0 AccDes= 0.00D+00
 HarFok:  IExCor= 1009 AccDes= 0.00D+00 IRadAn=         0 IDoV= 1
 ScaDFX=  1.000000  1.000000  1.000000  1.000000
 FoFCou: FMM=F IPFlag=           0 FMFlag=      100000 FMFlg1=           0
         NFxFlg=           0 DoJE=T BraDBF=F KetDBF=T FulRan=T
         Omega=  0.000000  0.000000  1.000000  0.000000  0.000000 ICntrl=     500 IOpCl=  0
         NMat0=    1 NMatS0=    1 NMatT0=    0 NMatD0=    1 NMtDS0=    0 NMtDT0=    0
         I1Cent=           4 NGrid=           0.
 Petite list used in FoFCou.
 Requested convergence on RMS density matrix=1.00D-08 within 128 cycles.
 Requested convergence on MAX density matrix=1.00D-06.
 Requested convergence on             energy=1.00D-06.
 No special actions if energy rises.
 Keep R1 ints in memory in canonical form, NReq=3551083.
 Integral accuracy reduced to 1.0D-05 until final iterations.
 Initial convergence to 1.0D-05 achieved.  Increase integral accuracy.
 SCF Done:  E(RM062X) =  -226.520660094     A.U. after   29 cycles
             Convg  =    0.3634D-08             -V/T =  2.0098
 Calling FoFJK, ICntrl=      2127 FMM=F ISym2X=0 I1Cent= 0 IOpClX= 0 NMat=1 NMatS=1 NMatT=0.
 ***** Axes restored to original set *****
 -------------------------------------------------------------------
 Center     Atomic                   Forces (Hartrees/Bohr)
 Number     Number              X              Y              Z
 -------------------------------------------------------------------
      1        8           0.104586338   -0.014094016   -0.000034352
      2        1          -0.025141745    0.086415671    0.005572271
      3        8          -0.100646108   -0.000217380   -0.004845807
      4        8           0.018740729   -0.072673257    0.002448546
      5        1           0.002460786    0.000568982   -0.003140658
 -------------------------------------------------------------------
 Cartesian Forces:  Max     0.104586338 RMS     0.048356864

 GradGradGradGradGradGradGradGradGradGradGradGradGradGradGradGradGradGrad
 Berny optimization.
 Internal  Forces:  Max     0.100672438 RMS     0.042238039
 Search for a saddle point.
 Step number   2 out of a maximum of  100
 All quantities printed in internal units (Hartrees-Bohrs-Radians)
 Swaping is turned off.
 Update second derivatives using D2CorX and points    1    2
 The second derivative matrix:
                          R1        R2        R3        R4        A1
           R1           0.04141
           R2           0.05212   0.33332
           R3           0.07941  -0.01553   0.02811
           R4           0.00373  -0.00673  -0.00566   0.56727
           A1           0.00189   0.01036   0.00182  -0.00241   0.09225
           A2           0.02236   0.00523   0.00971   0.01322   0.00384
           A3           0.00236  -0.00046   0.00418  -0.00046  -0.00155
           A4          -0.00873   0.01531   0.00320   0.00154   0.00218
           D1          -0.00107  -0.00667  -0.00317  -0.00099  -0.00161
                          A2        A3        A4        D1
           A2           0.09228
           A3          -0.00408   0.02473
           A4          -0.00358  -0.00692   0.00251
           D1          -0.00318   0.00323   0.00109  -0.00049
     Eigenvalues ---   -0.05323  -0.00164   0.00219   0.02619   0.07795
     Eigenvalues ---    0.09204   0.12632   0.34367   0.56790
 Eigenvectors required to have negative eigenvalues:
                          R3        R1        A4        R2        D1
   1                    0.69406  -0.67981  -0.18327   0.12740   0.05275
                          A2        A3        R4        A1
   1                    0.04848  -0.03190   0.01125  -0.00701
 RFO step:  Lambda0=5.235226216D-02 Lambda=-3.79177557D-02.
 Linear search not attempted -- option 19 set.
 Maximum step size (   0.300) exceeded in Quadratic search.
    -- Step size scaled by   0.264
 Iteration  1 RMS(Cart)=  0.08094555 RMS(Int)=  0.00573751
 Iteration  2 RMS(Cart)=  0.00467373 RMS(Int)=  0.00002063
 Iteration  3 RMS(Cart)=  0.00002442 RMS(Int)=  0.00000000
 Iteration  4 RMS(Cart)=  0.00000000 RMS(Int)=  0.00000000
 Variable       Old X    -DE/DX   Delta X   Delta X   Delta X     New X
                                 (Linear)    (Quad)   (Total)
    R1        2.28016   0.01503   0.00000  -0.15093  -0.15093   2.12923
    R2        2.44106  -0.10067   0.00000  -0.03169  -0.03169   2.40937
    R3        2.50980  -0.07510   0.00000   0.06034   0.06034   2.57014
    R4        1.81772   0.00376   0.00000   0.00342   0.00342   1.82113
    A1        1.91241  -0.00137   0.00000   0.00502   0.00502   1.91743
    A2        1.92339  -0.00288   0.00000   0.01936   0.01936   1.94275
    A3        3.09876   0.00205   0.00000  -0.04248  -0.04248   3.05628
    A4        2.96615  -0.00514   0.00000  -0.19231  -0.19231   2.77384
    D1        0.92818   0.00061   0.00000   0.15289   0.15289   1.08107
         Item               Value     Threshold  Converged?
 Maximum Force            0.100672     0.000450     NO 
 RMS     Force            0.042238     0.000300     NO 
 Maximum Displacement     0.111622     0.001800     NO 
 RMS     Displacement     0.081777     0.001200     NO 
 Predicted change in Energy= 2.662340D-03
 GradGradGradGradGradGradGradGradGradGradGradGradGradGradGradGradGradGrad

                          Input orientation:                          
 ---------------------------------------------------------------------
 Center     Atomic      Atomic             Coordinates (Angstroms)
 Number     Number       Type             X           Y           Z
 ---------------------------------------------------------------------
      1          8           0       -1.224282    0.443295   -0.115813
      2          1           0       -1.630406    1.472932    0.095017
      3          8           0        0.041413    0.437099    0.037676
      4          8           0       -2.004239    2.779325    0.037095
      5          1           0       -1.572374    3.235121   -0.693975
 ---------------------------------------------------------------------
                    Distance matrix (angstroms):
                    1          2          3          4          5
     1  O    0.000000
     2  H    1.126738   0.000000
     3  O    1.274983   1.967541   0.000000
     4  O    2.467539   1.360062   3.109777   0.000000
     5  H    2.872235   1.931629   3.311880   0.963702   0.000000
 Stoichiometry    H2O3
 Framework group  C1[X(H2O3)]
 Deg. of freedom     9
 Full point group                 C1      NOp   1
 Largest Abelian subgroup         C1      NOp   1
 Largest concise Abelian subgroup C1      NOp   1
                         Standard orientation:                         
 ---------------------------------------------------------------------
 Center     Atomic      Atomic             Coordinates (Angstroms)
 Number     Number       Type             X           Y           Z
 ---------------------------------------------------------------------
      1          8           0        0.650278    0.583382    0.063054
      2          1           0       -0.428806    0.339533   -0.150618
      3          8           0        1.360512   -0.470757   -0.036647
      4          8           0       -1.723295   -0.073344   -0.090621
      5          1           0       -1.871157   -0.653781    0.664330
 ---------------------------------------------------------------------
 Rotational constants (GHZ):     49.2235506      5.7333790      5.2023514
 Standard basis: 6-31+G(d,p) (6D, 7F)
 There are    67 symmetry adapted basis functions of A   symmetry.
 Integral buffers will be    262144 words long.
 Raffenetti 2 integral format.
 Two-electron integral symmetry is turned on.
    67 basis functions,   110 primitive gaussians,    67 cartesian basis functions
    13 alpha electrons       13 beta electrons
       nuclear repulsion energy        67.6192269587 Hartrees.
 NAtoms=    5 NActive=    5 NUniq=    5 SFac= 7.50D-01 NAtFMM=   80 NAOKFM=F Big=F
 One-electron integrals computed using PRISM.
 NBasis=    67 RedAO= T  NBF=    67
 NBsUse=    67 1.00D-06 NBFU=    67
 Initial guess read from the read-write file.
 B after Tr=     0.000000    0.000000    0.000000
         Rot=    1.000000    0.000000    0.000000    0.000000 Ang=   0.00 deg.
 Initial guess orbital symmetries:
       Occupied  (A) (A) (A) (A) (A) (A) (A) (A) (A) (A) (A) (A)
                 (A)
       Virtual   (A) (A) (A) (A) (A) (A) (A) (A) (A) (A) (A) (A)
                 (A) (A) (A) (A) (A) (A) (A) (A) (A) (A) (A) (A)
                 (A) (A) (A) (A) (A) (A) (A) (A) (A) (A) (A) (A)
                 (A) (A) (A) (A) (A) (A) (A) (A) (A) (A) (A) (A)
                 (A) (A) (A) (A) (A) (A)
 Harris functional with IExCor= 1009 diagonalized for initial guess.
 ExpMin= 8.45D-02 ExpMax= 5.48D+03 ExpMxC= 8.25D+02 IAcc=2 IRadAn=         0 AccDes= 0.00D+00
 HarFok:  IExCor= 1009 AccDes= 0.00D+00 IRadAn=         0 IDoV= 1
 ScaDFX=  1.000000  1.000000  1.000000  1.000000
 FoFCou: FMM=F IPFlag=           0 FMFlag=      100000 FMFlg1=           0
         NFxFlg=           0 DoJE=T BraDBF=F KetDBF=T FulRan=T
         Omega=  0.000000  0.000000  1.000000  0.000000  0.000000 ICntrl=     500 IOpCl=  0
         NMat0=    1 NMatS0=    1 NMatT0=    0 NMatD0=    1 NMtDS0=    0 NMtDT0=    0
         I1Cent=           4 NGrid=           0.
 Petite list used in FoFCou.
 Requested convergence on RMS density matrix=1.00D-08 within 128 cycles.
 Requested convergence on MAX density matrix=1.00D-06.
 Requested convergence on             energy=1.00D-06.
 No special actions if energy rises.
 Keep R1 ints in memory in canonical form, NReq=3551083.
 Integral accuracy reduced to 1.0D-05 until final iterations.
 Initial convergence to 1.0D-05 achieved.  Increase integral accuracy.
 SCF Done:  E(RM062X) =  -226.517570348     A.U. after   27 cycles
             Convg  =    0.4277D-08             -V/T =  2.0093
 Calling FoFJK, ICntrl=      2127 FMM=F ISym2X=0 I1Cent= 0 IOpClX= 0 NMat=1 NMatS=1 NMatT=0.
 ***** Axes restored to original set *****
 -------------------------------------------------------------------
 Center     Atomic                   Forces (Hartrees/Bohr)
 Number     Number              X              Y              Z
 -------------------------------------------------------------------
      1        8           0.082236541   -0.020539956   -0.000286542
      2        1          -0.023562693    0.080571874    0.008363039
      3        8          -0.074712781    0.000186574   -0.008011255
      4        8           0.014777193   -0.060466947    0.001917735
      5        1           0.001261741    0.000248455   -0.001982977
 -------------------------------------------------------------------
 Cartesian Forces:  Max     0.082236541 RMS     0.039859657

 GradGradGradGradGradGradGradGradGradGradGradGradGradGradGradGradGradGrad
 Berny optimization.
 Internal  Forces:  Max     0.074883231 RMS     0.033389566
 Search for a saddle point.
 Step number   3 out of a maximum of  100
 All quantities printed in internal units (Hartrees-Bohrs-Radians)
 Swaping is turned off.
 Update second derivatives using D2CorX and points    1    2    3
 The second derivative matrix:
                          R1        R2        R3        R4        A1
           R1           0.06524
           R2           0.06091   0.33644
           R3           0.08269  -0.01480   0.02673
           R4           0.00221  -0.00725  -0.00572   0.56736
           A1           0.00125   0.01012   0.00173  -0.00237   0.09227
           A2           0.02296   0.00532   0.00930   0.01322   0.00382
           A3           0.00282  -0.00006   0.00515  -0.00056  -0.00157
           A4          -0.00074   0.01908   0.00739   0.00078   0.00197
           D1          -0.00792  -0.00983  -0.00651  -0.00036  -0.00143
                          A2        A3        A4        D1
           A2           0.09216
           A3          -0.00383   0.02429
           A4          -0.00255  -0.00829  -0.00002
           D1          -0.00400   0.00428   0.00285  -0.00167
     Eigenvalues ---   -0.04768  -0.00682   0.00174   0.02664   0.08050
     Eigenvalues ---    0.09263   0.13628   0.35151   0.56800
 Eigenvectors required to have negative eigenvalues:
                          R3        R1        A4        R2        A3
   1                    0.74173  -0.62308  -0.18877   0.13786  -0.05090
                          D1        A2        A1        R4
   1                    0.04714   0.04364  -0.01204   0.01000
 RFO step:  Lambda0=4.963306236D-02 Lambda=-2.49257082D-02.
 Linear search not attempted -- option 19 set.
 Maximum step size (   0.300) exceeded in Quadratic search.
    -- Step size scaled by   0.265
 Iteration  1 RMS(Cart)=  0.07233192 RMS(Int)=  0.01516193
 Iteration  2 RMS(Cart)=  0.01258754 RMS(Int)=  0.00018740
 Iteration  3 RMS(Cart)=  0.00016644 RMS(Int)=  0.00000003
 Iteration  4 RMS(Cart)=  0.00000003 RMS(Int)=  0.00000000
 Variable       Old X    -DE/DX   Delta X   Delta X   Delta X     New X
                                 (Linear)    (Quad)   (Total)
    R1        2.12923   0.02255   0.00000  -0.10544  -0.10544   2.02378
    R2        2.40937  -0.07488   0.00000  -0.01284  -0.01284   2.39653
    R3        2.57014  -0.06224   0.00000   0.09738   0.09738   2.66753
    R4        1.82113   0.00221   0.00000   0.00249   0.00249   1.82363
    A1        1.91743  -0.00097   0.00000   0.00120   0.00120   1.91863
    A2        1.94275  -0.00169   0.00000   0.01012   0.01012   1.95287
    A3        3.05628   0.00104   0.00000  -0.06421  -0.06421   2.99207
    A4        2.77384  -0.00585   0.00000  -0.23956  -0.23956   2.53428
    D1        1.08107   0.00057   0.00000   0.08726   0.08726   1.16832
         Item               Value     Threshold  Converged?
 Maximum Force            0.074883     0.000450     NO 
 RMS     Force            0.033390     0.000300     NO 
 Maximum Displacement     0.123057     0.001800     NO 
 RMS     Displacement     0.081064     0.001200     NO 
 Predicted change in Energy= 5.583624D-03
 GradGradGradGradGradGradGradGradGradGradGradGradGradGradGradGradGradGrad

                          Input orientation:                          
 ---------------------------------------------------------------------
 Center     Atomic      Atomic             Coordinates (Angstroms)
 Number     Number       Type             X           Y           Z
 ---------------------------------------------------------------------
      1          8           0       -1.227671    0.489853   -0.169897
      2          1           0       -1.643435    1.419978    0.160136
      3          8           0        0.022227    0.474866    0.044199
      4          8           0       -1.987060    2.783886    0.040671
      5          1           0       -1.553949    3.199189   -0.715109
 ---------------------------------------------------------------------
                    Distance matrix (angstroms):
                    1          2          3          4          5
     1  O    0.000000
     2  H    1.070941   0.000000
     3  O    1.268190   1.918621   0.000000
     4  O    2.425613   1.411594   3.060853   0.000000
     5  H    2.782843   1.984857   3.237718   0.965022   0.000000
 Stoichiometry    H2O3
 Framework group  C1[X(H2O3)]
 Deg. of freedom     9
 Full point group                 C1      NOp   1
 Largest Abelian subgroup         C1      NOp   1
 Largest concise Abelian subgroup C1      NOp   1
                         Standard orientation:                         
 ---------------------------------------------------------------------
 Center     Atomic      Atomic             Coordinates (Angstroms)
 Number     Number       Type             X           Y           Z
 ---------------------------------------------------------------------
      1          8           0        0.630361    0.579129    0.069784
      2          1           0       -0.371666    0.375190   -0.248436
      3          8           0        1.339123   -0.467113   -0.036700
      4          8           0       -1.697187   -0.084212   -0.091775
      5          1           0       -1.806711   -0.597632    0.717960
 ---------------------------------------------------------------------
 Rotational constants (GHZ):     49.3000805      5.9291001      5.3783280
 Standard basis: 6-31+G(d,p) (6D, 7F)
 There are    67 symmetry adapted basis functions of A   symmetry.
 Integral buffers will be    262144 words long.
 Raffenetti 2 integral format.
 Two-electron integral symmetry is turned on.
    67 basis functions,   110 primitive gaussians,    67 cartesian basis functions
    13 alpha electrons       13 beta electrons
       nuclear repulsion energy        68.3730932451 Hartrees.
 NAtoms=    5 NActive=    5 NUniq=    5 SFac= 7.50D-01 NAtFMM=   80 NAOKFM=F Big=F
 One-electron integrals computed using PRISM.
 NBasis=    67 RedAO= T  NBF=    67
 NBsUse=    67 1.00D-06 NBFU=    67
 Initial guess read from the read-write file.
 B after Tr=     0.000000    0.000000    0.000000
         Rot=    1.000000    0.000000    0.000000    0.000000 Ang=   0.00 deg.
 Initial guess orbital symmetries:
       Occupied  (A) (A) (A) (A) (A) (A) (A) (A) (A) (A) (A) (A)
                 (A)
       Virtual   (A) (A) (A) (A) (A) (A) (A) (A) (A) (A) (A) (A)
                 (A) (A) (A) (A) (A) (A) (A) (A) (A) (A) (A) (A)
                 (A) (A) (A) (A) (A) (A) (A) (A) (A) (A) (A) (A)
                 (A) (A) (A) (A) (A) (A) (A) (A) (A) (A) (A) (A)
                 (A) (A) (A) (A) (A) (A)
 Harris functional with IExCor= 1009 diagonalized for initial guess.
 ExpMin= 8.45D-02 ExpMax= 5.48D+03 ExpMxC= 8.25D+02 IAcc=2 IRadAn=         0 AccDes= 0.00D+00
 HarFok:  IExCor= 1009 AccDes= 0.00D+00 IRadAn=         0 IDoV= 1
 ScaDFX=  1.000000  1.000000  1.000000  1.000000
 FoFCou: FMM=F IPFlag=           0 FMFlag=      100000 FMFlg1=           0
         NFxFlg=           0 DoJE=T BraDBF=F KetDBF=T FulRan=T
         Omega=  0.000000  0.000000  1.000000  0.000000  0.000000 ICntrl=     500 IOpCl=  0
         NMat0=    1 NMatS0=    1 NMatT0=    0 NMatD0=    1 NMtDS0=    0 NMtDT0=    0
         I1Cent=           4 NGrid=           0.
 Petite list used in FoFCou.
 Requested convergence on RMS density matrix=1.00D-08 within 128 cycles.
 Requested convergence on MAX density matrix=1.00D-06.
 Requested convergence on             energy=1.00D-06.
 No special actions if energy rises.
 Keep R1 ints in memory in canonical form, NReq=3551083.
 Integral accuracy reduced to 1.0D-05 until final iterations.
 Initial convergence to 1.0D-05 achieved.  Increase integral accuracy.
 SCF Done:  E(RM062X) =  -226.511632103     A.U. after   27 cycles
             Convg  =    0.1078D-08             -V/T =  2.0090
 Calling FoFJK, ICntrl=      2127 FMM=F ISym2X=0 I1Cent= 0 IOpClX= 0 NMat=1 NMatS=1 NMatT=0.
 ***** Axes restored to original set *****
 -------------------------------------------------------------------
 Center     Atomic                   Forces (Hartrees/Bohr)
 Number     Number              X              Y              Z
 -------------------------------------------------------------------
      1        8           0.068403890   -0.022859091   -0.003858293
      2        1          -0.023130519    0.074857859    0.011119024
      3        8          -0.057471677   -0.000239691   -0.008805808
      4        8           0.011367622   -0.052027719    0.002961636
      5        1           0.000830684    0.000268641   -0.001416560
 -------------------------------------------------------------------
 Cartesian Forces:  Max     0.074857859 RMS     0.034358026

 GradGradGradGradGradGradGradGradGradGradGradGradGradGradGradGradGradGrad
 Berny optimization.
 Internal  Forces:  Max     0.057713975 RMS     0.027812841
 Search for a saddle point.
 Step number   4 out of a maximum of  100
 All quantities printed in internal units (Hartrees-Bohrs-Radians)
 Swaping is turned off.
 Update second derivatives using D2CorX and points    2    3    4
 The second derivative matrix:
                          R1        R2        R3        R4        A1
           R1           0.08295
           R2           0.06048   0.33635
           R3           0.08123  -0.01438   0.02536
           R4           0.00227  -0.00723  -0.00578   0.56735
           A1           0.00182   0.01014   0.00157  -0.00237   0.09228
           A2           0.02441   0.00539   0.00877   0.01321   0.00384
           A3           0.00500  -0.00032   0.00582  -0.00052  -0.00143
           A4           0.00933   0.01805   0.00963   0.00094   0.00252
           D1          -0.01414  -0.00937  -0.00716  -0.00043  -0.00172
                          A2        A3        A4        D1
           A2           0.09216
           A3          -0.00342   0.02408
           A4          -0.00088  -0.00879  -0.00061
           D1          -0.00484   0.00417   0.00171  -0.00043
     Eigenvalues ---   -0.03905  -0.00870   0.00099   0.02682   0.08139
     Eigenvalues ---    0.09270   0.14497   0.35239   0.56800
 Eigenvectors required to have negative eigenvalues:
                          R3        R1        R2        A4        A2
   1                    0.78547  -0.58903   0.13000  -0.12101   0.04835
                          A3        D1        A1        R4
   1                   -0.03787  -0.02328  -0.01091   0.01029
 RFO step:  Lambda0=4.813284496D-02 Lambda=-1.77431348D-02.
 Linear search not attempted -- option 19 set.
 Maximum step size (   0.300) exceeded in Quadratic search.
    -- Step size scaled by   0.255
 Iteration  1 RMS(Cart)=  0.07061662 RMS(Int)=  0.01666107
 Iteration  2 RMS(Cart)=  0.01452140 RMS(Int)=  0.00025329
 Iteration  3 RMS(Cart)=  0.00021385 RMS(Int)=  0.00000005
 Iteration  4 RMS(Cart)=  0.00000006 RMS(Int)=  0.00000000
 Variable       Old X    -DE/DX   Delta X   Delta X   Delta X     New X
                                 (Linear)    (Quad)   (Total)
    R1        2.02378   0.02769   0.00000  -0.08523  -0.08523   1.93855
    R2        2.39653  -0.05771   0.00000  -0.00433  -0.00433   2.39220
    R3        2.66753  -0.05310   0.00000   0.13711   0.13711   2.80464
    R4        1.82363   0.00161   0.00000   0.00272   0.00272   1.82635
    A1        1.91863  -0.00028   0.00000   0.00256   0.00256   1.92119
    A2        1.95287  -0.00088   0.00000   0.00773   0.00773   1.96060
    A3        2.99207   0.00011   0.00000  -0.07023  -0.07023   2.92185
    A4        2.53428  -0.00642   0.00000  -0.24234  -0.24234   2.29194
    D1        1.16832   0.00042   0.00000   0.01346   0.01346   1.18179
         Item               Value     Threshold  Converged?
 Maximum Force            0.057714     0.000450     NO 
 RMS     Force            0.027813     0.000300     NO 
 Maximum Displacement     0.134623     0.001800     NO 
 RMS     Displacement     0.080088     0.001200     NO 
 Predicted change in Energy= 7.211831D-03
 GradGradGradGradGradGradGradGradGradGradGradGradGradGradGradGradGradGrad

                          Input orientation:                          
 ---------------------------------------------------------------------
 Center     Atomic      Atomic             Coordinates (Angstroms)
 Number     Number       Type             X           Y           Z
 ---------------------------------------------------------------------
      1          8           0       -1.231226    0.536820   -0.208943
      2          1           0       -1.658408    1.359000    0.231376
      3          8           0        0.010203    0.507903    0.037052
      4          8           0       -1.988519    2.791637    0.028200
      5          1           0       -1.521939    3.172413   -0.727685
 ---------------------------------------------------------------------
                    Distance matrix (angstroms):
                    1          2          3          4          5
     1  O    0.000000
     2  H    1.025838   0.000000
     3  O    1.265897   1.883186   0.000000
     4  O    2.390383   1.484151   3.034866   0.000000
     5  H    2.701843   2.055940   3.167316   0.966463   0.000000
 Stoichiometry    H2O3
 Framework group  C1[X(H2O3)]
 Deg. of freedom     9
 Full point group                 C1      NOp   1
 Largest Abelian subgroup         C1      NOp   1
 Largest concise Abelian subgroup C1      NOp   1
                         Standard orientation:                         
 ---------------------------------------------------------------------
 Center     Atomic      Atomic             Coordinates (Angstroms)
 Number     Number       Type             X           Y           Z
 ---------------------------------------------------------------------
      1          8           0        0.608489    0.572811    0.080624
      2          1           0       -0.309830    0.413238   -0.347826
      3          8           0        1.329656   -0.460591   -0.039774
      4          8           0       -1.682035   -0.089505   -0.088972
      5          1           0       -1.739050   -0.594952    0.732808
 ---------------------------------------------------------------------
 Rotational constants (GHZ):     49.6152731      6.0595079      5.5008796
 Standard basis: 6-31+G(d,p) (6D, 7F)
 There are    67 symmetry adapted basis functions of A   symmetry.
 Integral buffers will be    262144 words long.
 Raffenetti 2 integral format.
 Two-electron integral symmetry is turned on.
    67 basis functions,   110 primitive gaussians,    67 cartesian basis functions
    13 alpha electrons       13 beta electrons
       nuclear repulsion energy        68.8495918390 Hartrees.
 NAtoms=    5 NActive=    5 NUniq=    5 SFac= 7.50D-01 NAtFMM=   80 NAOKFM=F Big=F
 One-electron integrals computed using PRISM.
 NBasis=    67 RedAO= T  NBF=    67
 NBsUse=    67 1.00D-06 NBFU=    67
 Initial guess read from the read-write file.
 B after Tr=     0.000000    0.000000    0.000000
         Rot=    1.000000    0.000000    0.000000    0.000000 Ang=   0.00 deg.
 Initial guess orbital symmetries:
       Occupied  (A) (A) (A) (A) (A) (A) (A) (A) (A) (A) (A) (A)
                 (A)
       Virtual   (A) (A) (A) (A) (A) (A) (A) (A) (A) (A) (A) (A)
                 (A) (A) (A) (A) (A) (A) (A) (A) (A) (A) (A) (A)
                 (A) (A) (A) (A) (A) (A) (A) (A) (A) (A) (A) (A)
                 (A) (A) (A) (A) (A) (A) (A) (A) (A) (A) (A) (A)
                 (A) (A) (A) (A) (A) (A)
 Harris functional with IExCor= 1009 diagonalized for initial guess.
 ExpMin= 8.45D-02 ExpMax= 5.48D+03 ExpMxC= 8.25D+02 IAcc=2 IRadAn=         0 AccDes= 0.00D+00
 HarFok:  IExCor= 1009 AccDes= 0.00D+00 IRadAn=         0 IDoV= 1
 ScaDFX=  1.000000  1.000000  1.000000  1.000000
 FoFCou: FMM=F IPFlag=           0 FMFlag=      100000 FMFlg1=           0
         NFxFlg=           0 DoJE=T BraDBF=F KetDBF=T FulRan=T
         Omega=  0.000000  0.000000  1.000000  0.000000  0.000000 ICntrl=     500 IOpCl=  0
         NMat0=    1 NMatS0=    1 NMatT0=    0 NMatD0=    1 NMtDS0=    0 NMtDT0=    0
         I1Cent=           4 NGrid=           0.
 Petite list used in FoFCou.
 Requested convergence on RMS density matrix=1.00D-08 within 128 cycles.
 Requested convergence on MAX density matrix=1.00D-06.
 Requested convergence on             energy=1.00D-06.
 No special actions if energy rises.
 Keep R1 ints in memory in canonical form, NReq=3551083.
 Integral accuracy reduced to 1.0D-05 until final iterations.
 Initial convergence to 1.0D-05 achieved.  Increase integral accuracy.
 SCF Done:  E(RM062X) =  -226.504339865     A.U. after   27 cycles
             Convg  =    0.3502D-08             -V/T =  2.0088
 Calling FoFJK, ICntrl=      2127 FMM=F ISym2X=0 I1Cent= 0 IOpClX= 0 NMat=1 NMatS=1 NMatT=0.
 ***** Axes restored to original set *****
 -------------------------------------------------------------------
 Center     Atomic                   Forces (Hartrees/Bohr)
 Number     Number              X              Y              Z
 -------------------------------------------------------------------
      1        8           0.058668105   -0.023111168   -0.010475086
      2        1          -0.023896135    0.067892498    0.015690986
      3        8          -0.044768695   -0.000187788   -0.007939879
      4        8           0.009563897   -0.044923827    0.003582338
      5        1           0.000432828    0.000330285   -0.000858359
 -------------------------------------------------------------------
 Cartesian Forces:  Max     0.067892498 RMS     0.030224958

 GradGradGradGradGradGradGradGradGradGradGradGradGradGradGradGradGradGrad
 Berny optimization.
 Internal  Forces:  Max     0.045626503 RMS     0.023907770
 Search for a saddle point.
 Step number   5 out of a maximum of  100
 All quantities printed in internal units (Hartrees-Bohrs-Radians)
 Swaping is turned off.
 Update second derivatives using D2CorX and points    3    4    5
 The second derivative matrix:
                          R1        R2        R3        R4        A1
           R1           0.09487
           R2           0.06075   0.33634
           R3           0.07618  -0.01420   0.02156
           R4           0.00200  -0.00724  -0.00571   0.56736
           A1           0.00009   0.01006   0.00304  -0.00233   0.09244
           A2           0.02533   0.00546   0.00735   0.01318   0.00383
           A3           0.00697  -0.00046   0.00857  -0.00054  -0.00216
           A4           0.02219   0.01786   0.01381   0.00071  -0.00053
           D1          -0.01667  -0.00938  -0.00695  -0.00038  -0.00124
                          A2        A3        A4        D1
           A2           0.09206
           A3          -0.00264   0.02223
           A4           0.00178  -0.01249  -0.00236
           D1          -0.00519   0.00427   0.00038  -0.00003
     Eigenvalues ---   -0.03287  -0.01504  -0.00030   0.02760   0.08151
     Eigenvalues ---    0.09326   0.14879   0.35352   0.56800
 Eigenvectors required to have negative eigenvalues:
                          R3        R1        R2        A4        A3
   1                    0.81720  -0.54719   0.12400  -0.07606  -0.06866
                          A2        D1        A1        R4
   1                    0.05490  -0.05203  -0.03288   0.00975
 RFO step:  Lambda0=4.511437933D-02 Lambda=-2.22457323D-02.
 Linear search not attempted -- option 19 set.
 Maximum step size (   0.300) exceeded in Quadratic search.
    -- Step size scaled by   0.253
 Iteration  1 RMS(Cart)=  0.09120824 RMS(Int)=  0.01143663
 Iteration  2 RMS(Cart)=  0.01089342 RMS(Int)=  0.00012404
 Iteration  3 RMS(Cart)=  0.00009202 RMS(Int)=  0.00000001
 Iteration  4 RMS(Cart)=  0.00000001 RMS(Int)=  0.00000000
 Variable       Old X    -DE/DX   Delta X   Delta X   Delta X     New X
                                 (Linear)    (Quad)   (Total)
    R1        1.93855   0.03149   0.00000  -0.06160  -0.06160   1.87695
    R2        2.39220  -0.04476   0.00000  -0.00077  -0.00077   2.39143
    R3        2.80464  -0.04563   0.00000   0.16122   0.16122   2.96586
    R4        1.82635   0.00102   0.00000   0.00231   0.00231   1.82866
    A1        1.92119  -0.00117   0.00000  -0.01409  -0.01409   1.90710
    A2        1.96060  -0.00015   0.00000   0.00810   0.00810   1.96870
    A3        2.92185  -0.00197   0.00000  -0.09855  -0.09855   2.82330
    A4        2.29194  -0.00782   0.00000  -0.21741  -0.21741   2.07453
    D1        1.18179   0.00035   0.00000  -0.05443  -0.05443   1.12735
         Item               Value     Threshold  Converged?
 Maximum Force            0.045627     0.000450     NO 
 RMS     Force            0.023908     0.000300     NO 
 Maximum Displacement     0.146641     0.001800     NO 
 RMS     Displacement     0.095740     0.001200     NO 
 Predicted change in Energy= 6.612591D-03
 GradGradGradGradGradGradGradGradGradGradGradGradGradGradGradGradGradGrad

                          Input orientation:                          
 ---------------------------------------------------------------------
 Center     Atomic      Atomic             Coordinates (Angstroms)
 Number     Number       Type             X           Y           Z
 ---------------------------------------------------------------------
      1          8           0       -1.244187    0.578348   -0.234440
      2          1           0       -1.680910    1.285809    0.308975
      3          8           0       -0.003334    0.567355    0.013804
      4          8           0       -1.993141    2.793103    0.002721
      5          1           0       -1.468316    3.143157   -0.731060
 ---------------------------------------------------------------------
                    Distance matrix (angstroms):
                    1          2          3          4          5
     1  O    0.000000
     2  H    0.993241   0.000000
     3  O    1.265488   1.848665   0.000000
     4  O    2.349960   1.569463   2.985533   0.000000
     5  H    2.622043   2.139302   3.055446   0.967684   0.000000
 Stoichiometry    H2O3
 Framework group  C1[X(H2O3)]
 Deg. of freedom     9
 Full point group                 C1      NOp   1
 Largest Abelian subgroup         C1      NOp   1
 Largest concise Abelian subgroup C1      NOp   1
                         Standard orientation:                         
 ---------------------------------------------------------------------
 Center     Atomic      Atomic             Coordinates (Angstroms)
 Number     Number       Type             X           Y           Z
 ---------------------------------------------------------------------
      1          8           0        0.590060    0.572467    0.095562
      2          1           0       -0.238513    0.475570   -0.443516
      3          8           0        1.303948   -0.462779   -0.046175
      4          8           0       -1.657852   -0.088878   -0.082837
      5          1           0       -1.650731   -0.642053    0.711114
 ---------------------------------------------------------------------
 Rotational constants (GHZ):     48.5664455      6.2846375      5.6806732
 Standard basis: 6-31+G(d,p) (6D, 7F)
 There are    67 symmetry adapted basis functions of A   symmetry.
 Integral buffers will be    262144 words long.
 Raffenetti 2 integral format.
 Two-electron integral symmetry is turned on.
    67 basis functions,   110 primitive gaussians,    67 cartesian basis functions
    13 alpha electrons       13 beta electrons
       nuclear repulsion energy        69.3897832883 Hartrees.
 NAtoms=    5 NActive=    5 NUniq=    5 SFac= 7.50D-01 NAtFMM=   80 NAOKFM=F Big=F
 One-electron integrals computed using PRISM.
 NBasis=    67 RedAO= T  NBF=    67
 NBsUse=    67 1.00D-06 NBFU=    67
 Initial guess read from the read-write file.
 B after Tr=     0.000000    0.000000    0.000000
         Rot=    1.000000    0.000000    0.000000    0.000000 Ang=   0.00 deg.
 Initial guess orbital symmetries:
       Occupied  (A) (A) (A) (A) (A) (A) (A) (A) (A) (A) (A) (A)
                 (A)
       Virtual   (A) (A) (A) (A) (A) (A) (A) (A) (A) (A) (A) (A)
                 (A) (A) (A) (A) (A) (A) (A) (A) (A) (A) (A) (A)
                 (A) (A) (A) (A) (A) (A) (A) (A) (A) (A) (A) (A)
                 (A) (A) (A) (A) (A) (A) (A) (A) (A) (A) (A) (A)
                 (A) (A) (A) (A) (A) (A)
 Harris functional with IExCor= 1009 diagonalized for initial guess.
 ExpMin= 8.45D-02 ExpMax= 5.48D+03 ExpMxC= 8.25D+02 IAcc=2 IRadAn=         0 AccDes= 0.00D+00
 HarFok:  IExCor= 1009 AccDes= 0.00D+00 IRadAn=         0 IDoV= 1
 ScaDFX=  1.000000  1.000000  1.000000  1.000000
 FoFCou: FMM=F IPFlag=           0 FMFlag=      100000 FMFlg1=           0
         NFxFlg=           0 DoJE=T BraDBF=F KetDBF=T FulRan=T
         Omega=  0.000000  0.000000  1.000000  0.000000  0.000000 ICntrl=     500 IOpCl=  0
         NMat0=    1 NMatS0=    1 NMatT0=    0 NMatD0=    1 NMtDS0=    0 NMtDT0=    0
         I1Cent=           4 NGrid=           0.
 Petite list used in FoFCou.
 Requested convergence on RMS density matrix=1.00D-08 within 128 cycles.
 Requested convergence on MAX density matrix=1.00D-06.
 Requested convergence on             energy=1.00D-06.
 No special actions if energy rises.
 Keep R1 ints in memory in canonical form, NReq=3550791.
 Integral accuracy reduced to 1.0D-05 until final iterations.
 Initial convergence to 1.0D-05 achieved.  Increase integral accuracy.
 SCF Done:  E(RM062X) =  -226.497912598     A.U. after   24 cycles
             Convg  =    0.6819D-08             -V/T =  2.0087
 Calling FoFJK, ICntrl=      2127 FMM=F ISym2X=0 I1Cent= 0 IOpClX= 0 NMat=1 NMatS=1 NMatT=0.
 ***** Axes restored to original set *****
 -------------------------------------------------------------------
 Center     Atomic                   Forces (Hartrees/Bohr)
 Number     Number              X              Y              Z
 -------------------------------------------------------------------
      1        8           0.050581236   -0.016757609   -0.017360709
      2        1          -0.024871379    0.057605342    0.021086522
      3        8          -0.033585424   -0.002576431   -0.006684609
      4        8           0.007651090   -0.038487825    0.003394382
      5        1           0.000224477    0.000216523   -0.000435586
 -------------------------------------------------------------------
 Cartesian Forces:  Max     0.057605342 RMS     0.026144775

 GradGradGradGradGradGradGradGradGradGradGradGradGradGradGradGradGradGrad
 Berny optimization.
 Internal  Forces:  Max     0.038892430 RMS     0.020640801
 Search for a saddle point.
 Step number   6 out of a maximum of  100
 All quantities printed in internal units (Hartrees-Bohrs-Radians)
 Swaping is turned off.
 Update second derivatives using D2CorX and points    4    5    6
 The second derivative matrix:
                          R1        R2        R3        R4        A1
           R1           0.09790
           R2           0.06105   0.33574
           R3           0.07041  -0.01805   0.01549
           R4           0.00188  -0.00724  -0.00543   0.56736
           A1           0.00062   0.00985   0.00065  -0.00234   0.09243
           A2           0.02511   0.00507   0.00587   0.01320   0.00364
           A3           0.01040   0.00175   0.01179  -0.00070  -0.00078
           A4           0.03076   0.02276   0.01858   0.00031   0.00266
           D1          -0.01532  -0.00836  -0.00492  -0.00045  -0.00063
                          A2        A3        A4        D1
           A2           0.09186
           A3          -0.00181   0.02054
           A4           0.00351  -0.01485  -0.00418
           D1          -0.00477   0.00318  -0.00149  -0.00066
     Eigenvalues ---   -0.03293  -0.02084  -0.00164   0.02762   0.08162
     Eigenvalues ---    0.09313   0.14744   0.35408   0.56800
 Eigenvectors required to have negative eigenvalues:
                          R3        R1        A4        A3        R2
   1                    0.82890  -0.44879  -0.25104  -0.16545   0.13001
                          A2        D1        A1        R4
   1                    0.04840  -0.04119  -0.00945   0.00927
 RFO step:  Lambda0=3.404579904D-02 Lambda=-4.09212592D-02.
 Linear search not attempted -- option 19 set.
 Maximum step size (   0.300) exceeded in Quadratic search.
    -- Step size scaled by   0.260
 Iteration  1 RMS(Cart)=  0.09202628 RMS(Int)=  0.01616520
 Iteration  2 RMS(Cart)=  0.01555225 RMS(Int)=  0.00028876
 Iteration  3 RMS(Cart)=  0.00021393 RMS(Int)=  0.00000006
 Iteration  4 RMS(Cart)=  0.00000007 RMS(Int)=  0.00000000
 Variable       Old X    -DE/DX   Delta X   Delta X   Delta X     New X
                                 (Linear)    (Quad)   (Total)
    R1        1.87695   0.03289   0.00000  -0.00481  -0.00481   1.87214
    R2        2.39143  -0.03305   0.00000   0.00113   0.00113   2.39255
    R3        2.96586  -0.03889   0.00000   0.12383   0.12383   3.08968
    R4        1.82866   0.00053   0.00000   0.00147   0.00147   1.83012
    A1        1.90710   0.00052   0.00000   0.00256   0.00256   1.90966
    A2        1.96870   0.00006   0.00000   0.00194   0.00194   1.97064
    A3        2.82330  -0.00426   0.00000  -0.11000  -0.11000   2.71330
    A4        2.07453  -0.01134   0.00000  -0.23301  -0.23301   1.84151
    D1        1.12735   0.00018   0.00000  -0.09075  -0.09075   1.03661
         Item               Value     Threshold  Converged?
 Maximum Force            0.038892     0.000450     NO 
 RMS     Force            0.020641     0.000300     NO 
 Maximum Displacement     0.158118     0.001800     NO 
 RMS     Displacement     0.099626     0.001200     NO 
 Predicted change in Energy= 1.003612D-03
 GradGradGradGradGradGradGradGradGradGradGradGradGradGradGradGradGradGrad

                          Input orientation:                          
 ---------------------------------------------------------------------
 Center     Atomic      Atomic             Coordinates (Angstroms)
 Number     Number       Type             X           Y           Z
 ---------------------------------------------------------------------
      1          8           0       -1.254932    0.635691   -0.257747
      2          1           0       -1.706584    1.231069    0.392648
      3          8           0       -0.011991    0.615925   -0.017590
      4          8           0       -2.008294    2.779987   -0.035156
      5          1           0       -1.408087    3.105100   -0.722154
 ---------------------------------------------------------------------
                    Distance matrix (angstroms):
                    1          2          3          4          5
     1  O    0.000000
     2  H    0.990695   0.000000
     3  O    1.266084   1.848875   0.000000
     4  O    2.283661   1.634990   2.944264   0.000000
     5  H    2.517362   2.200881   2.939640   0.968460   0.000000
 Stoichiometry    H2O3
 Framework group  C1[X(H2O3)]
 Deg. of freedom     9
 Full point group                 C1      NOp   1
 Largest Abelian subgroup         C1      NOp   1
 Largest concise Abelian subgroup C1      NOp   1
                         Standard orientation:                         
 ---------------------------------------------------------------------
 Center     Atomic      Atomic             Coordinates (Angstroms)
 Number     Number       Type             X           Y           Z
 ---------------------------------------------------------------------
      1          8           0        0.552082    0.562225    0.114138
      2          1           0       -0.192003    0.537841   -0.539482
      3          8           0        1.293602   -0.450064   -0.054343
      4          8           0       -1.628440   -0.089570   -0.074516
      5          1           0       -1.545946   -0.718565    0.657245
 ---------------------------------------------------------------------
 Rotational constants (GHZ):     49.1491790      6.5244705      5.8928562
 Standard basis: 6-31+G(d,p) (6D, 7F)
 There are    67 symmetry adapted basis functions of A   symmetry.
 Integral buffers will be    262144 words long.
 Raffenetti 2 integral format.
 Two-electron integral symmetry is turned on.
    67 basis functions,   110 primitive gaussians,    67 cartesian basis functions
    13 alpha electrons       13 beta electrons
       nuclear repulsion energy        69.9684854744 Hartrees.
 NAtoms=    5 NActive=    5 NUniq=    5 SFac= 7.50D-01 NAtFMM=   80 NAOKFM=F Big=F
 One-electron integrals computed using PRISM.
 NBasis=    67 RedAO= T  NBF=    67
 NBsUse=    67 1.00D-06 NBFU=    67
 Initial guess read from the read-write file.
 B after Tr=     0.000000    0.000000    0.000000
         Rot=    1.000000    0.000000    0.000000    0.000000 Ang=   0.00 deg.
 Initial guess orbital symmetries:
       Occupied  (A) (A) (A) (A) (A) (A) (A) (A) (A) (A) (A) (A)
                 (A)
       Virtual   (A) (A) (A) (A) (A) (A) (A) (A) (A) (A) (A) (A)
                 (A) (A) (A) (A) (A) (A) (A) (A) (A) (A) (A) (A)
                 (A) (A) (A) (A) (A) (A) (A) (A) (A) (A) (A) (A)
                 (A) (A) (A) (A) (A) (A) (A) (A) (A) (A) (A) (A)
                 (A) (A) (A) (A) (A) (A)
 Harris functional with IExCor= 1009 diagonalized for initial guess.
 ExpMin= 8.45D-02 ExpMax= 5.48D+03 ExpMxC= 8.25D+02 IAcc=2 IRadAn=         0 AccDes= 0.00D+00
 HarFok:  IExCor= 1009 AccDes= 0.00D+00 IRadAn=         0 IDoV= 1
 ScaDFX=  1.000000  1.000000  1.000000  1.000000
 FoFCou: FMM=F IPFlag=           0 FMFlag=      100000 FMFlg1=           0
         NFxFlg=           0 DoJE=T BraDBF=F KetDBF=T FulRan=T
         Omega=  0.000000  0.000000  1.000000  0.000000  0.000000 ICntrl=     500 IOpCl=  0
         NMat0=    1 NMatS0=    1 NMatT0=    0 NMatD0=    1 NMtDS0=    0 NMtDT0=    0
         I1Cent=           4 NGrid=           0.
 Petite list used in FoFCou.
 Requested convergence on RMS density matrix=1.00D-08 within 128 cycles.
 Requested convergence on MAX density matrix=1.00D-06.
 Requested convergence on             energy=1.00D-06.
 No special actions if energy rises.
 Keep R1 ints in memory in canonical form, NReq=3550791.
 Integral accuracy reduced to 1.0D-05 until final iterations.
 Initial convergence to 1.0D-05 achieved.  Increase integral accuracy.
 SCF Done:  E(RM062X) =  -226.496955634     A.U. after   26 cycles
             Convg  =    0.1809D-08             -V/T =  2.0087
 Calling FoFJK, ICntrl=      2127 FMM=F ISym2X=0 I1Cent= 0 IOpClX= 0 NMat=1 NMatS=1 NMatT=0.
 ***** Axes restored to original set *****
 -------------------------------------------------------------------
 Center     Atomic                   Forces (Hartrees/Bohr)
 Number     Number              X              Y              Z
 -------------------------------------------------------------------
      1        8           0.038417609   -0.001949872   -0.014672546
      2        1          -0.018571439    0.038529829    0.017153697
      3        8          -0.027027734   -0.002577325   -0.005426781
      4        8           0.007232238   -0.034346718    0.003138091
      5        1          -0.000050674    0.000344086   -0.000192462
 -------------------------------------------------------------------
 Cartesian Forces:  Max     0.038529829 RMS     0.019710053

 GradGradGradGradGradGradGradGradGradGradGradGradGradGradGradGradGradGrad
 Berny optimization.
 Internal  Forces:  Max     0.034294474 RMS     0.016659356
 Search for a saddle point.
 Step number   7 out of a maximum of  100
 All quantities printed in internal units (Hartrees-Bohrs-Radians)
 Swaping is turned off.
 Update second derivatives using D2CorX and points    5    6    7
 The second derivative matrix:
                          R1        R2        R3        R4        A1
           R1           0.08651
           R2           0.06150   0.33572
           R3           0.08992  -0.01886   0.01303
           R4           0.00207  -0.00724  -0.00532   0.56737
           A1          -0.00188   0.00995   0.00573  -0.00229   0.09190
           A2           0.02637   0.00502   0.00413   0.01318   0.00393
           A3          -0.00622   0.00243   0.01581  -0.00077  -0.00505
           A4          -0.00094   0.02407   0.01863   0.00009  -0.00569
           D1          -0.02730  -0.00787  -0.00340  -0.00051  -0.00375
                          A2        A3        A4        D1
           A2           0.09173
           A3          -0.00030   0.01562
           A4           0.00628  -0.01824   0.00267
           D1          -0.00370   0.00072  -0.00153  -0.00158
     Eigenvalues ---   -0.06874  -0.00795   0.00366   0.02801   0.08262
     Eigenvalues ---    0.09322   0.15125   0.35289   0.56800
 Eigenvectors required to have negative eigenvalues:
                          R3        R1        A4        A3        D1
   1                    0.71719  -0.52089  -0.31606  -0.24703  -0.16425
                          R2        A2        A1        R4
   1                    0.13054   0.07213  -0.06422   0.00707
 RFO step:  Lambda0=1.159392984D-02 Lambda=-3.29080715D-02.
 Linear search not attempted -- option 19 set.
 Maximum step size (   0.300) exceeded in Quadratic search.
    -- Step size scaled by   0.258
 Iteration  1 RMS(Cart)=  0.15145368 RMS(Int)=  0.02277299
 Iteration  2 RMS(Cart)=  0.02499709 RMS(Int)=  0.00073875
 Iteration  3 RMS(Cart)=  0.00052128 RMS(Int)=  0.00000043
 Iteration  4 RMS(Cart)=  0.00000046 RMS(Int)=  0.00000000
 Variable       Old X    -DE/DX   Delta X   Delta X   Delta X     New X
                                 (Linear)    (Quad)   (Total)
    R1        1.87214   0.01868   0.00000   0.02328   0.02328   1.89542
    R2        2.39255  -0.02566   0.00000  -0.00281  -0.00281   2.38974
    R3        3.08968  -0.03429   0.00000  -0.01154  -0.01154   3.07814
    R4        1.83012   0.00025   0.00000  -0.00059  -0.00059   1.82953
    A1        1.90966  -0.00268   0.00000  -0.02469  -0.02469   1.88497
    A2        1.97064   0.00055   0.00000   0.01264   0.01264   1.98328
    A3        2.71330  -0.00870   0.00000  -0.16542  -0.16542   2.54788
    A4        1.84151  -0.01520   0.00000  -0.24686  -0.24686   1.59466
    D1        1.03661   0.00007   0.00000   0.01567   0.01567   1.05228
         Item               Value     Threshold  Converged?
 Maximum Force            0.034294     0.000450     NO 
 RMS     Force            0.016659     0.000300     NO 
 Maximum Displacement     0.232637     0.001800     NO 
 RMS     Displacement     0.167316     0.001200     NO 
 Predicted change in Energy=-6.525607D-03
 GradGradGradGradGradGradGradGradGradGradGradGradGradGradGradGradGradGrad

                          Input orientation:                          
 ---------------------------------------------------------------------
 Center     Atomic      Atomic             Coordinates (Angstroms)
 Number     Number       Type             X           Y           Z
 ---------------------------------------------------------------------
      1          8           0       -1.283143    0.758797   -0.305793
      2          1           0       -1.756143    1.180747    0.471553
      3          8           0       -0.046522    0.731356   -0.042693
      4          8           0       -1.966853    2.712895   -0.039703
      5          1           0       -1.337227    2.983977   -0.723363
 ---------------------------------------------------------------------
                    Distance matrix (angstroms):
                    1          2          3          4          5
     1  O    0.000000
     2  H    1.003015   0.000000
     3  O    1.264598   1.840979   0.000000
     4  O    2.087286   1.628883   2.759380   0.000000
     5  H    2.264667   2.203397   2.683940   0.968146   0.000000
 Stoichiometry    H2O3
 Framework group  C1[X(H2O3)]
 Deg. of freedom     9
 Full point group                 C1      NOp   1
 Largest Abelian subgroup         C1      NOp   1
 Largest concise Abelian subgroup C1      NOp   1
                         Standard orientation:                         
 ---------------------------------------------------------------------
 Center     Atomic      Atomic             Coordinates (Angstroms)
 Number     Number       Type             X           Y           Z
 ---------------------------------------------------------------------
      1          8           0        0.461078    0.552756    0.134335
      2          1           0       -0.165747    0.614851   -0.646225
      3          8           0        1.233745   -0.428886   -0.062064
      4          8           0       -1.507157   -0.110290   -0.073468
      5          1           0       -1.335574   -0.723499    0.655805
 ---------------------------------------------------------------------
 Rotational constants (GHZ):     49.5405582      7.5356218      6.7473350
 Standard basis: 6-31+G(d,p) (6D, 7F)
 There are    67 symmetry adapted basis functions of A   symmetry.
 Integral buffers will be    262144 words long.
 Raffenetti 2 integral format.
 Two-electron integral symmetry is turned on.
    67 basis functions,   110 primitive gaussians,    67 cartesian basis functions
    13 alpha electrons       13 beta electrons
       nuclear repulsion energy        72.4589199009 Hartrees.
 NAtoms=    5 NActive=    5 NUniq=    5 SFac= 7.50D-01 NAtFMM=   80 NAOKFM=F Big=F
 One-electron integrals computed using PRISM.
 NBasis=    67 RedAO= T  NBF=    67
 NBsUse=    67 1.00D-06 NBFU=    67
 Initial guess read from the read-write file.
 B after Tr=     0.000000    0.000000    0.000000
         Rot=    1.000000    0.000000    0.000000    0.000000 Ang=   0.00 deg.
 Initial guess orbital symmetries:
       Occupied  (A) (A) (A) (A) (A) (A) (A) (A) (A) (A) (A) (A)
                 (A)
       Virtual   (A) (A) (A) (A) (A) (A) (A) (A) (A) (A) (A) (A)
                 (A) (A) (A) (A) (A) (A) (A) (A) (A) (A) (A) (A)
                 (A) (A) (A) (A) (A) (A) (A) (A) (A) (A) (A) (A)
                 (A) (A) (A) (A) (A) (A) (A) (A) (A) (A) (A) (A)
                 (A) (A) (A) (A) (A) (A)
 Harris functional with IExCor= 1009 diagonalized for initial guess.
 ExpMin= 8.45D-02 ExpMax= 5.48D+03 ExpMxC= 8.25D+02 IAcc=2 IRadAn=         0 AccDes= 0.00D+00
 HarFok:  IExCor= 1009 AccDes= 0.00D+00 IRadAn=         0 IDoV= 1
 ScaDFX=  1.000000  1.000000  1.000000  1.000000
 FoFCou: FMM=F IPFlag=           0 FMFlag=      100000 FMFlg1=           0
         NFxFlg=           0 DoJE=T BraDBF=F KetDBF=T FulRan=T
         Omega=  0.000000  0.000000  1.000000  0.000000  0.000000 ICntrl=     500 IOpCl=  0
         NMat0=    1 NMatS0=    1 NMatT0=    0 NMatD0=    1 NMtDS0=    0 NMtDT0=    0
         I1Cent=           4 NGrid=           0.
 Petite list used in FoFCou.
 Requested convergence on RMS density matrix=1.00D-08 within 128 cycles.
[...]
      3 vectors produced by pass  7 Test12= 3.90D-15 5.56D-09 XBig12= 3.04D-12 3.93D-07.
      1 vectors produced by pass  8 Test12= 3.90D-15 5.56D-09 XBig12= 9.00D-15 2.17D-08.
 Inverted reduced A of dimension   106 with in-core refinement.
 Isotropic polarizability for W=    0.000000       26.02 Bohr**3.
 End of Minotr Frequency-dependent properties file   721 does not exist.
 End of Minotr Frequency-dependent properties file   722 does not exist.

 **********************************************************************

            Population analysis using the SCF density.

 **********************************************************************

 Orbital symmetries:
       Occupied  (A) (A) (A) (A) (A) (A) (A) (A) (A) (A) (A) (A)
                 (A)
       Virtual   (A) (A) (A) (A) (A) (A) (A) (A) (A) (A) (A) (A)
                 (A) (A) (A) (A) (A) (A) (A) (A) (A) (A) (A) (A)
                 (A) (A) (A) (A) (A) (A) (A) (A) (A) (A) (A) (A)
                 (A) (A) (A) (A) (A) (A) (A) (A) (A) (A) (A) (A)
                 (A) (A) (A) (A) (A) (A)
 The electronic state is 1-A.
 Alpha  occ. eigenvalues --  -19.87812 -19.75056 -19.69065  -1.41789  -1.12513
 Alpha  occ. eigenvalues --   -0.98914  -0.71077  -0.62736  -0.61660  -0.54031
 Alpha  occ. eigenvalues --   -0.42726  -0.37993  -0.36568
 Alpha virt. eigenvalues --   -0.12607   0.05549   0.09924   0.11052   0.13292
 Alpha virt. eigenvalues --    0.17634   0.18565   0.19573   0.21004   0.21413
 Alpha virt. eigenvalues --    0.24547   0.25436   0.27726   0.30880   0.33836
 Alpha virt. eigenvalues --    0.37180   0.91089   0.99269   1.02184   1.10057
 Alpha virt. eigenvalues --    1.13066   1.15443   1.18930   1.19762   1.20495
 Alpha virt. eigenvalues --    1.22030   1.28685   1.30031   1.39870   1.47563
 Alpha virt. eigenvalues --    1.51694   1.53358   1.62585   1.64849   1.71966
 Alpha virt. eigenvalues --    1.81127   1.82252   1.98393   2.15202   2.25802
 Alpha virt. eigenvalues --    2.41635   2.42780   2.51538   2.64466   2.66504
 Alpha virt. eigenvalues --    2.83942   2.84272   3.00979   3.01650   3.42072
 Alpha virt. eigenvalues --    3.44304   3.75705   4.03652   4.21890
          Condensed to atoms (all electrons):
              1          2          3          4          5
     1  O    7.608746   0.206753   0.196913  -0.126004   0.031866
     2  H    0.206753   0.337576  -0.036687   0.056709  -0.007292
     3  O    0.196913  -0.036687   8.095637   0.012987  -0.007011
     4  O   -0.126004   0.056709   0.012987   8.458615   0.232064
     5  H    0.031866  -0.007292  -0.007011   0.232064   0.378833
 Mulliken atomic charges:
              1
     1  O    0.081727
     2  H    0.442942
     3  O   -0.261838
     4  O   -0.634372
     5  H    0.371540
 Sum of Mulliken atomic charges =   0.00000
 Mulliken charges with hydrogens summed into heavy atoms:
              1
     1  O    0.524669
     3  O   -0.261838
     4  O   -0.262831
 Sum of Mulliken charges with hydrogens summed into heavy atoms =   0.00000
 APT atomic charges:
              1
     1  O    0.661457
     2  H    0.279680
     3  O   -0.455788
     4  O   -0.725385
     5  H    0.240036
 Sum of APT charges=   0.00000
 APT Atomic charges with hydrogens summed into heavy atoms:
              1
     1  O    0.941137
     2  H    0.000000
     3  O   -0.455788
     4  O   -0.485350
     5  H    0.000000
 Sum of APT charges=   0.00000
 Electronic spatial extent (au):  <R**2>=            167.3867
 Charge=              0.0000 electrons
 Dipole moment (field-independent basis, Debye):
    X=              0.1200    Y=              0.0199    Z=              0.9028  Tot=              0.9109
 Quadrupole moment (field-independent basis, Debye-Ang):
   XX=            -22.1047   YY=            -14.7282   ZZ=            -17.1606
   XY=             -2.4754   XZ=              0.1624   YZ=             -1.7390
 Traceless Quadrupole moment (field-independent basis, Debye-Ang):
   XX=             -4.1069   YY=              3.2696   ZZ=              0.8372
   XY=             -2.4754   XZ=              0.1624   YZ=             -1.7390
 Octapole moment (field-independent basis, Debye-Ang**2):
  XXX=              5.4523  YYY=              1.1315  ZZZ=              0.7360  XYY=             -2.4076
  XXY=              1.5469  XXZ=             -0.3825  XZZ=              0.4982  YZZ=             -1.1469
  YYZ=              0.2436  XYZ=              0.9969
 Hexadecapole moment (field-independent basis, Debye-Ang**3):
 XXXX=           -152.1917 YYYY=            -26.4063 ZZZZ=            -15.9873 XXXY=             -4.9020
 XXXZ=              1.1275 YYYX=             -3.4010 YYYZ=             -1.7926 ZZZX=             -0.0540
 ZZZY=             -1.5431 XXYY=            -24.9806 XXZZ=            -28.6554 YYZZ=             -7.4022
 XXYZ=             -0.9955 YYXZ=              0.5623 ZZXY=             -0.5298
 N-N= 7.536128484975D+01 E-N=-6.849435474419D+02  KE= 2.247028477707D+02
  Exact polarizability:  48.634  -0.238  16.312  -0.019  -0.373  13.112
 Approx polarizability:  83.053   2.766  20.161  -0.175  -0.246  13.967
 Calling FoFJK, ICntrl=    100127 FMM=F ISym2X=0 I1Cent= 0 IOpClX= 0 NMat=1 NMatS=1 NMatT=0.
 Full mass-weighted force constant matrix:
 Low frequencies ----1132.7596  -90.0201  -32.0734   -0.0013   -0.0010   -0.0010
 Low frequencies ---   42.2757  277.1896  330.0363
 ******    1 imaginary frequencies (negative Signs) ****** 
 Diagonal vibrational polarizability:
       17.8314073       7.9951005      46.4910278
 Harmonic frequencies (cm**-1), IR intensities (KM/Mole), Raman scattering
 activities (A**4/AMU), depolarization ratios for plane and unpolarized
 incident light, reduced masses (AMU), force constants (mDyne/A),
 and normal coordinates:
                     1                      2                      3
                     A                      A                      A
 Frequencies -- -1132.7367               277.1652               329.9555
 Red. masses --     1.1692                 1.5091                 2.8421
 Frc consts  --     0.8839                 0.0683                 0.1823
 IR Inten    --   129.4226                95.5561                68.1773
  Atom  AN      X      Y      Z        X      Y      Z        X      Y      Z
     1   8    -0.09   0.02   0.02    -0.02  -0.06   0.06    -0.03   0.14   0.07
     2   1     0.77  -0.56   0.29    -0.07  -0.03   0.05     0.06   0.13   0.11
     3   8     0.01   0.01   0.00    -0.09   0.04  -0.04     0.22  -0.08  -0.05
     4   8     0.03   0.00  -0.03     0.10   0.00  -0.07    -0.16  -0.08  -0.08
     5   1     0.02   0.00  -0.09     0.35   0.18   0.90    -0.46   0.17   0.77
                     4                      5                      6
                     A                      A                      A
 Frequencies --   622.0651               920.9389              1333.0556
 Red. masses --     5.5532                 1.2322                 4.5349
 Frc consts  --     1.2661                 0.6158                 4.7480
 IR Inten    --   177.7218                14.0947               262.2709
  Atom  AN      X      Y      Z        X      Y      Z        X      Y      Z
     1   8     0.31  -0.23   0.01    -0.05   0.05   0.00     0.21   0.28   0.10
     2   1     0.53  -0.51  -0.01    -0.10   0.00  -0.02    -0.19  -0.80  -0.25
     3   8    -0.01   0.09  -0.01     0.06   0.01   0.00    -0.21  -0.23  -0.08
     4   8    -0.35   0.16  -0.01    -0.07  -0.04   0.01     0.01   0.00   0.00
     5   1     0.27   0.11   0.27     0.95  -0.26  -0.07     0.15  -0.06  -0.08
                     7                      8                      9
                     A                      A                      A
 Frequencies --  1430.7273              3119.1017              3845.6991
 Red. masses --     1.2950                 1.0605                 1.0677
 Frc consts  --     1.5618                 6.0790                 9.3035
 IR Inten    --   158.4794                93.6703                85.1788
  Atom  AN      X      Y      Z        X      Y      Z        X      Y      Z
     1   8     0.05   0.04  -0.05     0.03   0.01  -0.05     0.00   0.00   0.00
     2   1     0.55   0.74   0.32    -0.40  -0.17   0.90     0.01   0.00   0.00
     3   8    -0.08  -0.07   0.03     0.00   0.00   0.00     0.00   0.00   0.00
     4   8    -0.01  -0.01   0.00     0.00   0.00  -0.01     0.01   0.06  -0.01
     5   1     0.14  -0.02   0.06    -0.01   0.00  -0.01    -0.19  -0.96   0.22

 -------------------
 - Thermochemistry -
 -------------------
 Temperature   298.150 Kelvin.  Pressure   1.00000 Atm.
 Atom     1 has atomic number  8 and mass  15.99491
 Atom     2 has atomic number  1 and mass   1.00783
 Atom     3 has atomic number  8 and mass  15.99491
 Atom     4 has atomic number  8 and mass  15.99491
 Atom     5 has atomic number  1 and mass   1.00783
 Molecular mass:    50.00039 amu.
 Principal axes and moments of inertia in atomic units:
                           1         2         3
     Eigenvalues --    30.91352 213.61529 239.18914
           X            0.99977  -0.02144   0.00251
           Y            0.02157   0.99601  -0.08658
           Z           -0.00064   0.08661   0.99624
 This molecule is an asymmetric top.
 Rotational symmetry number  1.
 Rotational temperatures (Kelvin)      2.80181     0.40547     0.36211
 Rotational constants (GHZ):          58.38032     8.44856     7.54525
    1 imaginary frequencies ignored.
 Zero-point vibrational energy      71050.5 (Joules/Mol)
                                   16.98147 (Kcal/Mol)
 Warning -- explicit consideration of   2 degrees of freedom as
           vibrations may cause significant error
 Vibrational temperatures:    398.78   474.73   895.01  1325.02  1917.97
          (Kelvin)           2058.49  4487.69  5533.10
 
 Zero-point correction=                           0.027062 (Hartree/Particle)
 Thermal correction to Energy=                    0.030942
 Thermal correction to Enthalpy=                  0.031886
 Thermal correction to Gibbs Free Energy=         0.001939
 Sum of electronic and zero-point Energies=           -226.482628
 Sum of electronic and thermal Energies=              -226.478748
 Sum of electronic and thermal Enthalpies=            -226.477804
 Sum of electronic and thermal Free Energies=         -226.507751
 
                     E (Thermal)             CV                S
                      KCal/Mol        Cal/Mol-Kelvin    Cal/Mol-Kelvin
 Total                   19.417             10.978             63.029
 Electronic               0.000              0.000              0.000
 Translational            0.889              2.981             37.652
 Rotational               0.889              2.981             21.984
 Vibrational             17.639              5.017              3.393
 Vibration     1          0.678              1.716              1.551
 Vibration     2          0.713              1.616              1.260
                       Q            Log10(Q)             Ln(Q)
 Total Bot       0.128225D+00         -0.892028         -2.053970
 Total V=0       0.359301D+12         11.555459         26.607427
 Vib (Bot)       0.648559D-12        -12.188051        -28.064023
 Vib (Bot)    1  0.694705D+00         -0.158199         -0.364267
 Vib (Bot)    2  0.566293D+00         -0.246959         -0.568644
 Vib (V=0)       0.181734D+01          0.259436          0.597373
 Vib (V=0)    1  0.135593D+01          0.132237          0.304487
 Vib (V=0)    2  0.125544D+01          0.098795          0.227485
 Electronic      0.100000D+01          0.000000          0.000000
 Translational   0.138968D+08          7.142915         16.447170
 Rotational      0.142268D+05          4.153108          9.562883
 ***** Axes restored to original set *****
 -------------------------------------------------------------------
 Center     Atomic                   Forces (Hartrees/Bohr)
 Number     Number              X              Y              Z
 -------------------------------------------------------------------
      1        8          -0.000062563   -0.000000011    0.000029704
      2        1           0.000020119    0.000028679    0.000066328
      3        8          -0.000036005   -0.000074137   -0.000091156
      4        8           0.000044207    0.000052462    0.000033293
      5        1           0.000034242   -0.000006992   -0.000038169
 -------------------------------------------------------------------
 Cartesian Forces:  Max     0.000091156 RMS     0.000047622

 GradGradGradGradGradGradGradGradGradGradGradGradGradGradGradGradGradGrad
 Berny optimization.
 Internal  Forces:  Max     0.000021248 RMS     0.000013283
 Search for a saddle point.
 Step number   1 out of a maximum of    2
 All quantities printed in internal units (Hartrees-Bohrs-Radians)
 Swaping is turned off.
 Second derivative matrix not updated -- analytic derivatives used.
 The second derivative matrix:
                          R1        R2        R3        R4        A1
           R1           0.27630
           R2           0.09520   0.53596
           R3           0.10224   0.01251   0.08714
           R4           0.00596  -0.00767   0.00143   0.53026
           A1          -0.01140   0.12434   0.06410   0.00964   0.32956
           A2           0.00932   0.01070   0.01607   0.00042  -0.05570
           A3          -0.02250   0.08467   0.08903   0.00581   0.06388
           A4          -0.04011   0.05977   0.08057   0.00327  -0.04975
           D1           0.00452  -0.00425  -0.01269   0.00384   0.03953
                          A2        A3        A4        D1
           A2           0.12692
           A3           0.01973   0.08381
           A4           0.03871  -0.02678   0.09487
           D1          -0.06028  -0.01279  -0.01772   0.03868
     Eigenvalues ---   -0.09723   0.00717   0.07455   0.10944   0.20379
     Eigenvalues ---    0.28387   0.34791   0.53112   0.64289
 Eigenvectors required to have negative eigenvalues:
                          R3        A4        A3        R1        R2
   1                    0.63722  -0.49081  -0.45794  -0.30345   0.16682
                          A1        A2        D1        R4
   1                   -0.13676   0.05898   0.03332   0.01212
 Angle between quadratic step and forces=  67.32 degrees.
 Linear search not attempted -- option 19 set.
 Iteration  1 RMS(Cart)=  0.00015665 RMS(Int)=  0.00000001
 Iteration  2 RMS(Cart)=  0.00000001 RMS(Int)=  0.00000000
 Variable       Old X    -DE/DX   Delta X   Delta X   Delta X     New X
                                 (Linear)    (Quad)   (Total)
    R1        1.92494   0.00001   0.00000   0.00009   0.00009   1.92502
    R2        2.38443   0.00002   0.00000  -0.00002  -0.00002   2.38440
    R3        2.86211   0.00002   0.00000  -0.00006  -0.00006   2.86204
    R4        1.83490   0.00000   0.00000   0.00000   0.00000   1.83490
    A1        1.94252   0.00002   0.00000   0.00013   0.00013   1.94265
    A2        1.98071   0.00002   0.00000   0.00018   0.00018   1.98090
    A3        2.44533   0.00000   0.00000  -0.00002  -0.00002   2.44531
    A4        1.35530   0.00000   0.00000   0.00012   0.00012   1.35542
    D1        0.40886   0.00000   0.00000   0.00009   0.00009   0.40894
         Item               Value     Threshold  Converged?
 Maximum Force            0.000021     0.000450     YES
 RMS     Force            0.000013     0.000300     YES
 Maximum Displacement     0.000259     0.001800     YES
 RMS     Displacement     0.000157     0.001200     YES
 Predicted change in Energy=-2.246803D-09
 Optimization completed.
    -- Stationary point found.
                           ----------------------------
                           !   Optimized Parameters   !
                           ! (Angstroms and Degrees)  !
 --------------------------                            --------------------------
 ! Name  Definition              Value          Derivative Info.                !
 --------------------------------------------------------------------------------
 ! R1    R(1,2)                  1.0186         -DE/DX =    0.0                 !
 ! R2    R(1,3)                  1.2618         -DE/DX =    0.0                 !
 ! R3    R(2,4)                  1.5146         -DE/DX =    0.0                 !
 ! R4    R(4,5)                  0.971          -DE/DX =    0.0                 !
 ! A1    A(2,1,3)              111.298          -DE/DX =    0.0                 !
 ! A2    A(2,4,5)              113.4865         -DE/DX =    0.0                 !
 ! A3    L(1,2,4,3,-1)         140.1073         -DE/DX =    0.0                 !
 ! A4    L(1,2,4,3,-2)          77.6528         -DE/DX =    0.0                 !
 ! D1    D(3,1,4,5)             23.4259         -DE/DX =    0.0                 !
 --------------------------------------------------------------------------------
 GradGradGradGradGradGradGradGradGradGradGradGradGradGradGradGradGradGrad

 1|1|UNPC-DESKTOP-319GPER|Freq|RM062X|6-31+G(d,p)|H2O3|SAGAD|08-Feb-202
 1|0||#N Geom=AllCheck Guess=TCheck SCRF=Check GenChk RM062X/6-31+G(d,p
 ) Freq||ts2||0,1|O,-1.3244455136,0.8181430615,-0.2412333188|H,-1.73112
 24475,1.2866317583,0.566693995|O,-0.0677112494,0.7533663008,-0.1489132
 056|O,-2.0313661861,2.525211729,-0.2516400491|H,-1.2352426934,2.984419
 2704,-0.5649074215||Version=IA32W-G09RevA.02|State=1-A|HF=-226.50969|R
 MSD=1.706e-009|RMSF=4.762e-005|ZeroPoint=0.0270617|Thermal=0.0309422|D
 ipole=0.0595111,0.0093856,0.3532848|DipoleDeriv=1.1201371,-1.452197,0.
 0694879,-0.757306,0.765763,-0.0074794,0.1435993,-0.0094898,0.0984712,0
 .2456933,0.0466455,-0.020317,0.1985375,0.2347953,-0.0686067,-0.1111582
 ,-0.0167547,0.3585523,-0.9021961,1.1916887,-0.0066726,-0.063453,-0.238
 7117,-0.0201069,-0.1171801,0.0757483,-0.226455,-0.5223684,0.0886174,-0
 .0735724,0.6103816,-1.0787614,0.0972246,-0.0120578,-0.014476,-0.575026
 2,0.0587341,0.1252454,0.0310741,0.01184,0.3169148,-0.0010315,0.0967969
 ,-0.0350278,0.3444576|Polar=30.5527269,-16.0979843,34.1997354,0.406853
 4,-1.5720475,13.3056893|PG=C01 [X(H2O3)]|NImag=1||0.54497003,0.0385817
 3,0.11716206,-0.02142158,0.10522315,0.29344496,-0.04107621,0.01175419,
 0.03808263,0.10172791,-0.02546210,0.02259900,-0.08895686,-0.01777984,-
 0.00170189,0.10805191,-0.14108714,-0.27275660,-0.09300593,0.10591235,0
 .28078909,-0.50142825,-0.02802200,-0.02512714,-0.04752397,0.03049019,-
 0.00571899,0.56819076,0.00434302,-0.04955348,-0.00891003,0.01526721,-0
 .00163436,0.00357775,-0.04451099,0.03912098,-0.04881141,-0.01444365,-0
 .04852045,0.03707030,0.01160411,0.01761429,0.01813264,0.00677376,0.028
 47968,-0.02127781,-0.03074907,0.01044333,-0.01469064,0.01157448,-0.007
 07592,-0.00973472,0.03032399,-0.00709342,0.41919054,-0.00330975,-0.068
 90814,-0.01102046,-0.00367684,-0.01876003,0.02965208,0.03838258,0.0033
 9800,-0.00245888,0.16613495,0.21082808,-0.02858475,0.04881495,0.024693
 38,0.01023591,-0.02390765,-0.02477626,0.01052357,-0.00293874,0.0018048
 7,-0.13647918,-0.09915385,0.06021881,0.01881224,0.00843515,-0.00197723
 ,0.00156290,0.00117727,-0.00225108,-0.00950381,-0.00542322,0.00070189,
 -0.37348737,-0.19753094,0.14430445,0.36261604,-0.01415289,-0.02129944,
 0.00366420,-0.00556471,-0.00050272,0.00194496,0.00366022,0.00866884,-0
 .00147535,-0.17728435,-0.12655792,0.07718529,0.19334174,0.13969123,-0.
 00923417,0.00149269,0.00313871,0.00761709,-0.00465195,-0.00087053,0.00
 218993,0.00149726,0.00062161,0.14020520,0.08298111,-0.06194079,-0.1407
 7804,-0.08131910,0.05905101||0.00006256,0.00000001,-0.00002970,-0.0000
 2012,-0.00002868,-0.00006633,0.00003601,0.00007414,0.00009116,-0.00004
 421,-0.00005246,-0.00003329,-0.00003424,0.00000699,0.00003817|||@


 THE MOST INCOMPREHENSIBLE THING ABOUT THE WORLD
 IS THAT IT IS COMPREHENSIBLE. -- A. EINSTEIN
 Job cpu time:  0 days  0 hours  0 minutes 12.0 seconds.
 File lengths (MBytes):  RWF=      6 Int=      0 D2E=      0 Chk=      1 Scr=      1
 Normal termination of Gaussian 09 at Mon Feb 08 08:09:38 2021.
