 Entering Link 1 = C:\G09W\l1.exe PID=     10792.
  
 Copyright (c) 1988,1990,1992,1993,1995,1998,2003,2009, Gaussian, Inc.
                  All Rights Reserved.
  
 This is part of the Gaussian(R) 09 program.  It is based on
 the Gaussian(R) 03 system (copyright 2003, Gaussian, Inc.),
 the Gaussian(R) 98 system (copyright 1998, Gaussian, Inc.),
 the Gaussian(R) 94 system (copyright 1995, Gaussian, Inc.),
 the Gaussian 92(TM) system (copyright 1992, Gaussian, Inc.),
 the Gaussian 90(TM) system (copyright 1990, Gaussian, Inc.),
 the Gaussian 88(TM) system (copyright 1988, Gaussian, Inc.),
 the Gaussian 86(TM) system (copyright 1986, Carnegie Mellon
 University), and the Gaussian 82(TM) system (copyright 1983,
 Carnegie Mellon University). Gaussian is a federally registered
 trademark of Gaussian, Inc.
  
 This software contains proprietary and confidential information,
 including trade secrets, belonging to Gaussian, Inc.
  
 This software is provided under written license and may be
 used, copied, transmitted, or stored only in accord with that
 written license.
  
 The following legend is applicable only to US Government
 contracts under FAR:
  
                    RESTRICTED RIGHTS LEGEND
  
 Use, reproduction and disclosure by the US Government is
 subject to restrictions as set forth in subparagraphs (a)
 and (c) of the Commercial Computer Software - Restricted
 Rights clause in FAR 52.227-19.
  
 Gaussian, Inc.
 340 Quinnipiac St., Bldg. 40, Wallingford CT 06492
  
  
 ---------------------------------------------------------------
 Warning -- This program may not be used in any manner that
 competes with the business of Gaussian, Inc. or will provide
 assistance to any competitor of Gaussian, Inc.  The licensee
 of this program is prohibited from giving any competitor of
 Gaussian, Inc. access to this program.  By using this program,
 the user acknowledges that Gaussian, Inc. is engaged in the
 business of creating and licensing software in the field of
 computational chemistry and represents and warrants to the
 licensee that it is not a competitor of Gaussian, Inc. and that
 it will not use this program in any manner prohibited above.
 ---------------------------------------------------------------
  

 Cite this work as:
 Gaussian 09, Revision A.02,
 M. J. Frisch, G. W. Trucks, H. B. Schlegel, G. E. Scuseria, 
 M. A. Robb, J. R. Cheeseman, G. Scalmani, V. Barone, B. Mennucci, 
 G. A. Petersson, H. Nakatsuji, M. Caricato, X. Li, H. P. Hratchian, 
 A. F. Izmaylov, J. Bloino, G. Zheng, J. L. Sonnenberg, M. Hada, 
 M. Ehara, K. Toyota, R. Fukuda, J. Hasegawa, M. Ishida, T. Nakajima, 
 Y. Honda, O. Kitao, H. Nakai, T. Vreven, J. A. Montgomery, Jr., 
 J. E. Peralta, F. Ogliaro, M. Bearpark, J. J. Heyd, E. Brothers, 
 K. N. Kudin, V. N. Staroverov, R. Kobayashi, J. Normand, 
 K. Raghavachari, A. Rendell, J. C. Burant, S. S. Iyengar, J. Tomasi, 
 M. Cossi, N. Rega, J. M. Millam, M. Klene, J. E. Knox, J. B. Cross, 
 V. Bakken, C. Adamo, J. Jaramillo, R. Gomperts, R. E. Stratmann, 
 O. Yazyev, A. J. Austin, R. Cammi, C. Pomelli, J. W. Ochterski, 
 R. L. Martin, K. Morokuma, V. G. Zakrzewski, G. A. Voth, 
 P. Salvador, J. J. Dannenberg, S. Dapprich, A. D. Daniels, 
 O. Farkas, J. B. Foresman, J. V. Ortiz, J. Cioslowski, 
 and D. J. Fox, Gaussian, Inc., Wallingford CT, 2009.
 
 ******************************************
 Gaussian 09:  IA32W-G09RevA.02 11-Jun-2009
                08-Feb-2021 
 ******************************************
 %chk=D:\Documents\rayGit\FQ\quimicaComputacional\proyecto\decompositionHydrogenP
 eroxide\descompositionByRadicals\gasPhase\step3\ts\Q2.1\tsM062X.chk
 %mem=1500mb
 %nproc=4
 Will use up to    4 processors via shared memory.
 ----------------------------------------------------------------
 # opt=(calcfc,qst2,maxcycles=100) freq=noraman m062x/6-31+g(d,p)
 ----------------------------------------------------------------
 1/5=1,6=100,10=4,14=-1,18=20,26=3,27=202,38=1/1,3;
 2/9=110,12=2,17=6,18=5,40=1/2;
 3/5=1,6=6,7=111,11=2,16=1,25=1,30=1,71=2,74=-55/1,2,3;
 4//1;
 5/5=2,38=5/2;
 8/6=4,10=90,11=11/1;
 11/6=1,8=1,9=11,15=111,16=1/1,2,10;
 10/6=1,7=6,13=1/2;
 6/7=2,8=2,9=2,10=2,28=1/1;
 7/10=1,18=20,25=1/1,2,3,16;
 1/5=1,6=100,10=4,14=-1,18=20,27=202/3(2);
 2/9=110/2;
 99//99;
 2/9=110/2;
 3/5=1,6=6,7=111,11=2,16=1,25=1,30=1,71=1,74=-55/1,2,3;
 4/5=5,16=3/1;
 5/5=2,38=5/2;
 7//1,2,3,16;
 1/5=1,6=100,14=-1,18=20,27=202/3(-5);
 2/9=110/2;
 6/7=2,8=2,9=2,10=2,19=2,28=1/1;
 99/9=1/99;
 ----
 reac
 ----
 Symbolic Z-matrix:
 Charge =  0 Multiplicity = 1
 O                    -0.67513  -0.0075   -0.06598 
 H                    -0.99559  -0.0075   -0.97092 
 O                    -0.52805  -1.25179   0.34937 
 O                    -1.50298  -0.0075   -2.40374 
 O                    -2.82298  -0.0075   -2.40374 
 H                    -3.14298   0.8976   -2.40374 
 
 ----
 prod
 ----
 Symbolic Z-matrix:
 Charge =  0 Multiplicity = 1
 O                    -0.67513  -0.0075   -0.06598 
 H                    -1.18252  -0.0075   -1.4988 
 O                    -0.52805  -1.25179   0.34937 
 O                    -1.50298  -0.0075   -2.40374 
 O                    -2.82298  -0.0075   -2.40374 
 H                    -3.14298   0.8976   -2.40374 
 
 Iteration  1 RMS(Cart)=  0.05186686 RMS(Int)=  0.13437104
 Iteration  2 RMS(Cart)=  0.05184960 RMS(Int)=  0.05272398
 Iteration  3 RMS(Cart)=  0.03348632 RMS(Int)=  0.00021198
 Iteration  4 RMS(Cart)=  0.00013450 RMS(Int)=  0.00000004
 Iteration  5 RMS(Cart)=  0.00000006 RMS(Int)=  0.00000000

 GradGradGradGradGradGradGradGradGradGradGradGradGradGradGradGradGradGrad
 Berny optimization.
 Initialization pass.
                           ----------------------------
                           !    Initial Parameters    !
                           ! (Angstroms and Degrees)  !
 --------------------------                            --------------------------
 ! Name  Definition        TS        Reactant  Product Derivative Info.         !
 --------------------------------------------------------------------------------
 ! R1    R(1,2)             1.24      0.96      1.52   calculate D2E/DX2 analyti!
 ! R2    R(1,3)             1.32      1.32      1.32   calculate D2E/DX2 analyti!
 ! R3    R(2,4)             1.24      1.52      0.96   calculate D2E/DX2 analyti!
 ! R4    R(4,5)             1.32      1.32      1.32   calculate D2E/DX2 analyti!
 ! R5    R(5,6)             0.96      0.96      0.96   calculate D2E/DX2 analyti!
 ! A1    A(2,1,3)         109.5     109.5     109.5    calculate D2E/DX2 analyti!
 ! A2    A(2,4,5)         109.5     109.5     109.5    calculate D2E/DX2 analyti!
 ! A3    A(4,5,6)         109.4712  109.4712  109.4712 calculate D2E/DX2 analyti!
 ! A4    L(1,2,4,3,-1)    180.0     180.0     180.0    calculate D2E/DX2 analyti!
 ! A5    L(1,2,4,3,-2)    180.0     180.0     180.0    calculate D2E/DX2 analyti!
 ! D1    D(3,1,4,5)        90.0      90.0      90.0    calculate D2E/DX2 analyti!
 ! D2    D(2,4,5,6)        90.0      90.0      90.0    calculate D2E/DX2 analyti!
 --------------------------------------------------------------------------------
 Trust Radius=3.00D-01 FncErr=1.00D-07 GrdErr=1.00D-06
 Number of steps in this run= 100 maximum allowed number of steps= 100.
 Search for a saddle point of order  1.
 GradGradGradGradGradGradGradGradGradGradGradGradGradGradGradGradGradGrad

                          Input orientation:                          
 ---------------------------------------------------------------------
 Center     Atomic      Atomic             Coordinates (Angstroms)
 Number     Number       Type             X           Y           Z
 ---------------------------------------------------------------------
      1          8           0       -0.679834   -0.011894   -0.007146
      2          1           0       -1.076277   -0.001593   -1.182019
      3          8           0       -0.520986   -1.259595    0.393364
      4          8           0       -1.472721    0.008708   -2.356892
      5          8           0       -2.792437   -0.010089   -2.376788
      6          1           0       -3.125444    0.890272   -2.369265
 ---------------------------------------------------------------------
                    Distance matrix (angstroms):
                    1          2          3          4          5
     1  O    0.000000
     2  H    1.240000   0.000000
     3  O    1.320000   2.091112   0.000000
     4  O    2.480000   1.240000   3.174634   0.000000
     5  O    3.174634   2.091112   3.794008   1.320000   0.000000
     6  H    3.517744   2.530624   4.363170   1.873179   0.960000
                    6
     6  H    0.000000
 Stoichiometry    H2O4
 Framework group  C1[X(H2O4)]
 Deg. of freedom    12
 Full point group                 C1      NOp   1
 Largest Abelian subgroup         C1      NOp   1
 Largest concise Abelian subgroup C1      NOp   1
                         Standard orientation:                         
 ---------------------------------------------------------------------
 Center     Atomic      Atomic             Coordinates (Angstroms)
 Number     Number       Type             X           Y           Z
 ---------------------------------------------------------------------
      1          8           0       -1.222385   -0.419511    0.431014
      2          1           0       -0.067875   -0.427722   -0.021358
      3          8           0       -1.952988    0.450123   -0.241560
      4          8           0        1.086634   -0.435932   -0.473730
      5          8           0        1.818590    0.453891    0.170362
      6          1           0        2.229063    0.039155    0.932666
 ---------------------------------------------------------------------
 Rotational constants (GHZ):     23.6503221      2.9648181      2.9004922
 Standard basis: 6-31+G(d,p) (6D, 7F)
 There are    86 symmetry adapted basis functions of A   symmetry.
 Integral buffers will be    262144 words long.
 Raffenetti 2 integral format.
 Two-electron integral symmetry is turned on.
    86 basis functions,   142 primitive gaussians,    86 cartesian basis functions
    17 alpha electrons       17 beta electrons
       nuclear repulsion energy       115.1627931951 Hartrees.
 NAtoms=    6 NActive=    6 NUniq=    6 SFac= 7.50D-01 NAtFMM=   80 NAOKFM=F Big=F
 One-electron integrals computed using PRISM.
 NBasis=    86 RedAO= T  NBF=    86
 NBsUse=    86 1.00D-06 NBFU=    86
 Harris functional with IExCor= 1009 diagonalized for initial guess.
 ExpMin= 8.45D-02 ExpMax= 5.48D+03 ExpMxC= 8.25D+02 IAcc=2 IRadAn=         0 AccDes= 0.00D+00
 HarFok:  IExCor= 1009 AccDes= 0.00D+00 IRadAn=         0 IDoV= 1
 ScaDFX=  1.000000  1.000000  1.000000  1.000000
 FoFCou: FMM=F IPFlag=           0 FMFlag=      100000 FMFlg1=           0
         NFxFlg=           0 DoJE=T BraDBF=F KetDBF=T FulRan=T
         Omega=  0.000000  0.000000  1.000000  0.000000  0.000000 ICntrl=     500 IOpCl=  0
         NMat0=    1 NMatS0=    1 NMatT0=    0 NMatD0=    1 NMtDS0=    0 NMtDT0=    0
         I1Cent=           4 NGrid=           0.
 Petite list used in FoFCou.
 Initial guess orbital symmetries:
       Occupied  (A) (A) (A) (A) (A) (A) (A) (A) (A) (A) (A) (A)
                 (A) (A) (A) (A) (A)
       Virtual   (A) (A) (A) (A) (A) (A) (A) (A) (A) (A) (A) (A)
                 (A) (A) (A) (A) (A) (A) (A) (A) (A) (A) (A) (A)
                 (A) (A) (A) (A) (A) (A) (A) (A) (A) (A) (A) (A)
                 (A) (A) (A) (A) (A) (A) (A) (A) (A) (A) (A) (A)
                 (A) (A) (A) (A) (A) (A) (A) (A) (A) (A) (A) (A)
                 (A) (A) (A) (A) (A) (A) (A) (A) (A)
 The electronic state of the initial guess is 1-A.
 Requested convergence on RMS density matrix=1.00D-08 within 128 cycles.
 Requested convergence on MAX density matrix=1.00D-06.
 Requested convergence on             energy=1.00D-06.
 No special actions if energy rises.
 Keep R1 ints in memory in canonical form, NReq=7992901.
 Integral accuracy reduced to 1.0D-05 until final iterations.
 Rare condition: small coef for last iteration:  0.000D+00
 Rare condition: small coef for last iteration:  0.000D+00
 Rare condition: small coef for last iteration:  0.000D+00
 Problem detected with inexpensive integrals.
 Switching to full accuracy and repeating last cycle.
 SCF Done:  E(RM062X) =  -301.613614143     A.U. after   36 cycles
             Convg  =    0.3973D-08             -V/T =  2.0085
 Range of M.O.s used for correlation:     1    86
 NBasis=    86 NAE=    17 NBE=    17 NFC=     0 NFV=     0
 NROrb=     86 NOA=    17 NOB=    17 NVA=    69 NVB=    69

 **** Warning!!: The largest alpha MO coefficient is  0.16784215D+02


 **** Warning!!: The smallest alpha delta epsilon is  0.86257084D-01

 Symmetrizing basis deriv contribution to polar:
 IMax=3 JMax=2 DiffMx= 0.00D+00
 G2DrvN: will do     7 centers at a time, making    1 passes doing MaxLOS=2.
 Calling FoFCou, ICntrl=  3107 FMM=F I1Cent=   0 AccDes= 0.00D+00.
 FoFDir/FoFCou used for L=0 through L=2.
 End of G2Drv Frequency-dependent properties file   721 does not exist.
 End of G2Drv Frequency-dependent properties file   722 does not exist.
          IDoAtm=111111
          Differentiating once with respect to nuclear coordinates.
          Keep R1 ints in memory in canonical form, NReq=7820771.
          There are    21 degrees of freedom in the 1st order CPHF.  IDoFFX=5.
     15 vectors produced by pass  0 Test12= 5.59D-11 4.76D-07 XBig12= 2.30D-01 4.27D-01.
 AX will form    15 AO Fock derivatives at one time.
     15 vectors produced by pass  1 Test12= 5.59D-11 4.76D-07 XBig12= 3.59D-02 8.72D-02.
     15 vectors produced by pass  2 Test12= 5.59D-11 4.76D-07 XBig12= 3.91D-03 1.06D-02.
     15 vectors produced by pass  3 Test12= 5.59D-11 4.76D-07 XBig12= 6.10D-05 1.93D-03.
     15 vectors produced by pass  4 Test12= 5.59D-11 4.76D-07 XBig12= 9.50D-07 3.51D-04.
     10 vectors produced by pass  5 Test12= 5.59D-11 4.76D-07 XBig12= 9.18D-09 2.13D-05.
      1 vectors produced by pass  6 Test12= 5.59D-11 4.76D-07 XBig12= 4.79D-11 1.13D-06.
 Inverted reduced A of dimension    86 with in-core refinement.
 End of Minotr Frequency-dependent properties file   721 does not exist.
 End of Minotr Frequency-dependent properties file   722 does not exist.

 **********************************************************************

            Population analysis using the SCF density.

 **********************************************************************

 Orbital symmetries:
       Occupied  (A) (A) (A) (A) (A) (A) (A) (A) (A) (A) (A) (A)
                 (A) (A) (A) (A) (A)
       Virtual   (A) (A) (A) (A) (A) (A) (A) (A) (A) (A) (A) (A)
                 (A) (A) (A) (A) (A) (A) (A) (A) (A) (A) (A) (A)
                 (A) (A) (A) (A) (A) (A) (A) (A) (A) (A) (A) (A)
                 (A) (A) (A) (A) (A) (A) (A) (A) (A) (A) (A) (A)
                 (A) (A) (A) (A) (A) (A) (A) (A) (A) (A) (A) (A)
                 (A) (A) (A) (A) (A) (A) (A) (A) (A)
 The electronic state is 1-A.
 Alpha  occ. eigenvalues --  -19.88805 -19.88701 -19.68402 -19.66454  -1.41146
 Alpha  occ. eigenvalues --   -1.27054  -1.03596  -0.93908  -0.70954  -0.65825
 Alpha  occ. eigenvalues --   -0.61946  -0.60226  -0.53157  -0.50070  -0.45387
 Alpha  occ. eigenvalues --   -0.32239  -0.31126
 Alpha virt. eigenvalues --   -0.22500   0.04393   0.07061   0.08206   0.12535
 Alpha virt. eigenvalues --    0.13496   0.15508   0.16936   0.18102   0.19076
 Alpha virt. eigenvalues --    0.20393   0.21890   0.23250   0.26720   0.27264
 Alpha virt. eigenvalues --    0.27891   0.28442   0.31686   0.33099   0.39996
 Alpha virt. eigenvalues --    0.40844   0.97150   1.01417   1.04137   1.05766
 Alpha virt. eigenvalues --    1.08361   1.11257   1.13427   1.14669   1.18636
 Alpha virt. eigenvalues --    1.20474   1.22653   1.25290   1.28780   1.32518
 Alpha virt. eigenvalues --    1.36190   1.43376   1.43822   1.46541   1.50558
 Alpha virt. eigenvalues --    1.57099   1.57980   1.60833   1.63908   1.71176
 Alpha virt. eigenvalues --    1.78272   1.80236   1.83357   1.87651   2.20744
 Alpha virt. eigenvalues --    2.22319   2.26316   2.29894   2.31876   2.42910
 Alpha virt. eigenvalues --    2.53884   2.66739   2.74636   2.77573   2.81467
 Alpha virt. eigenvalues --    2.97681   2.99477   3.08989   3.45871   3.52984
 Alpha virt. eigenvalues --    3.77414   4.02966   4.18703   4.34715
          Condensed to atoms (all electrons):
              1          2          3          4          5          6
     1  O    7.797975  -0.043124   0.316568  -0.063515   0.035789   0.000028
     2  H   -0.043124   0.403052   0.005204   0.225614  -0.056894  -0.000798
     3  O    0.316568   0.005204   7.583996   0.024725  -0.001741  -0.000634
     4  O   -0.063515   0.225614   0.024725   8.272066   0.041293  -0.039501
     5  O    0.035789  -0.056894  -0.001741   0.041293   8.123545   0.253202
     6  H    0.000028  -0.000798  -0.000634  -0.039501   0.253202   0.426933
 Mulliken atomic charges:
              1
     1  O   -0.043720
     2  H    0.466946
     3  O    0.071882
     4  O   -0.460683
     5  O   -0.395195
     6  H    0.360770
 Sum of Mulliken atomic charges =   0.00000
 Mulliken charges with hydrogens summed into heavy atoms:
              1
     1  O   -0.043720
     3  O    0.071882
     4  O    0.006263
     5  O   -0.034425
 Sum of Mulliken charges with hydrogens summed into heavy atoms =   0.00000
 APT atomic charges:
              1
     1  O   -0.139501
     2  H    0.450933
     3  O    0.201433
     4  O   -0.406788
     5  O   -0.751207
     6  H    0.645130
 Sum of APT charges=   0.00000
 APT Atomic charges with hydrogens summed into heavy atoms:
              1
     1  O   -0.139501
     2  H    0.000000
     3  O    0.201433
     4  O    0.044145
     5  O   -0.106077
     6  H    0.000000
 Sum of APT charges=   0.00000
 Electronic spatial extent (au):  <R**2>=            387.5493
 Charge=              0.0000 electrons
 Dipole moment (field-independent basis, Debye):
    X=             -2.4479    Y=             -0.5175    Z=              2.2868  Tot=              3.3896
 Quadrupole moment (field-independent basis, Debye-Ang):
   XX=            -21.4697   YY=            -23.6370   ZZ=            -21.8860
   XY=             -1.0120   XZ=              5.1599   YZ=             -0.4154
 Traceless Quadrupole moment (field-independent basis, Debye-Ang):
   XX=              0.8612   YY=             -1.3061   ZZ=              0.4449
   XY=             -1.0120   XZ=              5.1599   YZ=             -0.4154
 Octapole moment (field-independent basis, Debye-Ang**2):
  XXX=             -0.3400  YYY=              0.3867  ZZZ=              3.7237  XYY=             -5.0147
  XXY=             -1.7420  XXZ=              7.9292  XZZ=              1.1271  YZZ=              0.3909
  YYZ=              0.4811  XYZ=             -1.8149
 Hexadecapole moment (field-independent basis, Debye-Ang**3):
 XXXX=           -330.7224 YYYY=            -45.0690 ZZZZ=            -36.0390 XXXY=             -7.7437
 XXXZ=             27.6903 YYYX=             -1.4587 YYYZ=             -0.8783 ZZZX=              7.3427
 ZZZY=             -0.8080 XXYY=            -67.2980 XXZZ=            -55.2035 YYZZ=            -13.7152
 XXYZ=             -0.3474 YYXZ=              1.4674 ZZXY=              0.0117
 N-N= 1.151627931951D+02 E-N=-9.418123580433D+02  KE= 2.990659050701D+02
  Exact polarizability:   0.000   0.000   0.000   0.000   0.000   0.000
 Approx polarizability: 104.554 -12.069  27.444  -1.344  -4.204  25.082
 Calling FoFJK, ICntrl=    100147 FMM=F ISym2X=0 I1Cent= 0 IOpClX= 0 NMat=1 NMatS=1 NMatT=0.
 ***** Axes restored to original set *****
 -------------------------------------------------------------------
 Center     Atomic                   Forces (Hartrees/Bohr)
 Number     Number              X              Y              Z
 -------------------------------------------------------------------
      1        8           0.025035795   -0.121978990    0.074753866
      2        1          -0.036414556   -0.002830471   -0.089926983
      3        8          -0.014763519    0.124330270   -0.043319786
      4        8           0.104409357    0.004538675    0.053959266
      5        8          -0.080471606   -0.015646041    0.007181526
      6        1           0.002204529    0.011586556   -0.002647889
 -------------------------------------------------------------------
 Cartesian Forces:  Max     0.124330270 RMS     0.061832645

 GradGradGradGradGradGradGradGradGradGradGradGradGradGradGradGradGradGrad
 Berny optimization.
 Internal  Forces:  Max     0.132411659 RMS     0.049419608
 Search for a saddle point.
 Step number   1 out of a maximum of  100
 All quantities printed in internal units (Hartrees-Bohrs-Radians)
 Second derivative matrix not updated -- analytic derivatives used.
 The second derivative matrix:
                          R1        R2        R3        R4        R5
           R1           0.06355
           R2           0.06033   0.31074
           R3           0.11479  -0.03478   0.06334
           R4          -0.02008   0.04038   0.01881   0.58665
           R5           0.00665  -0.00814  -0.00373   0.01438   0.54252
           A1          -0.01324   0.02520   0.00968  -0.00582   0.00149
           A2           0.00907  -0.00796  -0.01026   0.05435   0.00025
           A3           0.01245  -0.01080  -0.00475   0.07770  -0.00349
           A4          -0.00243  -0.00726   0.00206  -0.00037   0.00086
           A5           0.00163  -0.00131  -0.00045  -0.00282   0.00046
           D1           0.01459  -0.00833  -0.00043   0.00419  -0.00070
           D2           0.00139   0.00286   0.00332   0.00012   0.00085
                          A1        A2        A3        A4        A5
           A1           0.06281
           A2           0.00299   0.15459
           A3          -0.00095   0.00724   0.22658
           A4          -0.02369   0.00476  -0.00090   0.03209
           A5           0.00462  -0.02045  -0.00004   0.00136   0.01029
           D1          -0.00302  -0.00532   0.00011  -0.00263   0.00001
           D2          -0.00644   0.00694   0.01151   0.00072   0.00362
                          D1        D2
           D1           0.00481
           D2           0.00172   0.00984
 LST/QST climbing along tangent vector
     Eigenvalues ---   -0.05135   0.00093   0.00324   0.01268   0.02104
     Eigenvalues ---    0.07333   0.15039   0.17507   0.21041   0.31534
     Eigenvalues ---    0.54094   0.61579
 Eigenvectors required to have negative eigenvalues:
                          R1        R3        A2        D1        D2
   1                    0.70711  -0.70711   0.00000   0.00000   0.00000
                          R2        A1        A3        A5        R4
   1                    0.00000   0.00000   0.00000   0.00000   0.00000
 QST in optimization variable space.
                        Tangent   TS vect  // Eig F  Eigenval
   1         R1         0.70711   0.70711   0.06846  -0.05135
   2         R2         0.00000   0.00000  -0.00387   0.00093
   3         R3        -0.70711  -0.70711   0.00141   0.00324
   4         R4         0.00000   0.00000   0.00258   0.01268
   5         R5         0.00000   0.00000  -0.00155   0.02104
   6         A1         0.00000   0.00000   0.00509   0.07333
   7         A2         0.00000   0.00000  -0.01709   0.15039
   8         A3         0.00000   0.00000   0.00196   0.17507
   9         A4         0.00000   0.00000  -0.02274   0.21041
  10         A5         0.00000   0.00000  -0.06663   0.31534
  11         D1         0.00000   0.00000   0.00320   0.54094
  12         D2         0.00000   0.00000   0.02899   0.61579
 RFO step:  Lambda0=4.744419051D-02 Lambda=-1.99093982D-02.
 Linear search not attempted -- option 19 set.
 Maximum step size (   0.300) exceeded in Quadratic search.
    -- Step size scaled by   0.390
 Iteration  1 RMS(Cart)=  0.05787563 RMS(Int)=  0.00152222
 Iteration  2 RMS(Cart)=  0.00135730 RMS(Int)=  0.00000208
 Iteration  3 RMS(Cart)=  0.00000232 RMS(Int)=  0.00000000
 Iteration  4 RMS(Cart)=  0.00000000 RMS(Int)=  0.00000000
 Variable       Old X    -DE/DX   Delta X   Delta X   Delta X     New X
                                 (Linear)    (Quad)   (Total)
    R1        2.34326   0.03301   0.00000  -0.20094  -0.20094   2.14232
    R2        2.49444  -0.13241   0.00000  -0.08588  -0.08588   2.40856
    R3        2.34326  -0.06381   0.00000   0.18160   0.18160   2.52486
    R4        2.49444   0.07828   0.00000   0.03735   0.03735   2.53179
    R5        1.81414   0.01009   0.00000   0.00110   0.00110   1.81524
    A1        1.91114  -0.00699   0.00000   0.01749   0.01749   1.92863
    A2        1.91114  -0.01280   0.00000  -0.03543  -0.03543   1.87570
    A3        1.91063  -0.01087   0.00000  -0.02589  -0.02589   1.88474
    A4        3.14159  -0.00191   0.00000  -0.00830  -0.00830   3.13329
    A5        3.14159   0.00025   0.00000  -0.03262  -0.03262   3.10897
    D1        1.57080   0.00510   0.00000  -0.00039  -0.00039   1.57040
    D2        1.57080   0.00477   0.00000   0.06714   0.06714   1.63794
         Item               Value     Threshold  Converged?
 Maximum Force            0.132412     0.000450     NO 
 RMS     Force            0.049420     0.000300     NO 
 Maximum Displacement     0.131542     0.001800     NO 
 RMS     Displacement     0.058209     0.001200     NO 
 Predicted change in Energy= 4.610121D-03
 GradGradGradGradGradGradGradGradGradGradGradGradGradGradGradGradGradGrad

                          Input orientation:                          
 ---------------------------------------------------------------------
 Center     Atomic      Atomic             Coordinates (Angstroms)
 Number     Number       Type             X           Y           Z
 ---------------------------------------------------------------------
      1          8           0       -0.696473   -0.029749   -0.031969
      2          1           0       -1.038932   -0.005817   -1.112410
      3          8           0       -0.535122   -1.232194    0.358654
      4          8           0       -1.467522    0.010851   -2.377795
      5          8           0       -2.806698   -0.016783   -2.349257
      6          1           0       -3.122953    0.889501   -2.385969
 ---------------------------------------------------------------------
                    Distance matrix (angstroms):
                    1          2          3          4          5
     1  O    0.000000
     2  H    1.133668   0.000000
     3  O    1.274556   1.980367   0.000000
     4  O    2.469628   1.336101   3.146853   0.000000
     5  O    3.134173   2.157523   3.737654   1.339765   0.000000
     6  H    3.503447   2.601286   4.327980   1.874178   0.960581
                    6
     6  H    0.000000
 Stoichiometry    H2O4
 Framework group  C1[X(H2O4)]
 Deg. of freedom    12
 Full point group                 C1      NOp   1
 Largest Abelian subgroup         C1      NOp   1
 Largest concise Abelian subgroup C1      NOp   1
                         Standard orientation:                         
 ---------------------------------------------------------------------
 Center     Atomic      Atomic             Coordinates (Angstroms)
 Number     Number       Type             X           Y           Z
 ---------------------------------------------------------------------
      1          8           0        1.212418    0.302934    0.491407
      2          1           0        0.159930    0.426468    0.088650
      3          8           0        1.922637   -0.379669   -0.317379
      4          8           0       -1.084902    0.544007   -0.382245
      5          8           0       -1.791495   -0.493767    0.085433
      6          1           0       -2.229185   -0.214506    0.893615
 ---------------------------------------------------------------------
 Rotational constants (GHZ):     23.6901066      3.0354844      2.9651872
 Standard basis: 6-31+G(d,p) (6D, 7F)
 There are    86 symmetry adapted basis functions of A   symmetry.
 Integral buffers will be    262144 words long.
 Raffenetti 2 integral format.
 Two-electron integral symmetry is turned on.
    86 basis functions,   142 primitive gaussians,    86 cartesian basis functions
    17 alpha electrons       17 beta electrons
       nuclear repulsion energy       116.2517172705 Hartrees.
 NAtoms=    6 NActive=    6 NUniq=    6 SFac= 7.50D-01 NAtFMM=   80 NAOKFM=F Big=F
 One-electron integrals computed using PRISM.
 NBasis=    86 RedAO= T  NBF=    86
 NBsUse=    86 1.00D-06 NBFU=    86
 Initial guess read from the read-write file.
 B after Tr=     0.000000    0.000000    0.000000
         Rot=    1.000000    0.000000    0.000000    0.000000 Ang=   0.00 deg.
 Initial guess orbital symmetries:
       Occupied  (A) (A) (A) (A) (A) (A) (A) (A) (A) (A) (A) (A)
                 (A) (A) (A) (A) (A)
       Virtual   (A) (A) (A) (A) (A) (A) (A) (A) (A) (A) (A) (A)
                 (A) (A) (A) (A) (A) (A) (A) (A) (A) (A) (A) (A)
                 (A) (A) (A) (A) (A) (A) (A) (A) (A) (A) (A) (A)
                 (A) (A) (A) (A) (A) (A) (A) (A) (A) (A) (A) (A)
                 (A) (A) (A) (A) (A) (A) (A) (A) (A) (A) (A) (A)
                 (A) (A) (A) (A) (A) (A) (A) (A) (A)
 Harris functional with IExCor= 1009 diagonalized for initial guess.
 ExpMin= 8.45D-02 ExpMax= 5.48D+03 ExpMxC= 8.25D+02 IAcc=2 IRadAn=         0 AccDes= 0.00D+00
 HarFok:  IExCor= 1009 AccDes= 0.00D+00 IRadAn=         0 IDoV= 1
 ScaDFX=  1.000000  1.000000  1.000000  1.000000
 FoFCou: FMM=F IPFlag=           0 FMFlag=      100000 FMFlg1=           0
         NFxFlg=           0 DoJE=T BraDBF=F KetDBF=T FulRan=T
         Omega=  0.000000  0.000000  1.000000  0.000000  0.000000 ICntrl=     500 IOpCl=  0
         NMat0=    1 NMatS0=    1 NMatT0=    0 NMatD0=    1 NMtDS0=    0 NMtDT0=    0
         I1Cent=           4 NGrid=           0.
 Petite list used in FoFCou.
 Requested convergence on RMS density matrix=1.00D-08 within 128 cycles.
 Requested convergence on MAX density matrix=1.00D-06.
 Requested convergence on             energy=1.00D-06.
 No special actions if energy rises.
 Keep R1 ints in memory in canonical form, NReq=7992901.
 Integral accuracy reduced to 1.0D-05 until final iterations.
 Initial convergence to 1.0D-05 achieved.  Increase integral accuracy.
 SCF Done:  E(RM062X) =  -301.628444173     A.U. after   33 cycles
             Convg  =    0.2060D-08             -V/T =  2.0083
 Calling FoFJK, ICntrl=      2127 FMM=F ISym2X=0 I1Cent= 0 IOpClX= 0 NMat=1 NMatS=1 NMatT=0.
 ***** Axes restored to original set *****
 -------------------------------------------------------------------
 Center     Atomic                   Forces (Hartrees/Bohr)
 Number     Number              X              Y              Z
 -------------------------------------------------------------------
      1        8           0.014060404   -0.046959677    0.029735639
      2        1          -0.033353829   -0.000803380   -0.050444693
      3        8          -0.006109444    0.047398784   -0.016507698
      4        8           0.044150907    0.005386169    0.027095931
      5        8          -0.021241692   -0.017508468    0.012391169
      6        1           0.002493654    0.012486572   -0.002270349
 -------------------------------------------------------------------
 Cartesian Forces:  Max     0.050444693 RMS     0.027174811

 GradGradGradGradGradGradGradGradGradGradGradGradGradGradGradGradGradGrad
 Berny optimization.
 Internal  Forces:  Max     0.050552753 RMS     0.022078579
 Search for a saddle point.
 Step number   2 out of a maximum of  100
 All quantities printed in internal units (Hartrees-Bohrs-Radians)
 Update second derivatives using D2CorX and points    1    2
 The second derivative matrix:
                          R1        R2        R3        R4        R5
           R1          -0.00385
           R2           0.13842   0.38005
           R3           0.17208  -0.10658   0.01483
           R4          -0.10013  -0.00525   0.09154   0.61143
           R5           0.00889  -0.00794  -0.00573   0.01462   0.54250
           A1           0.00646   0.02305  -0.00776  -0.00033   0.00120
           A2          -0.03190  -0.00396   0.02604   0.04335   0.00085
           A3          -0.00481  -0.00362   0.01035   0.06830  -0.00314
           A4          -0.00006  -0.00230  -0.00022  -0.00423   0.00091
           A5           0.00782   0.01713  -0.00658  -0.01765   0.00070
           D1           0.00161  -0.01250   0.01125   0.00541  -0.00061
           D2           0.00666  -0.02903  -0.00029   0.02871   0.00023
                          A1        A2        A3        A4        A5
           A1           0.05973
           A2           0.00934   0.14151
           A3           0.00243   0.00024   0.22319
           A4          -0.02339   0.00411  -0.00091   0.03237
           A5           0.00613  -0.02366  -0.00051   0.00238   0.01383
           D1          -0.00171  -0.00798  -0.00167  -0.00310  -0.00188
           D2          -0.01132   0.01716   0.01493  -0.00071  -0.00099
                          D1        D2
           D1           0.00462
           D2           0.00583   0.01358
 LST/QST climbing along tangent vector
     Eigenvalues ---   -0.19633  -0.00784   0.00402   0.01149   0.02261
     Eigenvalues ---    0.07258   0.14142   0.17577   0.21374   0.41230
     Eigenvalues ---    0.54076   0.64326
 Eigenvectors required to have negative eigenvalues:
                          R3        R1        R2        D2        R4
   1                    0.71062  -0.69005   0.09137  -0.07144  -0.03974
                          A2        A5        A3        A1        A4
   1                    0.03770   0.03471   0.02755  -0.01861   0.00883
 QST in optimization variable space.
                        Tangent   TS vect  // Eig F  Eigenval
   1         R1         0.69005  -0.69005  -0.04778  -0.19633
   2         R2        -0.09137   0.09137  -0.00122  -0.00784
   3         R3        -0.71062   0.71062  -0.00110   0.00402
   4         R4         0.03974  -0.03974   0.00169   0.01149
   5         R5         0.00117  -0.00117   0.00122   0.02261
   6         A1         0.01861  -0.01861   0.00124   0.07258
   7         A2        -0.03770   0.03770  -0.01347   0.14142
   8         A3        -0.02755   0.02755  -0.00554   0.17577
   9         A4        -0.00883   0.00883  -0.00596   0.21374
  10         A5        -0.03471   0.03471  -0.02255   0.41230
  11         D1        -0.00042   0.00042   0.00505   0.54076
  12         D2         0.07144  -0.07144   0.01007   0.64326
 RFO step:  Lambda0=1.100931634D-02 Lambda=-8.14261672D-03.
 Linear search not attempted -- option 19 set.
 Maximum step size (   0.300) exceeded in Quadratic search.
    -- Step size scaled by   0.373
 Iteration  1 RMS(Cart)=  0.08607771 RMS(Int)=  0.00783223
 Iteration  2 RMS(Cart)=  0.00677699 RMS(Int)=  0.00005626
 Iteration  3 RMS(Cart)=  0.00005655 RMS(Int)=  0.00000000
 Iteration  4 RMS(Cart)=  0.00000000 RMS(Int)=  0.00000000
 Variable       Old X    -DE/DX   Delta X   Delta X   Delta X     New X
                                 (Linear)    (Quad)   (Total)
    R1        2.14232   0.01504   0.00000  -0.05593  -0.05593   2.08639
    R2        2.40856  -0.05055   0.00000  -0.03273  -0.03273   2.37583
    R3        2.52486  -0.04336   0.00000   0.04017   0.04017   2.56503
    R4        2.53179   0.01901   0.00000   0.01407   0.01407   2.54586
    R5        1.81524   0.01103   0.00000   0.00243   0.00243   1.81766
    A1        1.92863  -0.00218   0.00000  -0.06629  -0.06629   1.86234
    A2        1.87570  -0.02293   0.00000   0.03610   0.03610   1.91181
    A3        1.88474  -0.01186   0.00000   0.00458   0.00458   1.88932
    A4        3.13329  -0.00100   0.00000  -0.04483  -0.04483   3.08846
    A5        3.10897   0.00472   0.00000   0.16609   0.16609   3.27506
    D1        1.57040   0.00133   0.00000   0.09273   0.09273   1.66313
    D2        1.63794   0.00284   0.00000  -0.20018  -0.20018   1.43776
         Item               Value     Threshold  Converged?
 Maximum Force            0.050553     0.000450     NO 
 RMS     Force            0.022079     0.000300     NO 
 Maximum Displacement     0.134939     0.001800     NO 
 RMS     Displacement     0.087109     0.001200     NO 
 Predicted change in Energy= 1.276209D-03
 GradGradGradGradGradGradGradGradGradGradGradGradGradGradGradGradGradGrad

                          Input orientation:                          
 ---------------------------------------------------------------------
 Center     Atomic      Atomic             Coordinates (Angstroms)
 Number     Number       Type             X           Y           Z
 ---------------------------------------------------------------------
      1          8           0       -0.681579   -0.008972   -0.018931
      2          1           0       -1.089770   -0.002061   -1.044750
      3          8           0       -0.510890   -1.214628    0.293965
      4          8           0       -1.473735   -0.055010   -2.345591
      5          8           0       -2.818155   -0.011646   -2.420663
      6          1           0       -3.093571    0.908125   -2.362777
 ---------------------------------------------------------------------
                    Distance matrix (angstroms):
                    1          2          3          4          5
     1  O    0.000000
     2  H    1.104071   0.000000
     3  O    1.257236   1.896729   0.000000
     4  O    2.458246   1.357357   3.039579   0.000000
     5  O    3.214542   2.209195   3.760298   1.347212   0.000000
     6  H    3.486027   2.565316   4.270199   1.884620   0.961864
                    6
     6  H    0.000000
 Stoichiometry    H2O4
 Framework group  C1[X(H2O4)]
 Deg. of freedom    12
 Full point group                 C1      NOp   1
 Largest Abelian subgroup         C1      NOp   1
 Largest concise Abelian subgroup C1      NOp   1
                         Standard orientation:                         
 ---------------------------------------------------------------------
 Center     Atomic      Atomic             Coordinates (Angstroms)
 Number     Number       Type             X           Y           Z
 ---------------------------------------------------------------------
      1          8           0        1.246372   -0.501563   -0.312450
      2          1           0        0.204575   -0.387147    0.034737
      3          8           0        1.881620    0.495172    0.116064
      4          8           0       -1.026218   -0.251882    0.590859
      5          8           0       -1.854051    0.346977   -0.287231
      6          1           0       -2.186361   -0.322493   -0.892675
 ---------------------------------------------------------------------
 Rotational constants (GHZ):     24.5572156      3.0165785      2.9848541
 Standard basis: 6-31+G(d,p) (6D, 7F)
 There are    86 symmetry adapted basis functions of A   symmetry.
 Integral buffers will be    262144 words long.
 Raffenetti 2 integral format.
 Two-electron integral symmetry is turned on.
    86 basis functions,   142 primitive gaussians,    86 cartesian basis functions
    17 alpha electrons       17 beta electrons
       nuclear repulsion energy       116.6992205899 Hartrees.
 NAtoms=    6 NActive=    6 NUniq=    6 SFac= 7.50D-01 NAtFMM=   80 NAOKFM=F Big=F
 One-electron integrals computed using PRISM.
 NBasis=    86 RedAO= T  NBF=    86
 NBsUse=    86 1.00D-06 NBFU=    86
 Initial guess read from the read-write file.
 B after Tr=     0.000000    0.000000    0.000000
         Rot=    1.000000    0.000000    0.000000    0.000000 Ang=   0.00 deg.
 Initial guess orbital symmetries:
       Occupied  (A) (A) (A) (A) (A) (A) (A) (A) (A) (A) (A) (A)
                 (A) (A) (A) (A) (A)
       Virtual   (A) (A) (A) (A) (A) (A) (A) (A) (A) (A) (A) (A)
                 (A) (A) (A) (A) (A) (A) (A) (A) (A) (A) (A) (A)
                 (A) (A) (A) (A) (A) (A) (A) (A) (A) (A) (A) (A)
                 (A) (A) (A) (A) (A) (A) (A) (A) (A) (A) (A) (A)
                 (A) (A) (A) (A) (A) (A) (A) (A) (A) (A) (A) (A)
                 (A) (A) (A) (A) (A) (A) (A) (A) (A)
 Harris functional with IExCor= 1009 diagonalized for initial guess.
 ExpMin= 8.45D-02 ExpMax= 5.48D+03 ExpMxC= 8.25D+02 IAcc=2 IRadAn=         0 AccDes= 0.00D+00
 HarFok:  IExCor= 1009 AccDes= 0.00D+00 IRadAn=         0 IDoV= 1
 ScaDFX=  1.000000  1.000000  1.000000  1.000000
 FoFCou: FMM=F IPFlag=           0 FMFlag=      100000 FMFlg1=           0
         NFxFlg=           0 DoJE=T BraDBF=F KetDBF=T FulRan=T
         Omega=  0.000000  0.000000  1.000000  0.000000  0.000000 ICntrl=     500 IOpCl=  0
         NMat0=    1 NMatS0=    1 NMatT0=    0 NMatD0=    1 NMtDS0=    0 NMtDT0=    0
         I1Cent=           4 NGrid=           0.
 Petite list used in FoFCou.
 Requested convergence on RMS density matrix=1.00D-08 within 128 cycles.
 Requested convergence on MAX density matrix=1.00D-06.
 Requested convergence on             energy=1.00D-06.
 No special actions if energy rises.
 Keep R1 ints in memory in canonical form, NReq=7992901.
 Integral accuracy reduced to 1.0D-05 until final iterations.
 Initial convergence to 1.0D-05 achieved.  Increase integral accuracy.
 SCF Done:  E(RM062X) =  -301.626019401     A.U. after   34 cycles
             Convg  =    0.1699D-08             -V/T =  2.0081
 Calling FoFJK, ICntrl=      2127 FMM=F ISym2X=0 I1Cent= 0 IOpClX= 0 NMat=1 NMatS=1 NMatT=0.
 ***** Axes restored to original set *****
 -------------------------------------------------------------------
 Center     Atomic                   Forces (Hartrees/Bohr)
 Number     Number              X              Y              Z
 -------------------------------------------------------------------
      1        8           0.013092277   -0.031678829    0.021023868
      2        1          -0.033388718    0.000794178   -0.052155764
      3        8          -0.001862262    0.026569688   -0.002674372
      4        8           0.036392286    0.009213910    0.025208425
      5        8          -0.017990184   -0.016442757    0.012279485
      6        1           0.003756602    0.011543811   -0.003681642
 -------------------------------------------------------------------
 Cartesian Forces:  Max     0.052155764 RMS     0.022508851

 GradGradGradGradGradGradGradGradGradGradGradGradGradGradGradGradGradGrad
 Berny optimization.
 Internal  Forces:  Max     0.038878604 RMS     0.017691320
 Search for a saddle point.
 Step number   3 out of a maximum of  100
 All quantities printed in internal units (Hartrees-Bohrs-Radians)
 Update second derivatives using D2CorX and points    1    2    3
 The second derivative matrix:
                          R1        R2        R3        R4        R5
           R1           0.00867
           R2           0.14984   0.38890
           R3           0.17390  -0.10851   0.00687
           R4          -0.08829   0.00134   0.08361   0.61129
           R5           0.00836  -0.00833  -0.00561   0.01435   0.54251
           A1           0.02861   0.03811  -0.01633   0.00682   0.00055
           A2          -0.03122  -0.00394   0.02474   0.04233   0.00085
           A3          -0.00612  -0.00424   0.01150   0.06862  -0.00312
           A4           0.00130  -0.00033   0.00165  -0.00096   0.00082
           A5           0.00464   0.01175  -0.01277  -0.02745   0.00097
           D1          -0.00144  -0.01651   0.00798  -0.00083  -0.00042
           D2           0.01973  -0.01714   0.00160   0.04114  -0.00032
                          A1        A2        A3        A4        A5
           A1           0.08198
           A2           0.00861   0.14126
           A3           0.00203   0.00038   0.22310
           A4          -0.01864   0.00452  -0.00131   0.03213
           A5          -0.00745  -0.02502   0.00072   0.00339   0.00984
           D1          -0.01103  -0.00874  -0.00092  -0.00276  -0.00350
           D2           0.01149   0.01813   0.01361   0.00048  -0.00336
                          D1        D2
           D1           0.00417
           D2           0.00315   0.02607
 LST/QST climbing along tangent vector
     Eigenvalues ---   -0.20755  -0.01304   0.00551   0.01978   0.02719
     Eigenvalues ---    0.08566   0.14044   0.17831   0.21320   0.44073
     Eigenvalues ---    0.54082   0.64574
 Eigenvectors required to have negative eigenvalues:
                          R3        R1        A5        D2        R2
   1                    0.69099  -0.64712  -0.16682   0.16628   0.14824
                          D1        A4        R4        A1        A3
   1                   -0.11541   0.06641  -0.06427   0.06098   0.02664
 QST in optimization variable space.
                        Tangent   TS vect  // Eig F  Eigenval
   1         R1         0.64712  -0.64712  -0.04459  -0.20755
   2         R2        -0.14824   0.14824  -0.00476  -0.01304
   3         R3        -0.69099   0.69099   0.00003   0.00551
   4         R4         0.06427  -0.06427   0.00454   0.01978
   5         R5         0.00440  -0.00440   0.00663   0.02719
   6         A1        -0.06098   0.06098   0.01056   0.08566
   7         A2         0.00084  -0.00084  -0.00988   0.14044
   8         A3        -0.02664   0.02664  -0.00212   0.17831
   9         A4        -0.06641   0.06641  -0.00493   0.21320
  10         A5         0.16682  -0.16682  -0.00808   0.44073
  11         D1         0.11541  -0.11541   0.00461   0.54082
  12         D2        -0.16628   0.16628   0.00548   0.64574
 RFO step:  Lambda0=9.174948271D-03 Lambda=-1.50445930D-02.
 Linear search not attempted -- option 19 set.
 Maximum step size (   0.300) exceeded in Quadratic search.
    -- Step size scaled by   0.369
 Iteration  1 RMS(Cart)=  0.12421187 RMS(Int)=  0.00974943
 Iteration  2 RMS(Cart)=  0.00989979 RMS(Int)=  0.00006615
 Iteration  3 RMS(Cart)=  0.00006979 RMS(Int)=  0.00000000
 Iteration  4 RMS(Cart)=  0.00000000 RMS(Int)=  0.00000000
 Variable       Old X    -DE/DX   Delta X   Delta X   Delta X     New X
                                 (Linear)    (Quad)   (Total)
    R1        2.08639   0.02109   0.00000  -0.01186  -0.01186   2.07453
    R2        2.37583  -0.02626   0.00000  -0.01849  -0.01849   2.35734
    R3        2.56503  -0.03888   0.00000  -0.00700  -0.00700   2.55804
    R4        2.54586   0.01355   0.00000  -0.00020  -0.00020   2.54566
    R5        1.81766   0.00981   0.00000   0.00126   0.00126   1.81892
    A1        1.86234   0.01007   0.00000  -0.00530  -0.00530   1.85704
    A2        1.91181  -0.02213   0.00000  -0.06238  -0.06238   1.84943
    A3        1.88932  -0.01203   0.00000  -0.00955  -0.00955   1.87978
    A4        3.08846  -0.00115   0.00000   0.03523   0.03523   3.12369
    A5        3.27506   0.00484   0.00000  -0.18785  -0.18785   3.08721
    D1        1.66313   0.00069   0.00000  -0.17617  -0.17617   1.48697
    D2        1.43776   0.00829   0.00000   0.13377   0.13377   1.57153
         Item               Value     Threshold  Converged?
 Maximum Force            0.038879     0.000450     NO 
 RMS     Force            0.017691     0.000300     NO 
 Maximum Displacement     0.250370     0.001800     NO 
 RMS     Displacement     0.125932     0.001200     NO 
 Predicted change in Energy=-1.831719D-03
 GradGradGradGradGradGradGradGradGradGradGradGradGradGradGradGradGradGrad

                          Input orientation:                          
 ---------------------------------------------------------------------
 Center     Atomic      Atomic             Coordinates (Angstroms)
 Number     Number       Type             X           Y           Z
 ---------------------------------------------------------------------
      1          8           0       -0.693923   -0.003507   -0.053109
      2          1           0       -1.005657    0.008590   -1.105641
      3          8           0       -0.643380   -1.203059    0.285503
      4          8           0       -1.436542    0.002189   -2.388871
      5          8           0       -2.781368   -0.047021   -2.327897
      6          1           0       -3.106829    0.858616   -2.308732
 ---------------------------------------------------------------------
                    Distance matrix (angstroms):
                    1          2          3          4          5
     1  O    0.000000
     2  H    1.097792   0.000000
     3  O    1.247453   1.880059   0.000000
     4  O    2.450979   1.353655   3.038751   0.000000
     5  O    3.087714   2.156421   3.568933   1.347107   0.000000
     6  H    3.413680   2.566105   4.129061   1.878763   0.962533
                    6
     6  H    0.000000
 Stoichiometry    H2O4
 Framework group  C1[X(H2O4)]
 Deg. of freedom    12
 Full point group                 C1      NOp   1
 Largest Abelian subgroup         C1      NOp   1
 Largest concise Abelian subgroup C1      NOp   1
                         Standard orientation:                         
 ---------------------------------------------------------------------
 Center     Atomic      Atomic             Coordinates (Angstroms)
 Number     Number       Type             X           Y           Z
 ---------------------------------------------------------------------
      1          8           0        1.218054    0.335490    0.478150
      2          1           0        0.200380    0.458808    0.085365
      3          8           0        1.813557   -0.418840   -0.317149
      4          8           0       -1.062654    0.558879   -0.391198
      5          8           0       -1.729747   -0.502703    0.101476
      6          1           0       -2.114061   -0.241427    0.944393
 ---------------------------------------------------------------------
 Rotational constants (GHZ):     22.3108827      3.2497874      3.1449054
 Standard basis: 6-31+G(d,p) (6D, 7F)
 There are    86 symmetry adapted basis functions of A   symmetry.
 Integral buffers will be    262144 words long.
 Raffenetti 2 integral format.
 Two-electron integral symmetry is turned on.
    86 basis functions,   142 primitive gaussians,    86 cartesian basis functions
    17 alpha electrons       17 beta electrons
       nuclear repulsion energy       118.0326856016 Hartrees.
 NAtoms=    6 NActive=    6 NUniq=    6 SFac= 7.50D-01 NAtFMM=   80 NAOKFM=F Big=F
 One-electron integrals computed using PRISM.
 NBasis=    86 RedAO= T  NBF=    86
 NBsUse=    86 1.00D-06 NBFU=    86
 Initial guess read from the read-write file.
 B after Tr=     0.000000    0.000000    0.000000
         Rot=    1.000000    0.000000    0.000000    0.000000 Ang=   0.00 deg.
 Initial guess orbital symmetries:
       Occupied  (A) (A) (A) (A) (A) (A) (A) (A) (A) (A) (A) (A)
                 (A) (A) (A) (A) (A)
       Virtual   (A) (A) (A) (A) (A) (A) (A) (A) (A) (A) (A) (A)
                 (A) (A) (A) (A) (A) (A) (A) (A) (A) (A) (A) (A)
                 (A) (A) (A) (A) (A) (A) (A) (A) (A) (A) (A) (A)
                 (A) (A) (A) (A) (A) (A) (A) (A) (A) (A) (A) (A)
                 (A) (A) (A) (A) (A) (A) (A) (A) (A) (A) (A) (A)
                 (A) (A) (A) (A) (A) (A) (A) (A) (A)
 Harris functional with IExCor= 1009 diagonalized for initial guess.
 ExpMin= 8.45D-02 ExpMax= 5.48D+03 ExpMxC= 8.25D+02 IAcc=2 IRadAn=         0 AccDes= 0.00D+00
 HarFok:  IExCor= 1009 AccDes= 0.00D+00 IRadAn=         0 IDoV= 1
 ScaDFX=  1.000000  1.000000  1.000000  1.000000
 FoFCou: FMM=F IPFlag=           0 FMFlag=      100000 FMFlg1=           0
         NFxFlg=           0 DoJE=T BraDBF=F KetDBF=T FulRan=T
         Omega=  0.000000  0.000000  1.000000  0.000000  0.000000 ICntrl=     500 IOpCl=  0
         NMat0=    1 NMatS0=    1 NMatT0=    0 NMatD0=    1 NMtDS0=    0 NMtDT0=    0
         I1Cent=           4 NGrid=           0.
 Petite list used in FoFCou.
 Requested convergence on RMS density matrix=1.00D-08 within 128 cycles.
 Requested convergence on MAX density matrix=1.00D-06.
 Requested convergence on             energy=1.00D-06.
 No special actions if energy rises.
 Keep R1 ints in memory in canonical form, NReq=7992901.
 Integral accuracy reduced to 1.0D-05 until final iterations.
 Initial convergence to 1.0D-05 achieved.  Increase integral accuracy.
 SCF Done:  E(RM062X) =  -301.627512201     A.U. after   32 cycles
             Convg  =    0.3150D-08             -V/T =  2.0080
 Calling FoFJK, ICntrl=      2127 FMM=F ISym2X=0 I1Cent= 0 IOpClX= 0 NMat=1 NMatS=1 NMatT=0.
 ***** Axes restored to original set *****
 -------------------------------------------------------------------
 Center     Atomic                   Forces (Hartrees/Bohr)
 Number     Number              X              Y              Z
 -------------------------------------------------------------------
      1        8           0.009804709   -0.021776213    0.023466472
      2        1          -0.034465209    0.005548850   -0.057006165
      3        8           0.001367577    0.014692166    0.000644289
      4        8           0.037529603    0.006242371    0.023323962
      5        8          -0.016531634   -0.015140561    0.012623490
      6        1           0.002294953    0.010433386   -0.003052048
 -------------------------------------------------------------------
 Cartesian Forces:  Max     0.057006165 RMS     0.021838125

 GradGradGradGradGradGradGradGradGradGradGradGradGradGradGradGradGradGrad
 Berny optimization.
 Internal  Forces:  Max     0.038600041 RMS     0.016948388
 Search for a saddle point.
 Step number   4 out of a maximum of  100
 All quantities printed in internal units (Hartrees-Bohrs-Radians)
 Update second derivatives using D2CorX and points    1    2    3    4
 The second derivative matrix:
                          R1        R2        R3        R4        R5
           R1           0.03682
           R2           0.16382   0.39612
           R3           0.16742  -0.10958   0.00821
           R4          -0.05375   0.02293   0.06886   0.62355
           R5           0.00726  -0.00892  -0.00545   0.01292   0.54256
           A1           0.04741   0.04959  -0.01691   0.03267  -0.00032
           A2          -0.02318   0.00001   0.02404   0.05517   0.00053
           A3          -0.00007  -0.00122   0.00902   0.07337  -0.00333
           A4           0.00285   0.00027   0.00104   0.00084   0.00078
           A5           0.01049   0.01462  -0.01086  -0.01216   0.00070
           D1           0.01423  -0.00915   0.00900   0.03119  -0.00100
           D2           0.01833  -0.01800   0.00572   0.04939  -0.00027
                          A1        A2        A3        A4        A5
           A1           0.10117
           A2           0.01472   0.14333
           A3           0.00521   0.00215   0.22429
           A4          -0.01814   0.00485  -0.00094   0.03222
           A5          -0.00113  -0.02374   0.00217   0.00352   0.01018
           D1           0.00176  -0.00547   0.00266  -0.00239  -0.00225
           D2           0.01288   0.01705   0.01350   0.00002  -0.00475
                          D1        D2
           D1           0.00667
           D2          -0.00131   0.02370
 LST/QST climbing along tangent vector
     Eigenvalues ---   -0.20036  -0.00097   0.00556   0.01362   0.02834
     Eigenvalues ---    0.09369   0.13994   0.18635   0.21322   0.46851
     Eigenvalues ---    0.54200   0.65890
 Eigenvectors required to have negative eigenvalues:
                          R3        R1        R2        D1        A2
   1                    0.71655  -0.64325   0.18625   0.11389   0.08384
                          A5        A1        R4        A3        A4
   1                    0.07388   0.07349  -0.06959   0.04192   0.02433
 QST in optimization variable space.
                        Tangent   TS vect  // Eig F  Eigenval
   1         R1         0.64325  -0.64325  -0.04914  -0.20036
   2         R2        -0.18625   0.18625   0.00375  -0.00097
   3         R3        -0.71655   0.71655   0.00020   0.00556
   4         R4         0.06959  -0.06959   0.00175   0.01362
   5         R5         0.00650  -0.00650   0.00336   0.02834
   6         A1        -0.07349   0.07349   0.01050   0.09369
   7         A2        -0.08384   0.08384  -0.00786   0.13994
   8         A3        -0.04192   0.04192  -0.00056   0.18635
   9         A4        -0.02433   0.02433  -0.00395   0.21322
  10         A5        -0.07388   0.07388  -0.00108   0.46851
  11         D1        -0.11389   0.11389   0.00405   0.54200
  12         D2         0.00099  -0.00099   0.00492   0.65890
 RFO step:  Lambda0=1.140426276D-02 Lambda=-5.36838764D-03.
 Linear search not attempted -- option 19 set.
 Maximum step size (   0.300) exceeded in Quadratic search.
    -- Step size scaled by   0.372
 Iteration  1 RMS(Cart)=  0.14891507 RMS(Int)=  0.01256645
 Iteration  2 RMS(Cart)=  0.01634826 RMS(Int)=  0.00025278
 Iteration  3 RMS(Cart)=  0.00033461 RMS(Int)=  0.00000007
 Iteration  4 RMS(Cart)=  0.00000009 RMS(Int)=  0.00000000
 Variable       Old X    -DE/DX   Delta X   Delta X   Delta X     New X
                                 (Linear)    (Quad)   (Total)
    R1        2.07453   0.02643   0.00000  -0.04957  -0.04957   2.02496
    R2        2.35734  -0.01396   0.00000  -0.00051  -0.00051   2.35684
    R3        2.55804  -0.03860   0.00000   0.01607   0.01607   2.57410
    R4        2.54566   0.01482   0.00000  -0.00974  -0.00974   2.53593
    R5        1.81892   0.00897   0.00000   0.00171   0.00171   1.82064
    A1        1.85704   0.01195   0.00000   0.02529   0.02529   1.88233
    A2        1.84943  -0.02107   0.00000   0.02556   0.02556   1.87499
    A3        1.87978  -0.01056   0.00000  -0.00777  -0.00777   1.87201
    A4        3.12369  -0.00181   0.00000   0.00571   0.00571   3.12940
    A5        3.08721   0.00572   0.00000   0.18582   0.18582   3.27303
    D1        1.48697   0.00147   0.00000   0.21875   0.21875   1.70572
    D2        1.57153   0.00519   0.00000   0.05848   0.05848   1.63001
         Item               Value     Threshold  Converged?
 Maximum Force            0.038600     0.000450     NO 
 RMS     Force            0.016948     0.000300     NO 
 Maximum Displacement     0.332181     0.001800     NO 
 RMS     Displacement     0.152791     0.001200     NO 
 Predicted change in Energy= 2.247219D-04
 GradGradGradGradGradGradGradGradGradGradGradGradGradGradGradGradGradGrad

                          Input orientation:                          
 ---------------------------------------------------------------------
 Center     Atomic      Atomic             Coordinates (Angstroms)
 Number     Number       Type             X           Y           Z
 ---------------------------------------------------------------------
      1          8           0       -0.711824   -0.026632   -0.029476
      2          1           0       -1.098537   -0.030250   -1.028817
      3          8           0       -0.467597   -1.207153    0.290201
      4          8           0       -1.481027   -0.034702   -2.336163
      5          8           0       -2.822385   -0.004721   -2.362618
      6          1           0       -3.086329    0.919266   -2.431874
 ---------------------------------------------------------------------
                    Distance matrix (angstroms):
                    1          2          3          4          5
     1  O    0.000000
     2  H    1.071561   0.000000
     3  O    1.247185   1.876964   0.000000
     4  O    2.431573   1.362158   3.049503   0.000000
     5  O    3.146188   2.179754   3.745439   1.341954   0.000000
     6  H    3.507779   2.611794   4.334640   1.869816   0.963439
                    6
     6  H    0.000000
 Stoichiometry    H2O4
 Framework group  C1[X(H2O4)]
 Deg. of freedom    12
 Full point group                 C1      NOp   1
 Largest Abelian subgroup         C1      NOp   1
 Largest concise Abelian subgroup C1      NOp   1
                         Standard orientation:                         
 ---------------------------------------------------------------------
 Center     Atomic      Atomic             Coordinates (Angstroms)
 Number     Number       Type             X           Y           Z
 ---------------------------------------------------------------------
      1          8           0        1.210912    0.261951    0.514354
      2          1           0        0.210094    0.329865    0.137534
      3          8           0        1.897155   -0.346484   -0.330836
      4          8           0       -1.028778    0.510079   -0.399302
      5          8           0       -1.823013   -0.454693    0.089828
      6          1           0       -2.260303   -0.096691    0.870103
 ---------------------------------------------------------------------
 Rotational constants (GHZ):     25.2606798      3.0505742      3.0285673
 Standard basis: 6-31+G(d,p) (6D, 7F)
 There are    86 symmetry adapted basis functions of A   symmetry.
 Integral buffers will be    262144 words long.
 Raffenetti 2 integral format.
 Two-electron integral symmetry is turned on.
    86 basis functions,   142 primitive gaussians,    86 cartesian basis functions
    17 alpha electrons       17 beta electrons
       nuclear repulsion energy       117.5337046207 Hartrees.
 NAtoms=    6 NActive=    6 NUniq=    6 SFac= 7.50D-01 NAtFMM=   80 NAOKFM=F Big=F
 One-electron integrals computed using PRISM.
 NBasis=    86 RedAO= T  NBF=    86
 NBsUse=    86 1.00D-06 NBFU=    86
 Initial guess read from the read-write file.
 B after Tr=     0.000000    0.000000    0.000000
         Rot=    1.000000    0.000000    0.000000    0.000000 Ang=   0.00 deg.
 Initial guess orbital symmetries:
       Occupied  (A) (A) (A) (A) (A) (A) (A) (A) (A) (A) (A) (A)
                 (A) (A) (A) (A) (A)
       Virtual   (A) (A) (A) (A) (A) (A) (A) (A) (A) (A) (A) (A)
                 (A) (A) (A) (A) (A) (A) (A) (A) (A) (A) (A) (A)
                 (A) (A) (A) (A) (A) (A) (A) (A) (A) (A) (A) (A)
                 (A) (A) (A) (A) (A) (A) (A) (A) (A) (A) (A) (A)
                 (A) (A) (A) (A) (A) (A) (A) (A) (A) (A) (A) (A)
                 (A) (A) (A) (A) (A) (A) (A) (A) (A)
 Harris functional with IExCor= 1009 diagonalized for initial guess.
 ExpMin= 8.45D-02 ExpMax= 5.48D+03 ExpMxC= 8.25D+02 IAcc=2 IRadAn=         0 AccDes= 0.00D+00
 HarFok:  IExCor= 1009 AccDes= 0.00D+00 IRadAn=         0 IDoV= 1
 ScaDFX=  1.000000  1.000000  1.000000  1.000000
 FoFCou: FMM=F IPFlag=           0 FMFlag=      100000 FMFlg1=           0
         NFxFlg=           0 DoJE=T BraDBF=F KetDBF=T FulRan=T
         Omega=  0.000000  0.000000  1.000000  0.000000  0.000000 ICntrl=     500 IOpCl=  0
         NMat0=    1 NMatS0=    1 NMatT0=    0 NMatD0=    1 NMtDS0=    0 NMtDT0=    0
         I1Cent=           4 NGrid=           0.
 Petite list used in FoFCou.
 Requested convergence on RMS density matrix=1.00D-08 within 128 cycles.
 Requested convergence on MAX density matrix=1.00D-06.
 Requested convergence on             energy=1.00D-06.
 No special actions if energy rises.
 Keep R1 ints in memory in canonical form, NReq=7992901.
 Integral accuracy reduced to 1.0D-05 until final iterations.
 Initial convergence to 1.0D-05 achieved.  Increase integral accuracy.
 SCF Done:  E(RM062X) =  -301.626676799     A.U. after   29 cycles
             Convg  =    0.1242D-08             -V/T =  2.0078
 Calling FoFJK, ICntrl=      2127 FMM=F ISym2X=0 I1Cent= 0 IOpClX= 0 NMat=1 NMatS=1 NMatT=0.
 ***** Axes restored to original set *****
 -------------------------------------------------------------------
 Center     Atomic                   Forces (Hartrees/Bohr)
 Number     Number              X              Y              Z
 -------------------------------------------------------------------
      1        8           0.016047773   -0.014930169    0.029799009
      2        1          -0.036036919    0.001463624   -0.058125098
      3        8          -0.000588452    0.011887587   -0.001027837
      4        8           0.038863379    0.004306734    0.020343222
      5        8          -0.020699596   -0.011495466    0.012542900
      6        1           0.002413815    0.008767690   -0.003532196
 -------------------------------------------------------------------
 Cartesian Forces:  Max     0.058125098 RMS     0.022293925

 GradGradGradGradGradGradGradGradGradGradGradGradGradGradGradGradGradGrad
 Berny optimization.
 Internal  Forces:  Max     0.033944416 RMS     0.016686975
 Search for a saddle point.
 Step number   5 out of a maximum of  100
 All quantities printed in internal units (Hartrees-Bohrs-Radians)
 Update second derivatives using D2CorX and points    1    2    3    4    5
 The second derivative matrix:
                          R1        R2        R3        R4        R5
           R1           0.11913
           R2           0.14485   0.37814
           R3           0.14120  -0.09692   0.01937
           R4          -0.01673   0.02924   0.06203   0.64251
           R5           0.00345  -0.00853  -0.00427   0.01103   0.54273
           A1           0.02467   0.04204  -0.00132   0.03781   0.00024
           A2          -0.01608  -0.00662   0.02343   0.06297   0.00011
           A3           0.01046  -0.00470   0.00619   0.07940  -0.00384
           A4          -0.00540   0.00315   0.00321  -0.00576   0.00115
           A5          -0.00779   0.02426  -0.00683  -0.02808   0.00159
           D1          -0.00108   0.00491   0.01197   0.01523  -0.00020
           D2          -0.01236   0.00430   0.01213   0.02073   0.00129
                          A1        A2        A3        A4        A5
           A1           0.10377
           A2           0.01040   0.14267
           A3           0.00197   0.00280   0.22559
           A4          -0.01613   0.00466  -0.00190   0.03241
           A5           0.00565  -0.02352   0.00018   0.00400   0.01077
           D1           0.01168  -0.00367   0.00139  -0.00273  -0.00397
           D2           0.02871   0.01900   0.01057   0.00016  -0.00570
                          D1        D2
           D1           0.00183
           D2          -0.00751   0.01676
     Eigenvalues ---   -0.14431  -0.00703   0.00579   0.01259   0.03110
     Eigenvalues ---    0.10424   0.14137   0.20067   0.21744   0.45240
     Eigenvalues ---    0.54283   0.67858
 Eigenvectors required to have negative eigenvalues:
                          R3        R1        R2        D2        D1
   1                    0.73053  -0.58047   0.30256  -0.10483  -0.07932
                          R4        A5        A2        A1        A4
   1                   -0.07931  -0.07590  -0.06931   0.04056  -0.03264
 QST in optimization variable space.
                        Tangent   TS vect  // Eig F  Eigenval
   1         R1         0.58563  -0.58047  -0.04787  -0.14431
   2         R2        -0.20658   0.30256  -0.00266  -0.00703
   3         R3        -0.71694   0.73053  -0.00031   0.00579
   4         R4         0.06229  -0.07931   0.00411   0.01259
   5         R5         0.00976   0.01305  -0.00032   0.03110
   6         A1        -0.04325   0.04056   0.01243   0.10424
   7         A2        -0.05427  -0.06931  -0.02475   0.14137
   8         A3        -0.05798   0.02866   0.00385   0.20067
   9         A4        -0.01831  -0.03264  -0.00458   0.21744
  10         A5         0.19733  -0.07590   0.00664   0.45240
  11         D1         0.20256  -0.07932   0.00776   0.54283
  12         D2         0.08890  -0.10483   0.01089   0.67858
 RFO step:  Lambda0=1.443499472D-02 Lambda=-9.54423136D-03.
 Linear search not attempted -- option 19 set.
 Maximum step size (   0.300) exceeded in Quadratic search.
    -- Step size scaled by   0.351
 Iteration  1 RMS(Cart)=  0.15506167 RMS(Int)=  0.01470991
 Iteration  2 RMS(Cart)=  0.02077899 RMS(Int)=  0.00023893
 Iteration  3 RMS(Cart)=  0.00031371 RMS(Int)=  0.00000005
 Iteration  4 RMS(Cart)=  0.00000008 RMS(Int)=  0.00000000
 Variable       Old X    -DE/DX   Delta X   Delta X   Delta X     New X
                                 (Linear)    (Quad)   (Total)
    R1        2.02496   0.03228   0.00000  -0.03689  -0.03689   1.98807
    R2        2.35684  -0.01151   0.00000   0.01771   0.01771   2.37455
    R3        2.57410  -0.03394   0.00000   0.04773   0.04773   2.62183
    R4        2.53593   0.01800   0.00000   0.01100   0.01100   2.54693
    R5        1.82064   0.00801   0.00000   0.00620   0.00620   1.82683
    A1        1.88233   0.00552   0.00000   0.07784   0.07784   1.96017
    A2        1.87499  -0.02148   0.00000  -0.08201  -0.08201   1.79298
    A3        1.87201  -0.00868   0.00000  -0.00940  -0.00940   1.86262
    A4        3.12940  -0.00225   0.00000   0.00536   0.00536   3.13476
    A5        3.27303   0.00481   0.00000  -0.11475  -0.11475   3.15828
    D1        1.70572   0.00197   0.00000  -0.22420  -0.22420   1.48152
    D2        1.63001   0.00518   0.00000  -0.09775  -0.09775   1.53227
         Item               Value     Threshold  Converged?
 Maximum Force            0.033944     0.000450     NO 
 RMS     Force            0.016687     0.000300     NO 
 Maximum Displacement     0.323156     0.001800     NO 
 RMS     Displacement     0.169688     0.001200     NO 
 Predicted change in Energy= 1.323956D-03
 GradGradGradGradGradGradGradGradGradGradGradGradGradGradGradGradGradGrad

                          Input orientation:                          
 ---------------------------------------------------------------------
 Center     Atomic      Atomic             Coordinates (Angstroms)
 Number     Number       Type             X           Y           Z
 ---------------------------------------------------------------------
      1          8           0       -0.716347   -0.020991   -0.102447
      2          1           0       -1.030327   -0.000982   -1.106342
      3          8           0       -0.624601   -1.191438    0.345403
      4          8           0       -1.431294    0.015461   -2.434451
      5          8           0       -2.774255   -0.048101   -2.340042
      6          1           0       -3.090876    0.861860   -2.260867
 ---------------------------------------------------------------------
                    Distance matrix (angstroms):
                    1          2          3          4          5
     1  O    0.000000
     2  H    1.052040   0.000000
     3  O    1.256556   1.920770   0.000000
     4  O    2.439410   1.387415   3.136071   0.000000
     5  O    3.040157   2.136709   3.624893   1.347776   0.000000
     6  H    3.328151   2.514615   4.134149   1.871025   0.966719
                    6
     6  H    0.000000
 Stoichiometry    H2O4
 Framework group  C1[X(H2O4)]
 Deg. of freedom    12
 Full point group                 C1      NOp   1
 Largest Abelian subgroup         C1      NOp   1
 Largest concise Abelian subgroup C1      NOp   1
                         Standard orientation:                         
 ---------------------------------------------------------------------
 Center     Atomic      Atomic             Coordinates (Angstroms)
 Number     Number       Type             X           Y           Z
 ---------------------------------------------------------------------
      1          8           0        1.174949    0.276340    0.487410
      2          1           0        0.190629    0.417486    0.143930
      3          8           0        1.880586   -0.359640   -0.335109
      4          8           0       -1.101419    0.611157   -0.323001
      5          8           0       -1.721208   -0.530542    0.036003
      6          1           0       -2.053893   -0.396000    0.933647
 ---------------------------------------------------------------------
 Rotational constants (GHZ):     22.7272190      3.2020233      3.0850072
 Standard basis: 6-31+G(d,p) (6D, 7F)
 There are    86 symmetry adapted basis functions of A   symmetry.
 Integral buffers will be    262144 words long.
 Raffenetti 2 integral format.
 Two-electron integral symmetry is turned on.
    86 basis functions,   142 primitive gaussians,    86 cartesian basis functions
    17 alpha electrons       17 beta electrons
       nuclear repulsion energy       117.6553844287 Hartrees.
 NAtoms=    6 NActive=    6 NUniq=    6 SFac= 7.50D-01 NAtFMM=   80 NAOKFM=F Big=F
 One-electron integrals computed using PRISM.
 NBasis=    86 RedAO= T  NBF=    86
 NBsUse=    86 1.00D-06 NBFU=    86
 Initial guess read from the read-write file.
 B after Tr=     0.000000    0.000000    0.000000
         Rot=    1.000000    0.000000    0.000000    0.000000 Ang=   0.00 deg.
 Initial guess orbital symmetries:
       Occupied  (A) (A) (A) (A) (A) (A) (A) (A) (A) (A) (A) (A)
                 (A) (A) (A) (A) (A)
       Virtual   (A) (A) (A) (A) (A) (A) (A) (A) (A) (A) (A) (A)
                 (A) (A) (A) (A) (A) (A) (A) (A) (A) (A) (A) (A)
                 (A) (A) (A) (A) (A) (A) (A) (A) (A) (A) (A) (A)
                 (A) (A) (A) (A) (A) (A) (A) (A) (A) (A) (A) (A)
                 (A) (A) (A) (A) (A) (A) (A) (A) (A) (A) (A) (A)
                 (A) (A) (A) (A) (A) (A) (A) (A) (A)
 Harris functional with IExCor= 1009 diagonalized for initial guess.
 ExpMin= 8.45D-02 ExpMax= 5.48D+03 ExpMxC= 8.25D+02 IAcc=2 IRadAn=         0 AccDes= 0.00D+00
 HarFok:  IExCor= 1009 AccDes= 0.00D+00 IRadAn=         0 IDoV= 1
 ScaDFX=  1.000000  1.000000  1.000000  1.000000
 FoFCou: FMM=F IPFlag=           0 FMFlag=      100000 FMFlg1=           0
         NFxFlg=           0 DoJE=T BraDBF=F KetDBF=T FulRan=T
         Omega=  0.000000  0.000000  1.000000  0.000000  0.000000 ICntrl=     500 IOpCl=  0
         NMat0=    1 NMatS0=    1 NMatT0=    0 NMatD0=    1 NMtDS0=    0 NMtDT0=    0
         I1Cent=           4 NGrid=           0.
 Petite list used in FoFCou.
 Requested convergence on RMS density matrix=1.00D-08 within 128 cycles.
 Requested convergence on MAX density matrix=1.00D-06.
 Requested convergence on             energy=1.00D-06.
 No special actions if energy rises.
 Keep R1 ints in memory in canonical form, NReq=7992901.
 Integral accuracy reduced to 1.0D-05 until final iterations.
 Initial convergence to 1.0D-05 achieved.  Increase integral accuracy.
 SCF Done:  E(RM062X) =  -301.623956239     A.U. after   28 cycles
             Convg  =    0.9804D-08             -V/T =  2.0080
 Calling FoFJK, ICntrl=      2127 FMM=F ISym2X=0 I1Cent= 0 IOpClX= 0 NMat=1 NMatS=1 NMatT=0.
 ***** Axes restored to original set *****
 -------------------------------------------------------------------
 Center     Atomic                   Forces (Hartrees/Bohr)
 Number     Number              X              Y              Z
 -------------------------------------------------------------------
      1        8           0.016470509   -0.018488841    0.043556247
      2        1          -0.032714234   -0.002890364   -0.061722888
      3        8          -0.001888045    0.020042229   -0.010276468
      4        8           0.029237762    0.004486798    0.020540194
      5        8          -0.012294262   -0.009346894    0.010646191
      6        1           0.001188271    0.006197073   -0.002743276
 -------------------------------------------------------------------
 Cartesian Forces:  Max     0.061722888 RMS     0.023100609

 GradGradGradGradGradGradGradGradGradGradGradGradGradGradGradGradGradGrad
 Berny optimization.
 Internal  Forces:  Max     0.036073632 RMS     0.016884440
 Search for a saddle point.
 Step number   6 out of a maximum of  100
 All quantities printed in internal units (Hartrees-Bohrs-Radians)
 Update second derivatives using D2CorX and points    1    2    3    4    5
                                                      6
 The second derivative matrix:
                          R1        R2        R3        R4        R5
           R1           0.18122
           R2           0.07684   0.38398
           R3           0.10194  -0.06066   0.05017
           R4          -0.01994   0.01570   0.07253   0.65200
           R5           0.00307  -0.00434  -0.00431   0.01083   0.54256
           A1          -0.02362   0.07169   0.02906   0.03742   0.00149
           A2          -0.02396  -0.03395   0.02715   0.05924   0.00212
           A3           0.00897  -0.01453   0.00692   0.07801  -0.00328
           A4          -0.00612   0.00843   0.00276  -0.00691   0.00101
           A5           0.00164   0.03446  -0.01338  -0.02910   0.00042
           D1           0.01066  -0.01953   0.00543   0.01623   0.00040
           D2           0.00578  -0.00743   0.00167   0.02461   0.00113
                          A1        A2        A3        A4        A5
           A1           0.13396
           A2           0.00587   0.12392
           A3          -0.00046  -0.00277   0.22384
           A4          -0.01438   0.00682  -0.00135   0.03244
           A5           0.00336  -0.01309   0.00313   0.00278   0.00497
           D1           0.00048  -0.01251  -0.00070  -0.00217   0.00210
           D2           0.02021   0.01760   0.01115   0.00023  -0.00245
                          D1        D2
           D1           0.00052
           D2          -0.00556   0.01761
     Eigenvalues ---   -0.05348  -0.00663   0.00204   0.01491   0.03071
     Eigenvalues ---    0.10942   0.13998   0.20860   0.23840   0.43337
     Eigenvalues ---    0.54214   0.68773
 Eigenvectors required to have negative eigenvalues:
                          R3        R1        A1        R2        D2
   1                    0.75407  -0.46521  -0.27615   0.23848   0.18401
                          A4        D1        A2        R4        A3
   1                   -0.12328   0.12168  -0.09913  -0.08611   0.02391
 QST in optimization variable space.
                        Tangent   TS vect  // Eig F  Eigenval
   1         R1         0.56048  -0.46521  -0.04311  -0.05348
   2         R2        -0.23710   0.23848   0.00081  -0.00663
   3         R3        -0.71201   0.75407   0.00861   0.00204
   4         R4         0.10380  -0.08611   0.01707   0.01491
   5         R5         0.02511   0.01210  -0.00579   0.03071
   6         A1         0.09697  -0.27615  -0.01315   0.10942
   7         A2        -0.23367  -0.09913  -0.02282   0.13998
   8         A3        -0.09496   0.02391  -0.00835   0.20860
   9         A4        -0.01352  -0.12328   0.01701   0.23840
  10         A5         0.03301   0.00375  -0.00783   0.43337
  11         D1        -0.17656   0.12168   0.00587   0.54214
  12         D2        -0.07620   0.18401   0.00380   0.68773
 RFO step:  Lambda0=2.398942571D-02 Lambda=-1.90739280D-02.
 Linear search not attempted -- option 19 set.
 Maximum step size (   0.300) exceeded in Quadratic search.
    -- Step size scaled by   0.259
 Iteration  1 RMS(Cart)=  0.12158016 RMS(Int)=  0.01638610
 Iteration  2 RMS(Cart)=  0.01335821 RMS(Int)=  0.00011738
 Iteration  3 RMS(Cart)=  0.00016761 RMS(Int)=  0.00000002
 Iteration  4 RMS(Cart)=  0.00000002 RMS(Int)=  0.00000000
 Variable       Old X    -DE/DX   Delta X   Delta X   Delta X     New X
                                 (Linear)    (Quad)   (Total)
    R1        1.98807   0.03607   0.00000  -0.03274  -0.03274   1.95533
    R2        2.37455  -0.02242   0.00000   0.02894   0.02894   2.40349
    R3        2.62183  -0.03242   0.00000   0.04538   0.04538   2.66721
    R4        2.54693   0.01171   0.00000  -0.00772  -0.00772   2.53921
    R5        1.82683   0.00520   0.00000   0.00329   0.00329   1.83012
    A1        1.96017  -0.00583   0.00000  -0.07244  -0.07244   1.88773
    A2        1.79298  -0.01667   0.00000  -0.03969  -0.03969   1.75328
    A3        1.86262  -0.00605   0.00000  -0.00961  -0.00961   1.85300
    A4        3.13476  -0.00134   0.00000  -0.03671  -0.03671   3.09805
    A5        3.15828   0.00470   0.00000  -0.02853  -0.02853   3.12975
    D1        1.48152   0.00103   0.00000   0.20890   0.20890   1.69042
    D2        1.53227   0.00534   0.00000   0.18233   0.18233   1.71459
         Item               Value     Threshold  Converged?
[...]
   XX=             -1.5452   YY=             -1.0475   ZZ=              2.5927
   XY=              0.8049   XZ=             -4.6959   YZ=             -0.5145
 Octapole moment (field-independent basis, Debye-Ang**2):
  XXX=            -11.3030  YYY=             -1.4220  ZZZ=              0.3758  XYY=              0.6324
  XXY=             -3.4527  XXZ=              7.7783  XZZ=             -3.3640  YZZ=             -1.5552
  YYZ=              0.5611  XYZ=              2.1887
 Hexadecapole moment (field-independent basis, Debye-Ang**3):
 XXXX=           -296.0580 YYYY=            -43.9986 ZZZZ=            -18.6846 XXXY=              3.4796
 XXXZ=            -20.1106 YYYX=              0.7166 YYYZ=             -0.3050 ZZZX=             -5.9652
 ZZZY=             -0.8054 XXYY=            -55.2925 XXZZ=            -47.9663 YYZZ=            -10.8850
 XXYZ=             -2.9497 YYXZ=             -1.3538 ZZXY=              1.3442
 N-N= 1.236495480045D+02 E-N=-9.589048408610D+02  KE= 2.992522029772D+02
  Exact polarizability:  75.613  -2.445  20.296  -0.413  -0.142  16.914
 Approx polarizability: 134.304 -11.479  26.998   2.811  -0.162  18.964
 Calling FoFJK, ICntrl=    100127 FMM=F ISym2X=0 I1Cent= 0 IOpClX= 0 NMat=1 NMatS=1 NMatT=0.
 Full mass-weighted force constant matrix:
 Low frequencies --- -986.0016   -0.0014    0.0003    0.0005   22.0748   31.1523
 Low frequencies ---  101.1748  143.2842  172.5925
 ******    1 imaginary frequencies (negative Signs) ****** 
 Diagonal vibrational polarizability:
       27.9163362      17.7748272       2.9595015
 Harmonic frequencies (cm**-1), IR intensities (KM/Mole), Raman scattering
 activities (A**4/AMU), depolarization ratios for plane and unpolarized
 incident light, reduced masses (AMU), force constants (mDyne/A),
 and normal coordinates:
                     1                      2                      3
                     A                      A                      A
 Frequencies --  -985.9998               142.6846               172.4814
 Red. masses --     1.1316                10.3542                 6.4227
 Frc consts  --     0.6482                 0.1242                 0.1126
 IR Inten    --   204.9255                 1.0841                13.1412
  Atom  AN      X      Y      Z        X      Y      Z        X      Y      Z
     1   8    -0.07   0.04  -0.01     0.23  -0.26  -0.19     0.06  -0.08   0.33
     2   1     0.63  -0.58  -0.51     0.15  -0.27  -0.15    -0.13  -0.45   0.31
     3   8     0.01   0.01   0.01    -0.12   0.31   0.14     0.04   0.10  -0.31
     4   8     0.00  -0.02   0.03     0.22  -0.32  -0.03     0.02  -0.05   0.23
     5   8     0.02   0.01   0.00    -0.33   0.26   0.08    -0.09   0.07  -0.25
     6   1    -0.01  -0.02  -0.01    -0.29   0.40   0.11    -0.44  -0.05  -0.36
                     4                      5                      6
                     A                      A                      A
 Frequencies --   304.5633               518.7504               616.1883
 Red. masses --     9.1792                 1.1517                 8.8817
 Frc consts  --     0.5017                 0.1826                 1.9869
 IR Inten    --     2.0933               139.5209                 4.7113
  Atom  AN      X      Y      Z        X      Y      Z        X      Y      Z
     1   8     0.25   0.14  -0.03     0.02  -0.03   0.03    -0.22   0.43   0.08
     2   1     0.42   0.10  -0.08     0.02  -0.08   0.01    -0.32   0.53   0.05
     3   8     0.44  -0.14   0.03     0.01   0.01   0.00     0.08  -0.13  -0.03
     4   8    -0.35  -0.02  -0.03    -0.02   0.02  -0.03     0.31  -0.36  -0.04
     5   8    -0.34   0.00   0.03    -0.05   0.05   0.00    -0.17   0.04  -0.01
     6   1    -0.47   0.19   0.03     0.68  -0.72   0.07     0.21  -0.21   0.04
                     7                      8                      9
                     A                      A                      A
 Frequencies --  1076.8796              1368.3180              1429.7752
 Red. masses --    11.3497                 3.5284                 1.2909
 Frc consts  --     7.7547                 3.8923                 1.5548
 IR Inten    --   380.3841               211.0022               115.3254
  Atom  AN      X      Y      Z        X      Y      Z        X      Y      Z
     1   8     0.11   0.05  -0.01     0.24   0.18  -0.01     0.06   0.03   0.01
     2   1     0.02  -0.46  -0.24    -0.34  -0.63  -0.05     0.14   0.05  -0.01
     3   8    -0.08  -0.05   0.01    -0.22  -0.14   0.00    -0.07  -0.03  -0.01
     4   8     0.39   0.42   0.04    -0.03  -0.03  -0.01    -0.04  -0.04   0.04
     5   8    -0.42  -0.40  -0.03     0.05   0.06   0.03     0.00  -0.01  -0.06
     6   1     0.13   0.07   0.15    -0.39  -0.38  -0.14     0.70   0.66   0.20
                    10                     11                     12
                     A                      A                      A
 Frequencies --  1492.8403              3131.2189              3769.4206
 Red. masses --     1.2301                 1.0650                 1.0681
 Frc consts  --     1.6151                 6.1521                 8.9418
 IR Inten    --    72.9697               100.7078               120.4877
  Atom  AN      X      Y      Z        X      Y      Z        X      Y      Z
     1   8     0.05  -0.01   0.05    -0.02   0.02  -0.05     0.00   0.00   0.00
     2   1     0.71   0.64  -0.03     0.37  -0.29   0.88     0.01   0.00   0.01
     3   8    -0.08  -0.03  -0.04     0.00   0.00   0.00     0.00   0.00   0.00
     4   8     0.01   0.00  -0.02     0.01   0.00  -0.01     0.00   0.00   0.00
     5   8    -0.01   0.00   0.02     0.00   0.00   0.00    -0.01  -0.01   0.06
     6   1    -0.18  -0.18  -0.05     0.00  -0.01   0.01     0.23   0.13  -0.96

 -------------------
 - Thermochemistry -
 -------------------
 Temperature   298.150 Kelvin.  Pressure   1.00000 Atm.
 Atom     1 has atomic number  8 and mass  15.99491
 Atom     2 has atomic number  1 and mass   1.00783
 Atom     3 has atomic number  8 and mass  15.99491
 Atom     4 has atomic number  8 and mass  15.99491
 Atom     5 has atomic number  8 and mass  15.99491
 Atom     6 has atomic number  1 and mass   1.00783
 Molecular mass:    65.99531 amu.
 Principal axes and moments of inertia in atomic units:
                           1         2         3
     Eigenvalues --    48.84307 487.34572 524.62186
           X            0.99987   0.00618  -0.01518
           Y           -0.00662   0.99956  -0.02908
           Z            0.01499   0.02918   0.99946
 This molecule is an asymmetric top.
 Rotational symmetry number  1.
 Rotational temperatures (Kelvin)      1.77331     0.17773     0.16510
 Rotational constants (GHZ):          36.94979     3.70321     3.44008
    1 imaginary frequencies ignored.
 Zero-point vibrational energy      83876.9 (Joules/Mol)
                                   20.04706 (Kcal/Mol)
 Warning -- explicit consideration of   5 degrees of freedom as
           vibrations may cause significant error
 Vibrational temperatures:    205.29   248.16   438.20   746.37   886.56
          (Kelvin)           1549.39  1968.70  2057.13  2147.86  4505.12
                             5423.35
 
 Zero-point correction=                           0.031947 (Hartree/Particle)
 Thermal correction to Energy=                    0.036865
 Thermal correction to Enthalpy=                  0.037809
 Thermal correction to Gibbs Free Energy=         0.004436
 Sum of electronic and zero-point Energies=           -301.597917
 Sum of electronic and thermal Energies=              -301.592999
 Sum of electronic and thermal Enthalpies=            -301.592055
 Sum of electronic and thermal Free Energies=         -301.625427
 
                     E (Thermal)             CV                S
                      KCal/Mol        Cal/Mol-Kelvin    Cal/Mol-Kelvin
 Total                   23.133             14.210             70.238
 Electronic               0.000              0.000              0.000
 Translational            0.889              2.981             38.479
 Rotational               0.889              2.981             24.039
 Vibrational             21.355              8.249              7.720
 Vibration     1          0.616              1.911              2.768
 Vibration     2          0.626              1.876              2.408
 Vibration     3          0.695              1.665              1.392
 Vibration     4          0.874              1.208              0.613
 Vibration     5          0.976              0.998              0.423
                       Q            Log10(Q)             Ln(Q)
 Total Bot       0.910691D-02         -2.040629         -4.698722
 Total V=0       0.450763D+13         12.653948         29.136793
 Vib (Bot)       0.108033D-13        -13.966444        -32.158925
 Vib (Bot)    1  0.142403D+01          0.153519          0.353491
 Vib (Bot)    2  0.116744D+01          0.067235          0.154814
 Vib (Bot)    3  0.622811D+00         -0.205643         -0.473511
 Vib (Bot)    4  0.311515D+00         -0.506520         -1.166307
 Vib (Bot)    5  0.238285D+00         -0.622903         -1.434286
 Vib (V=0)       0.534729D+01          0.728134          1.676590
 Vib (V=0)    1  0.200926D+01          0.303036          0.697766
 Vib (V=0)    2  0.177001D+01          0.247975          0.570984
 Vib (V=0)    3  0.129868D+01          0.113503          0.261350
 Vib (V=0)    4  0.108910D+01          0.037069          0.085354
 Vib (V=0)    5  0.105388D+01          0.022790          0.052476
 Electronic      0.100000D+01          0.000000          0.000000
 Translational   0.210729D+08          7.323725         16.863500
 Rotational      0.400027D+05          4.602090         10.596703
 ***** Axes restored to original set *****
 -------------------------------------------------------------------
 Center     Atomic                   Forces (Hartrees/Bohr)
 Number     Number              X              Y              Z
 -------------------------------------------------------------------
      1        8           0.000060030   -0.000055557   -0.000023763
      2        1           0.000029692    0.000045928    0.000046610
      3        8           0.000009435   -0.000073997   -0.000064261
      4        8           0.000155666   -0.000155707   -0.000004208
      5        8          -0.000260741    0.000192409   -0.000010408
      6        1           0.000005917    0.000046923    0.000056031
 -------------------------------------------------------------------
 Cartesian Forces:  Max     0.000260741 RMS     0.000100305

 GradGradGradGradGradGradGradGradGradGradGradGradGradGradGradGradGradGrad
 Berny optimization.
 Internal  Forces:  Max     0.000285598 RMS     0.000089143
 Search for a saddle point.
 Step number   1 out of a maximum of    2
 All quantities printed in internal units (Hartrees-Bohrs-Radians)
 Swaping is turned off.
 Second derivative matrix not updated -- analytic derivatives used.
 The second derivative matrix:
                          R1        R2        R3        R4        R5
           R1           0.32357
           R2           0.06163   0.58072
           R3           0.09536  -0.01532   0.06987
           R4          -0.01430   0.04407   0.01832   0.39327
           R5           0.00147  -0.00557  -0.00045   0.00945   0.50942
           A1          -0.01196   0.09616   0.06174   0.01415  -0.00076
           A2          -0.00361  -0.00127   0.00228   0.03510  -0.00065
           A3           0.00206   0.00056  -0.00150   0.07627  -0.00399
           A4          -0.00390   0.02437   0.06778   0.01078   0.00020
           A5           0.00952  -0.02013  -0.06188   0.00859  -0.00144
           D1           0.00030  -0.00685   0.00217  -0.00592   0.00147
           D2          -0.00206   0.00095   0.00278  -0.00213   0.00202
                          A1        A2        A3        A4        A5
           A1           0.33645
           A2           0.10124   0.16737
           A3          -0.00153   0.00564   0.23549
           A4           0.03509  -0.00022   0.00189   0.06132
           A5           0.01580   0.04272   0.00049  -0.00487   0.06283
           D1          -0.07052  -0.08731   0.00225   0.01259  -0.02199
           D2           0.00331  -0.00363   0.00213   0.00440  -0.00296
                          D1        D2
           D1           0.07529
           D2           0.00333   0.02874
     Eigenvalues ---   -0.04934   0.01816   0.02816   0.05397   0.08560
     Eigenvalues ---    0.18951   0.20408   0.34151   0.38931   0.43141
     Eigenvalues ---    0.51026   0.64171
 Eigenvectors required to have negative eigenvalues:
                          R3        A5        A4        R1        A1
   1                    0.73321   0.45825  -0.42095  -0.22427  -0.11260
                          R2        R4        A2        D1        A3
   1                    0.09107  -0.04203  -0.03137   0.02788   0.01834
 Angle between quadratic step and forces=  57.46 degrees.
 Linear search not attempted -- option 19 set.
 Iteration  1 RMS(Cart)=  0.00066595 RMS(Int)=  0.00000046
 Iteration  2 RMS(Cart)=  0.00000042 RMS(Int)=  0.00000000
 Variable       Old X    -DE/DX   Delta X   Delta X   Delta X     New X
                                 (Linear)    (Quad)   (Total)
    R1        1.91562  -0.00002   0.00000  -0.00013  -0.00013   1.91548
    R2        2.38116  -0.00002   0.00000  -0.00009  -0.00009   2.38108
    R3        2.91948   0.00004   0.00000   0.00038   0.00038   2.91985
    R4        2.57404   0.00029   0.00000   0.00074   0.00074   2.57478
    R5        1.83544   0.00000   0.00000  -0.00001  -0.00001   1.83542
    A1        1.93481   0.00005   0.00000  -0.00004  -0.00004   1.93478
    A2        1.73606   0.00006   0.00000  -0.00021  -0.00021   1.73586
    A3        1.81541   0.00001   0.00000  -0.00016  -0.00016   1.81525
    A4        2.54658   0.00002   0.00000   0.00014   0.00014   2.54672
    A5        4.85564  -0.00002   0.00000  -0.00021  -0.00021   4.85543
    D1       -3.05466  -0.00004   0.00000  -0.00083  -0.00083  -3.05550
    D2        2.19468  -0.00005   0.00000  -0.00162  -0.00162   2.19305
         Item               Value     Threshold  Converged?
 Maximum Force            0.000286     0.000450     YES
 RMS     Force            0.000089     0.000300     YES
 Maximum Displacement     0.001071     0.001800     YES
 RMS     Displacement     0.000666     0.001200     YES
 Predicted change in Energy=-1.700922D-07
 Optimization completed.
    -- Stationary point found.
                           ----------------------------
                           !   Optimized Parameters   !
                           ! (Angstroms and Degrees)  !
 --------------------------                            --------------------------
 ! Name  Definition              Value          Derivative Info.                !
 --------------------------------------------------------------------------------
 ! R1    R(1,2)                  1.0137         -DE/DX =    0.0                 !
 ! R2    R(1,3)                  1.2601         -DE/DX =    0.0                 !
 ! R3    R(2,4)                  1.5449         -DE/DX =    0.0                 !
 ! R4    R(4,5)                  1.3621         -DE/DX =    0.0003              !
 ! R5    R(5,6)                  0.9713         -DE/DX =    0.0                 !
 ! A1    A(2,1,3)              110.8565         -DE/DX =    0.0                 !
 ! A2    A(2,4,5)               99.4692         -DE/DX =    0.0001              !
 ! A3    A(4,5,6)              104.0155         -DE/DX =    0.0                 !
 ! A4    L(1,2,4,3,-1)         145.9084         -DE/DX =    0.0                 !
 ! A5    L(1,2,4,3,-2)         278.2076         -DE/DX =    0.0                 !
 ! D1    D(3,1,4,5)           -175.0194         -DE/DX =    0.0                 !
 ! D2    D(2,4,5,6)            125.7457         -DE/DX =    0.0                 !
 --------------------------------------------------------------------------------
 GradGradGradGradGradGradGradGradGradGradGradGradGradGradGradGradGradGrad

 1|1|UNPC-DESKTOP-319GPER|Freq|RM062X|6-31+G(d,p)|H2O4|SAGAD|08-Feb-202
 1|0||#N Geom=AllCheck Guess=TCheck SCRF=Check GenChk RM062X/6-31+G(d,p
 ) Freq||prod||0,1|O,-1.0516291228,-0.0767393459,-0.3101341715|H,-1.680
 1801529,-0.7967843727,-0.6478466037|O,0.0679444296,-0.5665600592,-0.00
 29265515|O,-1.6642361608,-0.4191449119,-2.1458166039|O,-2.8106383143,0
 .3141491597,-2.2042701746|H,-2.5289599389,1.16088742,-2.5877523247||Ve
 rsion=IA32W-G09RevA.02|State=1-A|HF=-301.6298639|RMSD=2.716e-010|RMSF=
 1.003e-004|ZeroPoint=0.031947|Thermal=0.0368646|Dipole=-0.5544339,0.48
 36685,-0.0581066|DipoleDeriv=1.1271731,-0.1089642,1.553282,-0.2819529,
 0.0811464,-0.3798402,0.6851592,-0.0881643,0.765926,0.1471767,0.0578784
 ,-0.1549552,-0.0116951,0.3078187,-0.0805269,-0.3254202,0.0112519,0.076
 446,-1.0315337,0.0505047,-1.2620424,0.4509076,-0.2618836,0.5721768,-0.
 2199169,0.00594,-0.5063089,0.5025625,-0.218173,0.7667408,-0.802746,-0.
 0225408,-0.677071,-0.1220465,0.0882109,-0.3540364,-0.9283845,0.2251121
 ,-0.8760841,0.7517349,-0.3965694,0.6341096,-0.0836762,-0.0448416,-0.37
 80642,0.1830058,-0.006358,-0.026941,-0.1062484,0.2920286,-0.0688483,0.
 0659006,0.0276031,0.3960375|Polar=44.6280133,-7.9662509,20.1056668,27.
 5578671,-6.0569793,48.0890532|PG=C01 [X(H2O4)]|NImag=1||0.54532804,-0.
 06462794,0.38663821,0.11939214,0.04403900,0.09981678,-0.10786665,-0.11
 049090,-0.04712068,0.17823217,-0.15381925,-0.25117438,-0.07415099,0.13
 091102,0.24018626,0.01683635,-0.04142534,0.03759260,0.03733027,0.04507
 451,-0.02089740,-0.43007442,0.16388481,-0.09571716,-0.05573950,0.02061
 392,-0.03774193,0.48905208,0.18113411,-0.13901211,0.03245411,-0.011401
 12,0.02979757,0.01383838,-0.17157890,0.10312592,-0.10097349,0.02966362
 ,-0.05652329,-0.01667554,0.00415709,-0.01157840,0.13790933,-0.04365049
 ,0.06143620,-0.04054028,0.01189690,-0.00086348,0.00006425,0.00517544,0
 .00198971,0.02938918,-0.01293268,-0.00186741,0.25979798,0.06991183,-0.
 00327359,0.00385163,-0.02521775,-0.01841036,-0.02966284,-0.03316282,0.
 01617921,0.00529855,-0.17161049,0.16748802,-0.02102555,-0.04108781,-0.
 09767404,0.03323885,0.02085294,-0.00269564,-0.00691066,-0.00146211,0.0
 1902444,0.00985043,0.00130500,0.11055950,0.03073075,0.00024485,0.02396
 934,-0.01396092,-0.00449052,-0.01910363,-0.03042617,0.01403551,-0.0178
 2022,-0.24349736,0.10605341,0.00634579,0.35723759,-0.03772649,0.006655
 91,-0.00881708,0.01613080,0.00026605,0.01363884,0.02477668,-0.01169180
 ,0.00634447,0.15742215,-0.13634482,0.01182592,0.00381680,0.51072991,-0
 .01449828,0.00653756,0.01858437,-0.00861976,0.00190297,-0.00327515,0.0
 0173283,-0.00007003,-0.01304285,-0.00453670,0.02395257,-0.03192899,-0.
 05581685,-0.19637324,0.12030809,0.00242256,-0.00090772,0.00033984,-0.0
 0072935,0.00160939,0.00068923,-0.00220117,0.00074308,-0.00057268,-0.00
 521378,0.05402581,-0.02149886,-0.10008390,-0.16441994,0.08173876,0.105
 80564,0.00512773,0.00016597,0.00262334,0.00006795,-0.00066514,-0.00146
 355,-0.00453370,0.00160120,-0.00181324,0.01004869,-0.02563845,0.008566
 06,-0.11966005,-0.36961524,0.16405017,0.10894938,0.39415167,0.00026883
 ,0.00227296,-0.00179642,0.00184687,0.00216348,0.00085399,0.00072758,-0
 .00110986,0.00068389,-0.00457256,-0.00474490,0.00271473,0.06242556,0.1
 7338110,-0.09064546,-0.06069629,-0.17196278,0.08818926||-0.00006003,0.
 00005556,0.00002376,-0.00002969,-0.00004593,-0.00004661,-0.00000944,0.
 00007400,0.00006426,-0.00015567,0.00015571,0.00000421,0.00026074,-0.00
 019241,0.00001041,-0.00000592,-0.00004692,-0.00005603|||@


 GOOD SENSE ABOUT TRIVIALITIES IS BETTER THAN NONSENSE
 ABOUT THINGS THAT MATTER

                                       -- MAX BEERBOHM
 Job cpu time:  0 days  0 hours  0 minutes 22.0 seconds.
 File lengths (MBytes):  RWF=      9 Int=      0 D2E=      0 Chk=      1 Scr=      1
 Normal termination of Gaussian 09 at Mon Feb 08 22:06:24 2021.
