 Entering Link 1 = C:\G09W\l1.exe PID=      9136.
  
 Copyright (c) 1988,1990,1992,1993,1995,1998,2003,2009, Gaussian, Inc.
                  All Rights Reserved.
  
 This is part of the Gaussian(R) 09 program.  It is based on
 the Gaussian(R) 03 system (copyright 2003, Gaussian, Inc.),
 the Gaussian(R) 98 system (copyright 1998, Gaussian, Inc.),
 the Gaussian(R) 94 system (copyright 1995, Gaussian, Inc.),
 the Gaussian 92(TM) system (copyright 1992, Gaussian, Inc.),
 the Gaussian 90(TM) system (copyright 1990, Gaussian, Inc.),
 the Gaussian 88(TM) system (copyright 1988, Gaussian, Inc.),
 the Gaussian 86(TM) system (copyright 1986, Carnegie Mellon
 University), and the Gaussian 82(TM) system (copyright 1983,
 Carnegie Mellon University). Gaussian is a federally registered
 trademark of Gaussian, Inc.
  
 This software contains proprietary and confidential information,
 including trade secrets, belonging to Gaussian, Inc.
  
 This software is provided under written license and may be
 used, copied, transmitted, or stored only in accord with that
 written license.
  
 The following legend is applicable only to US Government
 contracts under FAR:
  
                    RESTRICTED RIGHTS LEGEND
  
 Use, reproduction and disclosure by the US Government is
 subject to restrictions as set forth in subparagraphs (a)
 and (c) of the Commercial Computer Software - Restricted
 Rights clause in FAR 52.227-19.
  
 Gaussian, Inc.
 340 Quinnipiac St., Bldg. 40, Wallingford CT 06492
  
  
 ---------------------------------------------------------------
 Warning -- This program may not be used in any manner that
 competes with the business of Gaussian, Inc. or will provide
 assistance to any competitor of Gaussian, Inc.  The licensee
 of this program is prohibited from giving any competitor of
 Gaussian, Inc. access to this program.  By using this program,
 the user acknowledges that Gaussian, Inc. is engaged in the
 business of creating and licensing software in the field of
 computational chemistry and represents and warrants to the
 licensee that it is not a competitor of Gaussian, Inc. and that
 it will not use this program in any manner prohibited above.
 ---------------------------------------------------------------
  

 Cite this work as:
 Gaussian 09, Revision A.02,
 M. J. Frisch, G. W. Trucks, H. B. Schlegel, G. E. Scuseria, 
 M. A. Robb, J. R. Cheeseman, G. Scalmani, V. Barone, B. Mennucci, 
 G. A. Petersson, H. Nakatsuji, M. Caricato, X. Li, H. P. Hratchian, 
 A. F. Izmaylov, J. Bloino, G. Zheng, J. L. Sonnenberg, M. Hada, 
 M. Ehara, K. Toyota, R. Fukuda, J. Hasegawa, M. Ishida, T. Nakajima, 
 Y. Honda, O. Kitao, H. Nakai, T. Vreven, J. A. Montgomery, Jr., 
 J. E. Peralta, F. Ogliaro, M. Bearpark, J. J. Heyd, E. Brothers, 
 K. N. Kudin, V. N. Staroverov, R. Kobayashi, J. Normand, 
 K. Raghavachari, A. Rendell, J. C. Burant, S. S. Iyengar, J. Tomasi, 
 M. Cossi, N. Rega, J. M. Millam, M. Klene, J. E. Knox, J. B. Cross, 
 V. Bakken, C. Adamo, J. Jaramillo, R. Gomperts, R. E. Stratmann, 
 O. Yazyev, A. J. Austin, R. Cammi, C. Pomelli, J. W. Ochterski, 
 R. L. Martin, K. Morokuma, V. G. Zakrzewski, G. A. Voth, 
 P. Salvador, J. J. Dannenberg, S. Dapprich, A. D. Daniels, 
 O. Farkas, J. B. Foresman, J. V. Ortiz, J. Cioslowski, 
 and D. J. Fox, Gaussian, Inc., Wallingford CT, 2009.
 
 ******************************************
 Gaussian 09:  IA32W-G09RevA.02 11-Jun-2009
                05-Oct-2020 
 ******************************************
 %chk=C:\Users\sagad\Documents\rayGit\FQ\quimicaComputacional\class2FluorMolecule
 \fluorMolecule\F2_MP2.chk
 %NProc=4
 Will use up to    4 processors via shared memory.
 %Mem=1500mb
 ------------------------
 # opt freq MP2/6-31+g(d)
 ------------------------
 1/18=20,19=15,38=1/1,3;
 2/9=110,12=2,17=6,18=5,40=1/2;
 3/5=1,6=6,7=11,11=9,16=1,25=1,30=1,71=1/1,2,3;
 4//1;
 5/5=2,38=5/2;
 8/6=4,10=2/1;
 9/15=2,16=-3/6;
 10/5=1/2;
 6/7=2,8=2,9=2,10=2/1;
 7/12=2/1,2,3,16;
 1/18=20,19=15/3(2);
 2/9=110/2;
 99//99;
 2/9=110/2;
 3/5=1,6=6,7=11,11=9,16=1,25=1,30=1,71=1/1,2,3;
 4/5=5,16=3/1;
 5/5=2,38=5/2;
 8/6=4,10=2/1;
 9/15=2,16=-3/6;
 10/5=1/2;
 7/12=2/1,2,3,16;
 1/18=20,19=15/3(-8);
 2/9=110/2;
 6/7=2,8=2,9=2,10=2/1;
 99//99;
 ----------------------------------------
 Fluor molecule Calculate with MP2 Method
 ----------------------------------------
 Symbolic Z-matrix:
 Charge =  0 Multiplicity = 1
 F                    -1.00785   1.27618   0. 
 F                    -2.16785   1.27618   0. 
 

 GradGradGradGradGradGradGradGradGradGradGradGradGradGradGradGradGradGrad
 Berny optimization.
 Initialization pass.
                           ----------------------------
                           !    Initial Parameters    !
                           ! (Angstroms and Degrees)  !
 --------------------------                            --------------------------
 ! Name  Definition              Value          Derivative Info.                !
 --------------------------------------------------------------------------------
 ! R1    R(1,2)                  1.16           estimate D2E/DX2                !
 --------------------------------------------------------------------------------
 Trust Radius=3.00D-01 FncErr=1.00D-07 GrdErr=1.00D-07
 Number of steps in this run=  20 maximum allowed number of steps= 100.
 GradGradGradGradGradGradGradGradGradGradGradGradGradGradGradGradGradGrad

                          Input orientation:                          
 ---------------------------------------------------------------------
 Center     Atomic      Atomic             Coordinates (Angstroms)
 Number     Number       Type             X           Y           Z
 ---------------------------------------------------------------------
      1          9           0       -1.007853    1.276178    0.000000
      2          9           0       -2.167853    1.276178    0.000000
 ---------------------------------------------------------------------
 Stoichiometry    F2
 Framework group  D*H[C*(F.F)]
 Deg. of freedom     1
 Full point group                 D*H     NOp   8
 Largest Abelian subgroup         D2H     NOp   8
 Largest concise Abelian subgroup C2      NOp   2
                         Standard orientation:                         
 ---------------------------------------------------------------------
 Center     Atomic      Atomic             Coordinates (Angstroms)
 Number     Number       Type             X           Y           Z
 ---------------------------------------------------------------------
      1          9           0        0.000000    0.000000    0.580000
      2          9           0        0.000000    0.000000   -0.580000
 ---------------------------------------------------------------------
 Rotational constants (GHZ):      0.0000000     39.5379467     39.5379467
 Standard basis: 6-31+G(d) (6D, 7F)
 There are    10 symmetry adapted basis functions of AG  symmetry.
 There are     1 symmetry adapted basis functions of B1G symmetry.
 There are     4 symmetry adapted basis functions of B2G symmetry.
 There are     4 symmetry adapted basis functions of B3G symmetry.
 There are     1 symmetry adapted basis functions of AU  symmetry.
 There are    10 symmetry adapted basis functions of B1U symmetry.
 There are     4 symmetry adapted basis functions of B2U symmetry.
 There are     4 symmetry adapted basis functions of B3U symmetry.
 Integral buffers will be    262144 words long.
 Raffenetti 1 integral format.
 Two-electron integral symmetry is turned on.
    38 basis functions,    64 primitive gaussians,    38 cartesian basis functions
     9 alpha electrons        9 beta electrons
       nuclear repulsion energy        36.9511671515 Hartrees.
 NAtoms=    2 NActive=    2 NUniq=    1 SFac= 3.00D+00 NAtFMM=   80 NAOKFM=F Big=F
 One-electron integrals computed using PRISM.
 NBasis=    38 RedAO= T  NBF=    10     1     4     4     1    10     4     4
 NBsUse=    38 1.00D-06 NBFU=    10     1     4     4     1    10     4     4
 Harris functional with IExCor=  205 diagonalized for initial guess.
 ExpMin= 1.08D-01 ExpMax= 7.00D+03 ExpMxC= 1.05D+03 IAcc=1 IRadAn=         1 AccDes= 0.00D+00
 HarFok:  IExCor=  205 AccDes= 0.00D+00 IRadAn=         1 IDoV= 1
 ScaDFX=  1.000000  1.000000  1.000000  1.000000
 FoFCou: FMM=F IPFlag=           0 FMFlag=      100000 FMFlg1=           0
         NFxFlg=           0 DoJE=T BraDBF=F KetDBF=T FulRan=T
         Omega=  0.000000  0.000000  1.000000  0.000000  0.000000 ICntrl=     500 IOpCl=  0
         NMat0=    1 NMatS0=    1 NMatT0=    0 NMatD0=    1 NMtDS0=    0 NMtDT0=    0
         I1Cent=           4 NGrid=           0.
 Petite list used in FoFCou.
 Initial guess orbital symmetries:
       Occupied  (SGU) (SGG) (SGG) (SGU) (SGG) (PIU) (PIU) (PIG)
                 (PIG)
       Virtual   (SGU) (SGG) (PIU) (PIU) (SGU) (SGG) (PIG) (PIG)
                 (SGU) (SGU) (PIU) (PIU) (SGG) (PIG) (PIG) (SGG)
                 (DLTG) (DLTG) (PIU) (PIU) (DLTU) (DLTU) (SGU)
                 (PIG) (PIG) (SGG) (SGU) (SGG) (SGU)
 The electronic state of the initial guess is 1-SGG.
 Requested convergence on RMS density matrix=1.00D-08 within 128 cycles.
 Requested convergence on MAX density matrix=1.00D-06.
 Requested convergence on             energy=1.00D-06.
 No special actions if energy rises.
 Keep R1 ints in memory in canonical form, NReq=1117910.
 SCF Done:  E(RHF) =  -198.634041241     A.U. after    9 cycles
             Convg  =    0.9616D-09             -V/T =  1.9988
 ExpMin= 1.08D-01 ExpMax= 7.00D+03 ExpMxC= 1.05D+03 IAcc=1 IRadAn=         1 AccDes= 0.00D+00
 HarFok:  IExCor=  205 AccDes= 0.00D+00 IRadAn=         1 IDoV=-2
 ScaDFX=  1.000000  1.000000  1.000000  1.000000
 Range of M.O.s used for correlation:     3    38
 NBasis=    38 NAE=     9 NBE=     9 NFC=     2 NFV=     0
 NROrb=     36 NOA=     7 NOB=     7 NVA=    29 NVB=    29

 **** Warning!!: The largest alpha MO coefficient is  0.15680056D+02

 Fully direct method using O(ONN) memory.
 JobTyp=1 Pass  1:  I=   3 to   9 NPSUse=  4 ParTrn=T ParDer=T DoDerP=T.
 Spin components of T(2) and E(2):
     alpha-alpha T2 =       0.1020583085D-01 E2=     -0.4643817301D-01
     alpha-beta  T2 =       0.5415042572D-01 E2=     -0.2434428212D+00
     beta-beta   T2 =       0.1020583085D-01 E2=     -0.4643817301D-01
 ANorm=    0.1036610866D+01
 E2 =    -0.3363191672D+00 EUMP2 =    -0.19897036040844D+03
          IDoAtm=11
          Differentiating once with respect to electric field.
                with respect to dipole field.
          Differentiating once with respect to nuclear coordinates.
          Keep R1 ints in memory in canonical form, NReq=1095401.
          There are     1 degrees of freedom in the 1st order CPHF.  IDoFFX=0.
 LinEq1:  Iter=  0 NonCon=     1 RMS=8.42D-03 Max=5.73D-02
 AX will form     1 AO Fock derivatives at one time.
 LinEq1:  Iter=  1 NonCon=     1 RMS=1.66D-03 Max=1.13D-02
 LinEq1:  Iter=  2 NonCon=     1 RMS=2.30D-04 Max=1.30D-03
 LinEq1:  Iter=  3 NonCon=     1 RMS=2.09D-05 Max=1.37D-04
 LinEq1:  Iter=  4 NonCon=     1 RMS=2.27D-06 Max=1.52D-05
 LinEq1:  Iter=  5 NonCon=     1 RMS=1.86D-07 Max=1.65D-06
 LinEq1:  Iter=  6 NonCon=     1 RMS=1.62D-08 Max=1.03D-07
 LinEq1:  Iter=  7 NonCon=     1 RMS=1.19D-09 Max=8.03D-09
 LinEq1:  Iter=  8 NonCon=     0 RMS=8.57D-11 Max=7.05D-10
 Linear equations converged to 1.000D-10 1.000D-09 after     8 iterations.
 End of Minotr Frequency-dependent properties file   721 does not exist.
 End of Minotr Frequency-dependent properties file   722 does not exist.

 **********************************************************************

            Population analysis using the SCF density.

 **********************************************************************

 Orbital symmetries:
       Occupied  (SGG) (SGU) (SGG) (SGU) (PIU) (PIU) (SGG) (PIG)
                 (PIG)
       Virtual   (SGU) (SGG) (PIU) (PIU) (PIG) (PIG) (SGG) (SGU)
                 (SGU) (SGU) (PIU) (PIU) (SGG) (SGG) (PIG) (PIG)
                 (DLTG) (DLTG) (PIU) (PIU) (DLTU) (DLTU) (SGU)
                 (PIG) (PIG) (SGG) (SGU) (SGG) (SGU)
 The electronic state is 1-SGG.
 Alpha  occ. eigenvalues --  -26.42177 -26.42125  -1.96805  -1.41746  -0.89516
 Alpha  occ. eigenvalues --   -0.89516  -0.85882  -0.60271  -0.60271
 Alpha virt. eigenvalues --    0.20246   0.23012   0.28760   0.28760   0.36799
 Alpha virt. eigenvalues --    0.36799   0.36825   0.44723   0.54424   1.54674
 Alpha virt. eigenvalues --    1.70328   1.70328   1.72735   1.78097   1.80990
 Alpha virt. eigenvalues --    1.80990   1.85827   1.85827   1.87000   1.87000
 Alpha virt. eigenvalues --    2.31050   2.31050   2.43130   3.06604   3.06604
 Alpha virt. eigenvalues --    3.13373   3.73484   4.70917   6.34597
          Condensed to atoms (all electrons):
              1          2
     1  F    9.066466  -0.066466
     2  F   -0.066466   9.066466
 Mulliken atomic charges:
              1
     1  F    0.000000
     2  F    0.000000
 Sum of Mulliken atomic charges =   0.00000
 Mulliken charges with hydrogens summed into heavy atoms:
              1
     1  F    0.000000
     2  F    0.000000
 Sum of Mulliken charges with hydrogens summed into heavy atoms =   0.00000
 Electronic spatial extent (au):  <R**2>=             42.3329
 Charge=              0.0000 electrons
 Dipole moment (field-independent basis, Debye):
    X=              0.0000    Y=              0.0000    Z=              0.0000  Tot=              0.0000
 Quadrupole moment (field-independent basis, Debye-Ang):
   XX=             -9.2895   YY=             -9.2895   ZZ=             -9.2757
   XY=              0.0000   XZ=              0.0000   YZ=              0.0000
 Traceless Quadrupole moment (field-independent basis, Debye-Ang):
   XX=             -0.0046   YY=             -0.0046   ZZ=              0.0092
   XY=              0.0000   XZ=              0.0000   YZ=              0.0000
 Octapole moment (field-independent basis, Debye-Ang**2):
  XXX=              0.0000  YYY=              0.0000  ZZZ=              0.0000  XYY=              0.0000
  XXY=              0.0000  XXZ=              0.0000  XZZ=              0.0000  YZZ=              0.0000
  YYZ=              0.0000  XYZ=              0.0000
 Hexadecapole moment (field-independent basis, Debye-Ang**3):
 XXXX=             -5.1621 YYYY=             -5.1621 ZZZZ=            -21.8339 XXXY=              0.0000
 XXXZ=              0.0000 YYYX=              0.0000 YYYZ=              0.0000 ZZZX=              0.0000
 ZZZY=              0.0000 XXYY=             -1.7207 XXZZ=             -5.0685 YYZZ=             -5.0685
 XXYZ=              0.0000 YYXZ=              0.0000 ZZXY=              0.0000
 N-N= 3.695116715154D+01 E-N=-5.498685067411D+02  KE= 1.988642702343D+02
 Symmetry AG   KE= 8.832415743482D+01
 Symmetry B1G  KE= 2.841130889215D-34
 Symmetry B2G  KE= 7.645275123417D+00
 Symmetry B3G  KE= 7.645275123417D+00
 Symmetry AU   KE= 5.677280122266D-34
 Symmetry B1U  KE= 8.307375105382D+01
 Symmetry B2U  KE= 6.087905749409D+00
 Symmetry B3U  KE= 6.087905749409D+00
 Calling FoFJK, ICntrl=      2127 FMM=F ISym2X=1 I1Cent= 0 IOpClX= 0 NMat=1 NMatS=1 NMatT=0.
 ***** Axes restored to original set *****
 -------------------------------------------------------------------
 Center     Atomic                   Forces (Hartrees/Bohr)
 Number     Number              X              Y              Z
 -------------------------------------------------------------------
      1        9           0.427049678    0.000000000    0.000000000
      2        9          -0.427049678    0.000000000    0.000000000
 -------------------------------------------------------------------
 Cartesian Forces:  Max     0.427049678 RMS     0.246557247

 GradGradGradGradGradGradGradGradGradGradGradGradGradGradGradGradGradGrad
 Berny optimization.
 Internal  Forces:  Max     0.427049678 RMS     0.427049678
 Search for a local minimum.
 Step number   1 out of a maximum of   20
 All quantities printed in internal units (Hartrees-Bohrs-Radians)
 Mixed Optimization -- RFO/linear search
 Second derivative matrix not updated -- first step.
 The second derivative matrix:
                          R1
           R1           1.27794
     Eigenvalues ---    1.27794
 RFO step:  Lambda=-1.29570507D-01 EMin= 1.27793674D+00
 Linear search not attempted -- first point.
 Maximum step size (   0.300) exceeded in Quadratic search.
    -- Step size scaled by   0.989
 Iteration  1 RMS(Cart)=  0.14142136 RMS(Int)=  0.10000000
 Iteration  2 RMS(Cart)=  0.07071068 RMS(Int)=  0.00000000
 Iteration  3 RMS(Cart)=  0.00000000 RMS(Int)=  0.00000000
 ClnCor:  largest displacement from symmetrization is 8.88D-16 for atom     2.
 Variable       Old X    -DE/DX   Delta X   Delta X   Delta X     New X
                                 (Linear)    (Quad)   (Total)
    R1        2.19208   0.42705   0.00000   0.30000   0.30000   2.49208
         Item               Value     Threshold  Converged?
 Maximum Force            0.427050     0.000450     NO 
 RMS     Force            0.427050     0.000300     NO 
 Maximum Displacement     0.150000     0.001800     NO 
 RMS     Displacement     0.212132     0.001200     NO 
 Predicted change in Energy=-7.060775D-02
 GradGradGradGradGradGradGradGradGradGradGradGradGradGradGradGradGradGrad

                          Input orientation:                          
 ---------------------------------------------------------------------
 Center     Atomic      Atomic             Coordinates (Angstroms)
 Number     Number       Type             X           Y           Z
 ---------------------------------------------------------------------
      1          9           0       -0.928477    1.276178    0.000000
      2          9           0       -2.247230    1.276178    0.000000
 ---------------------------------------------------------------------
 Stoichiometry    F2
 Framework group  D*H[C*(F.F)]
 Deg. of freedom     1
 Full point group                 D*H     NOp   8
 Largest Abelian subgroup         D2H     NOp   8
 Largest concise Abelian subgroup C2      NOp   2
                         Standard orientation:                         
 ---------------------------------------------------------------------
 Center     Atomic      Atomic             Coordinates (Angstroms)
 Number     Number       Type             X           Y           Z
 ---------------------------------------------------------------------
      1          9           0        0.000000    0.000000    0.659377
      2          9           0        0.000000    0.000000   -0.659377
 ---------------------------------------------------------------------
 Rotational constants (GHZ):      0.0000000     30.5916613     30.5916613
 Standard basis: 6-31+G(d) (6D, 7F)
 There are    10 symmetry adapted basis functions of AG  symmetry.
 There are     1 symmetry adapted basis functions of B1G symmetry.
 There are     4 symmetry adapted basis functions of B2G symmetry.
 There are     4 symmetry adapted basis functions of B3G symmetry.
 There are     1 symmetry adapted basis functions of AU  symmetry.
 There are    10 symmetry adapted basis functions of B1U symmetry.
 There are     4 symmetry adapted basis functions of B2U symmetry.
 There are     4 symmetry adapted basis functions of B3U symmetry.
 Integral buffers will be    262144 words long.
 Raffenetti 1 integral format.
 Two-electron integral symmetry is turned on.
    38 basis functions,    64 primitive gaussians,    38 cartesian basis functions
     9 alpha electrons        9 beta electrons
       nuclear repulsion energy        32.5029392248 Hartrees.
 NAtoms=    2 NActive=    2 NUniq=    1 SFac= 3.00D+00 NAtFMM=   80 NAOKFM=F Big=F
 One-electron integrals computed using PRISM.
 NBasis=    38 RedAO= T  NBF=    10     1     4     4     1    10     4     4
 NBsUse=    38 1.00D-06 NBFU=    10     1     4     4     1    10     4     4
 Initial guess read from the read-write file.
 B after Tr=     0.000000    0.000000    0.000000
         Rot=    1.000000    0.000000    0.000000    0.000000 Ang=   0.00 deg.
 Initial guess orbital symmetries:
       Occupied  (SGG) (SGU) (SGG) (SGU) (PIU) (PIU) (SGG) (PIG)
                 (PIG)
       Virtual   (SGU) (SGG) (PIU) (PIU) (PIG) (PIG) (SGG) (SGU)
                 (SGU) (SGU) (PIU) (PIU) (SGG) (SGG) (PIG) (PIG)
                 (DLTG) (DLTG) (PIU) (PIU) (DLTU) (DLTU) (SGU)
                 (PIG) (PIG) (SGG) (SGU) (SGG) (SGU)
 Harris functional with IExCor=  205 diagonalized for initial guess.
 ExpMin= 1.08D-01 ExpMax= 7.00D+03 ExpMxC= 1.05D+03 IAcc=1 IRadAn=         1 AccDes= 0.00D+00
 HarFok:  IExCor=  205 AccDes= 0.00D+00 IRadAn=         1 IDoV= 1
 ScaDFX=  1.000000  1.000000  1.000000  1.000000
 FoFCou: FMM=F IPFlag=           0 FMFlag=      100000 FMFlg1=           0
         NFxFlg=           0 DoJE=T BraDBF=F KetDBF=T FulRan=T
         Omega=  0.000000  0.000000  1.000000  0.000000  0.000000 ICntrl=     500 IOpCl=  0
         NMat0=    1 NMatS0=    1 NMatT0=    0 NMatD0=    1 NMtDS0=    0 NMtDT0=    0
         I1Cent=           4 NGrid=           0.
 Petite list used in FoFCou.
 Requested convergence on RMS density matrix=1.00D-08 within 128 cycles.
 Requested convergence on MAX density matrix=1.00D-06.
 Requested convergence on             energy=1.00D-06.
 No special actions if energy rises.
 Keep R1 ints in memory in canonical form, NReq=1117910.
 SCF Done:  E(RHF) =  -198.683825032     A.U. after   10 cycles
             Convg  =    0.7668D-09             -V/T =  2.0026
 ExpMin= 1.08D-01 ExpMax= 7.00D+03 ExpMxC= 1.05D+03 IAcc=1 IRadAn=         1 AccDes= 0.00D+00
 HarFok:  IExCor=  205 AccDes= 0.00D+00 IRadAn=         1 IDoV=-2
 ScaDFX=  1.000000  1.000000  1.000000  1.000000
 Range of M.O.s used for correlation:     3    38
 NBasis=    38 NAE=     9 NBE=     9 NFC=     2 NFV=     0
 NROrb=     36 NOA=     7 NOB=     7 NVA=    29 NVB=    29

 **** Warning!!: The largest alpha MO coefficient is  0.11369069D+02

 Fully direct method using O(ONN) memory.
 JobTyp=1 Pass  1:  I=   3 to   9 NPSUse=  4 ParTrn=T ParDer=T DoDerP=T.
 Spin components of T(2) and E(2):
     alpha-alpha T2 =       0.1159801530D-01 E2=     -0.4868633859D-01
     alpha-beta  T2 =       0.6624559103D-01 E2=     -0.2617784871D+00
     beta-beta   T2 =       0.1159801530D-01 E2=     -0.4868633859D-01
 ANorm=    0.1043763202D+01
 E2 =    -0.3591511643D+00 EUMP2 =    -0.19904297619672D+03
          IDoAtm=11
          Differentiating once with respect to electric field.
                with respect to dipole field.
          Differentiating once with respect to nuclear coordinates.
          Keep R1 ints in memory in canonical form, NReq=1095401.
          There are     1 degrees of freedom in the 1st order CPHF.  IDoFFX=0.
 LinEq1:  Iter=  0 NonCon=     1 RMS=1.00D-02 Max=7.17D-02
 AX will form     1 AO Fock derivatives at one time.
 LinEq1:  Iter=  1 NonCon=     1 RMS=1.65D-03 Max=1.01D-02
 LinEq1:  Iter=  2 NonCon=     1 RMS=2.84D-04 Max=1.51D-03
 LinEq1:  Iter=  3 NonCon=     1 RMS=2.48D-05 Max=2.38D-04
 LinEq1:  Iter=  4 NonCon=     1 RMS=3.41D-06 Max=2.24D-05
 LinEq1:  Iter=  5 NonCon=     1 RMS=4.58D-07 Max=3.91D-06
 LinEq1:  Iter=  6 NonCon=     1 RMS=2.99D-08 Max=2.01D-07
 LinEq1:  Iter=  7 NonCon=     1 RMS=1.86D-09 Max=1.30D-08
 LinEq1:  Iter=  8 NonCon=     1 RMS=1.35D-10 Max=9.60D-10
 LinEq1:  Iter=  9 NonCon=     0 RMS=1.10D-11 Max=5.93D-11
 Linear equations converged to 1.000D-10 1.000D-09 after     9 iterations.
 End of Minotr Frequency-dependent properties file   721 does not exist.
 End of Minotr Frequency-dependent properties file   722 does not exist.
 Calling FoFJK, ICntrl=      2127 FMM=F ISym2X=1 I1Cent= 0 IOpClX= 0 NMat=1 NMatS=1 NMatT=0.
 ***** Axes restored to original set *****
 -------------------------------------------------------------------
 Center     Atomic                   Forces (Hartrees/Bohr)
 Number     Number              X              Y              Z
 -------------------------------------------------------------------
      1        9           0.104782271    0.000000000    0.000000000
      2        9          -0.104782271    0.000000000    0.000000000
 -------------------------------------------------------------------
 Cartesian Forces:  Max     0.104782271 RMS     0.060496073

 GradGradGradGradGradGradGradGradGradGradGradGradGradGradGradGradGradGrad
 Berny optimization.
 Using GEDIIS/GDIIS optimizer.
 Internal  Forces:  Max     0.104782271 RMS     0.104782271
 Search for a local minimum.
 Step number   2 out of a maximum of   20
 All quantities printed in internal units (Hartrees-Bohrs-Radians)
 Mixed Optimization -- RFO/linear search
 Update second derivatives using D2CorX and points    1    2
 DE= -7.26D-02 DEPred=-7.06D-02 R= 1.03D+00
 SS=  1.41D+00  RLast= 3.00D-01 DXNew= 5.0454D-01 9.0000D-01
 Trust test= 1.03D+00 RLast= 3.00D-01 DXMaxT set to 5.05D-01
 The second derivative matrix:
                          R1
           R1           1.07422
 Use linear search instead of GDIIS.
     Eigenvalues ---    1.07422
 RFO step:  Lambda= 0.00000000D+00 EMin= 1.07422469D+00
 Quartic linear search produced a step of  1.16040.
 Iteration  1 RMS(Cart)=  0.14142136 RMS(Int)=  0.14811891
 Iteration  2 RMS(Cart)=  0.10473589 RMS(Int)=  0.00000000
 Iteration  3 RMS(Cart)=  0.00000000 RMS(Int)=  0.00000000
 ClnCor:  largest displacement from symmetrization is 8.88D-16 for atom     2.
 Variable       Old X    -DE/DX   Delta X   Delta X   Delta X     New X
                                 (Linear)    (Quad)   (Total)
    R1        2.49208   0.10478   0.34812   0.00000   0.34812   2.84020
         Item               Value     Threshold  Converged?
 Maximum Force            0.104782     0.000450     NO 
 RMS     Force            0.104782     0.000300     NO 
 Maximum Displacement     0.174059     0.001800     NO 
 RMS     Displacement     0.246157     0.001200     NO 
 Predicted change in Energy=-2.861422D-02
 GradGradGradGradGradGradGradGradGradGradGradGradGradGradGradGradGradGrad

                          Input orientation:                          
 ---------------------------------------------------------------------
 Center     Atomic      Atomic             Coordinates (Angstroms)
 Number     Number       Type             X           Y           Z
 ---------------------------------------------------------------------
      1          9           0       -0.836369    1.276178    0.000000
      2          9           0       -2.339338    1.276178    0.000000
 ---------------------------------------------------------------------
 Stoichiometry    F2
 Framework group  D*H[C*(F.F)]
 Deg. of freedom     1
 Full point group                 D*H     NOp   8
 Largest Abelian subgroup         D2H     NOp   8
 Largest concise Abelian subgroup C2      NOp   2
                         Standard orientation:                         
 ---------------------------------------------------------------------
 Center     Atomic      Atomic             Coordinates (Angstroms)
 Number     Number       Type             X           Y           Z
 ---------------------------------------------------------------------
      1          9           0        0.000000    0.000000    0.751485
      2          9           0        0.000000    0.000000   -0.751485
 ---------------------------------------------------------------------
 Rotational constants (GHZ):      0.0000000     23.5520984     23.5520984
 Standard basis: 6-31+G(d) (6D, 7F)
 There are    10 symmetry adapted basis functions of AG  symmetry.
 There are     1 symmetry adapted basis functions of B1G symmetry.
 There are     4 symmetry adapted basis functions of B2G symmetry.
 There are     4 symmetry adapted basis functions of B3G symmetry.
 There are     1 symmetry adapted basis functions of AU  symmetry.
 There are    10 symmetry adapted basis functions of B1U symmetry.
 There are     4 symmetry adapted basis functions of B2U symmetry.
 There are     4 symmetry adapted basis functions of B3U symmetry.
 Integral buffers will be    262144 words long.
 Raffenetti 1 integral format.
 Two-electron integral symmetry is turned on.
    38 basis functions,    64 primitive gaussians,    38 cartesian basis functions
     9 alpha electrons        9 beta electrons
       nuclear repulsion energy        28.5191060763 Hartrees.
 NAtoms=    2 NActive=    2 NUniq=    1 SFac= 3.00D+00 NAtFMM=   80 NAOKFM=F Big=F
 One-electron integrals computed using PRISM.
 NBasis=    38 RedAO= T  NBF=    10     1     4     4     1    10     4     4
 NBsUse=    38 1.00D-06 NBFU=    10     1     4     4     1    10     4     4
 Initial guess read from the read-write file.
 B after Tr=     0.000000    0.000000    0.000000
         Rot=    1.000000    0.000000    0.000000    0.000000 Ang=   0.00 deg.
 Initial guess orbital symmetries:
       Occupied  (SGG) (SGU) (SGG) (SGU) (PIU) (PIU) (SGG) (PIG)
                 (PIG)
       Virtual   (SGU) (SGG) (PIU) (PIU) (SGU) (PIG) (PIG) (SGG)
                 (SGU) (PIU) (PIU) (SGU) (SGG) (PIG) (PIG) (SGG)
                 (PIU) (PIU) (DLTG) (DLTG) (DLTU) (DLTU) (SGU)
                 (SGG) (PIG) (PIG) (SGU) (SGG) (SGU)
 Harris functional with IExCor=  205 diagonalized for initial guess.
 ExpMin= 1.08D-01 ExpMax= 7.00D+03 ExpMxC= 1.05D+03 IAcc=1 IRadAn=         1 AccDes= 0.00D+00
 HarFok:  IExCor=  205 AccDes= 0.00D+00 IRadAn=         1 IDoV= 1
 ScaDFX=  1.000000  1.000000  1.000000  1.000000
 FoFCou: FMM=F IPFlag=           0 FMFlag=      100000 FMFlg1=           0
         NFxFlg=           0 DoJE=T BraDBF=F KetDBF=T FulRan=T
         Omega=  0.000000  0.000000  1.000000  0.000000  0.000000 ICntrl=     500 IOpCl=  0
         NMat0=    1 NMatS0=    1 NMatT0=    0 NMatD0=    1 NMtDS0=    0 NMtDT0=    0
         I1Cent=           4 NGrid=           0.
 Petite list used in FoFCou.
 Requested convergence on RMS density matrix=1.00D-08 within 128 cycles.
 Requested convergence on MAX density matrix=1.00D-06.
 Requested convergence on             energy=1.00D-06.
 No special actions if energy rises.
 Keep R1 ints in memory in canonical form, NReq=1117910.
 SCF Done:  E(RHF) =  -198.666893619     A.U. after   10 cycles
             Convg  =    0.4828D-09             -V/T =  2.0047
 ExpMin= 1.08D-01 ExpMax= 7.00D+03 ExpMxC= 1.05D+03 IAcc=1 IRadAn=         1 AccDes= 0.00D+00
 HarFok:  IExCor=  205 AccDes= 0.00D+00 IRadAn=         1 IDoV=-2
 ScaDFX=  1.000000  1.000000  1.000000  1.000000
 Range of M.O.s used for correlation:     3    38
 NBasis=    38 NAE=     9 NBE=     9 NFC=     2 NFV=     0
 NROrb=     36 NOA=     7 NOB=     7 NVA=    29 NVB=    29
 Fully direct method using O(ONN) memory.
 JobTyp=1 Pass  1:  I=   3 to   9 NPSUse=  4 ParTrn=T ParDer=T DoDerP=T.
 Spin components of T(2) and E(2):
     alpha-alpha T2 =       0.1299482987D-01 E2=     -0.5042393502D-01
     alpha-beta  T2 =       0.8514047697D-01 E2=     -0.2828566539D+00
     beta-beta   T2 =       0.1299482987D-01 E2=     -0.5042393502D-01
 ANorm=    0.1054101578D+01
 E2 =    -0.3837045240D+00 EUMP2 =    -0.19905059814320D+03
          IDoAtm=11
          Differentiating once with respect to electric field.
                with respect to dipole field.
          Differentiating once with respect to nuclear coordinates.
          Keep R1 ints in memory in canonical form, NReq=1095401.
          There are     1 degrees of freedom in the 1st order CPHF.  IDoFFX=0.
 LinEq1:  Iter=  0 NonCon=     1 RMS=1.24D-02 Max=8.77D-02
 AX will form     1 AO Fock derivatives at one time.
 LinEq1:  Iter=  1 NonCon=     1 RMS=1.62D-03 Max=1.27D-02
 LinEq1:  Iter=  2 NonCon=     1 RMS=3.42D-04 Max=2.23D-03
 LinEq1:  Iter=  3 NonCon=     1 RMS=2.90D-05 Max=2.85D-04
 LinEq1:  Iter=  4 NonCon=     1 RMS=4.43D-06 Max=3.11D-05
 LinEq1:  Iter=  5 NonCon=     1 RMS=6.90D-07 Max=4.36D-06
 LinEq1:  Iter=  6 NonCon=     1 RMS=4.24D-08 Max=2.61D-07
 LinEq1:  Iter=  7 NonCon=     1 RMS=2.37D-09 Max=1.54D-08
 LinEq1:  Iter=  8 NonCon=     1 RMS=1.56D-10 Max=1.21D-09
 LinEq1:  Iter=  9 NonCon=     0 RMS=1.65D-11 Max=1.14D-10
 Linear equations converged to 1.000D-10 1.000D-09 after     9 iterations.
 End of Minotr Frequency-dependent properties file   721 does not exist.
 End of Minotr Frequency-dependent properties file   722 does not exist.
 Calling FoFJK, ICntrl=      2127 FMM=F ISym2X=1 I1Cent= 0 IOpClX= 0 NMat=1 NMatS=1 NMatT=0.
 ***** Axes restored to original set *****
 -------------------------------------------------------------------
 Center     Atomic                   Forces (Hartrees/Bohr)
 Number     Number              X              Y              Z
 -------------------------------------------------------------------
      1        9          -0.034834492    0.000000000    0.000000000
      2        9           0.034834492    0.000000000    0.000000000
 -------------------------------------------------------------------
 Cartesian Forces:  Max     0.034834492 RMS     0.020111703

 GradGradGradGradGradGradGradGradGradGradGradGradGradGradGradGradGradGrad
 Berny optimization.
 Using GEDIIS/GDIIS optimizer.
 Internal  Forces:  Max     0.034834492 RMS     0.034834492
 Search for a local minimum.
 Step number   3 out of a maximum of   20
 All quantities printed in internal units (Hartrees-Bohrs-Radians)
 Mixed Optimization -- RFO/linear search
 Update second derivatives using D2CorX and points    2    3
 DE= -7.62D-03 DEPred=-2.86D-02 R= 2.66D-01
 Trust test= 2.66D-01 RLast= 3.48D-01 DXMaxT set to 5.05D-01
 The second derivative matrix:
                          R1
           R1           0.40106
 Use linear search instead of GDIIS.
     Eigenvalues ---    0.40106
 RFO step:  Lambda= 0.00000000D+00 EMin= 4.01060556D-01
 Quartic linear search produced a step of -0.37865.
 Iteration  1 RMS(Cart)=  0.09320822 RMS(Int)=  0.00000000
 Iteration  2 RMS(Cart)=  0.00000000 RMS(Int)=  0.00000000
 ClnCor:  largest displacement from symmetrization is 8.88D-16 for atom     2.
 Variable       Old X    -DE/DX   Delta X   Delta X   Delta X     New X
                                 (Linear)    (Quad)   (Total)
    R1        2.84020  -0.03483  -0.13182   0.00000  -0.13182   2.70838
         Item               Value     Threshold  Converged?
 Maximum Force            0.034834     0.000450     NO 
 RMS     Force            0.034834     0.000300     NO 
 Maximum Displacement     0.065908     0.001800     NO 
 RMS     Displacement     0.093208     0.001200     NO 
 Predicted change in Energy=-1.107432D-03
 GradGradGradGradGradGradGradGradGradGradGradGradGradGradGradGradGradGrad

                          Input orientation:                          
 ---------------------------------------------------------------------
 Center     Atomic      Atomic             Coordinates (Angstroms)
 Number     Number       Type             X           Y           Z
 ---------------------------------------------------------------------
      1          9           0       -0.871246    1.276178    0.000000
      2          9           0       -2.304461    1.276178    0.000000
 ---------------------------------------------------------------------
 Stoichiometry    F2
 Framework group  D*H[C*(F.F)]
 Deg. of freedom     1
 Full point group                 D*H     NOp   8
 Largest Abelian subgroup         D2H     NOp   8
 Largest concise Abelian subgroup C2      NOp   2
                         Standard orientation:                         
 ---------------------------------------------------------------------
 Center     Atomic      Atomic             Coordinates (Angstroms)
 Number     Number       Type             X           Y           Z
 ---------------------------------------------------------------------
      1          9           0        0.000000    0.000000    0.716608
      2          9           0        0.000000    0.000000   -0.716608
 ---------------------------------------------------------------------
 Rotational constants (GHZ):      0.0000000     25.9004353     25.9004353
 Standard basis: 6-31+G(d) (6D, 7F)
 There are    10 symmetry adapted basis functions of AG  symmetry.
 There are     1 symmetry adapted basis functions of B1G symmetry.
 There are     4 symmetry adapted basis functions of B2G symmetry.
 There are     4 symmetry adapted basis functions of B3G symmetry.
 There are     1 symmetry adapted basis functions of AU  symmetry.
 There are    10 symmetry adapted basis functions of B1U symmetry.
 There are     4 symmetry adapted basis functions of B2U symmetry.
 There are     4 symmetry adapted basis functions of B3U symmetry.
 Integral buffers will be    262144 words long.
 Raffenetti 1 integral format.
 Two-electron integral symmetry is turned on.
    38 basis functions,    64 primitive gaussians,    38 cartesian basis functions
     9 alpha electrons        9 beta electrons
       nuclear repulsion energy        29.9071229850 Hartrees.
 NAtoms=    2 NActive=    2 NUniq=    1 SFac= 3.00D+00 NAtFMM=   80 NAOKFM=F Big=F
 One-electron integrals computed using PRISM.
 NBasis=    38 RedAO= T  NBF=    10     1     4     4     1    10     4     4
 NBsUse=    38 1.00D-06 NBFU=    10     1     4     4     1    10     4     4
 Initial guess read from the read-write file.
 B after Tr=     0.000000    0.000000    0.000000
         Rot=    1.000000    0.000000    0.000000    0.000000 Ang=   0.00 deg.
 Initial guess orbital symmetries:
       Occupied  (SGG) (SGU) (SGG) (SGU) (PIU) (PIU) (SGG) (PIG)
                 (PIG)
       Virtual   (SGU) (SGG) (SGU) (PIU) (PIU) (PIG) (PIG) (SGG)
                 (SGU) (PIU) (PIU) (SGU) (SGG) (PIG) (PIG) (PIU)
                 (PIU) (SGG) (DLTG) (DLTG) (SGG) (DLTU) (DLTU)
                 (SGU) (PIG) (PIG) (SGU) (SGG) (SGU)
 Harris functional with IExCor=  205 diagonalized for initial guess.
 ExpMin= 1.08D-01 ExpMax= 7.00D+03 ExpMxC= 1.05D+03 IAcc=1 IRadAn=         1 AccDes= 0.00D+00
 HarFok:  IExCor=  205 AccDes= 0.00D+00 IRadAn=         1 IDoV= 1
 ScaDFX=  1.000000  1.000000  1.000000  1.000000
 FoFCou: FMM=F IPFlag=           0 FMFlag=      100000 FMFlg1=           0
         NFxFlg=           0 DoJE=T BraDBF=F KetDBF=T FulRan=T
         Omega=  0.000000  0.000000  1.000000  0.000000  0.000000 ICntrl=     500 IOpCl=  0
         NMat0=    1 NMatS0=    1 NMatT0=    0 NMatD0=    1 NMtDS0=    0 NMtDT0=    0
         I1Cent=           4 NGrid=           0.
 Petite list used in FoFCou.
 Requested convergence on RMS density matrix=1.00D-08 within 128 cycles.
 Requested convergence on MAX density matrix=1.00D-06.
 Requested convergence on             energy=1.00D-06.
 No special actions if energy rises.
 Keep R1 ints in memory in canonical form, NReq=1117910.
 SCF Done:  E(RHF) =  -198.678436556     A.U. after    8 cycles
             Convg  =    0.5613D-08             -V/T =  2.0041
 ExpMin= 1.08D-01 ExpMax= 7.00D+03 ExpMxC= 1.05D+03 IAcc=1 IRadAn=         1 AccDes= 0.00D+00
 HarFok:  IExCor=  205 AccDes= 0.00D+00 IRadAn=         1 IDoV=-2
 ScaDFX=  1.000000  1.000000  1.000000  1.000000
 Range of M.O.s used for correlation:     3    38
 NBasis=    38 NAE=     9 NBE=     9 NFC=     2 NFV=     0
 NROrb=     36 NOA=     7 NOB=     7 NVA=    29 NVB=    29

 **** Warning!!: The largest alpha MO coefficient is  0.10348176D+02

 Fully direct method using O(ONN) memory.
 JobTyp=1 Pass  1:  I=   3 to   9 NPSUse=  4 ParTrn=T ParDer=T DoDerP=T.
 Spin components of T(2) and E(2):
     alpha-alpha T2 =       0.1249856285D-01 E2=     -0.4986078404D-01
     alpha-beta  T2 =       0.7731040420D-01 E2=     -0.2749053684D+00
     beta-beta   T2 =       0.1249856285D-01 E2=     -0.4986078404D-01
 ANorm=    0.1049908344D+01
 E2 =    -0.3746269365D+00 EUMP2 =    -0.19905306349282D+03
          IDoAtm=11
          Differentiating once with respect to electric field.
                with respect to dipole field.
          Differentiating once with respect to nuclear coordinates.
          Keep R1 ints in memory in canonical form, NReq=1095401.
          There are     1 degrees of freedom in the 1st order CPHF.  IDoFFX=0.
 LinEq1:  Iter=  0 NonCon=     1 RMS=1.15D-02 Max=8.19D-02
 AX will form     1 AO Fock derivatives at one time.
 LinEq1:  Iter=  1 NonCon=     1 RMS=1.63D-03 Max=1.13D-02
 LinEq1:  Iter=  2 NonCon=     1 RMS=3.20D-04 Max=1.95D-03
 LinEq1:  Iter=  3 NonCon=     1 RMS=2.74D-05 Max=2.80D-04
 LinEq1:  Iter=  4 NonCon=     1 RMS=4.15D-06 Max=2.61D-05
 LinEq1:  Iter=  5 NonCon=     1 RMS=6.16D-07 Max=4.29D-06
 LinEq1:  Iter=  6 NonCon=     1 RMS=3.71D-08 Max=2.00D-07
 LinEq1:  Iter=  7 NonCon=     1 RMS=2.02D-09 Max=1.31D-08
 LinEq1:  Iter=  8 NonCon=     0 RMS=9.77D-11 Max=7.24D-10
 Linear equations converged to 1.000D-10 1.000D-09 after     8 iterations.
 End of Minotr Frequency-dependent properties file   721 does not exist.
 End of Minotr Frequency-dependent properties file   722 does not exist.
 Calling FoFJK, ICntrl=      2127 FMM=F ISym2X=1 I1Cent= 0 IOpClX= 0 NMat=1 NMatS=1 NMatT=0.
 ***** Axes restored to original set *****
 -------------------------------------------------------------------
 Center     Atomic                   Forces (Hartrees/Bohr)
 Number     Number              X              Y              Z
 -------------------------------------------------------------------
      1        9           0.000258362    0.000000000    0.000000000
      2        9          -0.000258362    0.000000000    0.000000000
 -------------------------------------------------------------------
 Cartesian Forces:  Max     0.000258362 RMS     0.000149165

 GradGradGradGradGradGradGradGradGradGradGradGradGradGradGradGradGradGrad
 Berny optimization.
 Using GEDIIS/GDIIS optimizer.
 Internal  Forces:  Max     0.000258362 RMS     0.000258362
 Search for a local minimum.
 Step number   4 out of a maximum of   20
 All quantities printed in internal units (Hartrees-Bohrs-Radians)
 Mixed Optimization -- En-DIIS/RFO-DIIS
 Update second derivatives using D2CorX and points    3    4
 DE= -2.47D-03 DEPred=-1.11D-03 R= 2.23D+00
 SS=  1.41D+00  RLast= 1.32D-01 DXNew= 8.4853D-01 3.9545D-01
 Trust test= 2.23D+00 RLast= 1.32D-01 DXMaxT set to 5.05D-01
 The second derivative matrix:
                          R1
           R1           0.26623
 Use linear search instead of GDIIS.
     Eigenvalues ---    0.26623
 RFO step:  Lambda= 0.00000000D+00 EMin= 2.66225382D-01
 Quartic linear search produced a step of -0.00589.
 Iteration  1 RMS(Cart)=  0.00054893 RMS(Int)=  0.00000000
 Iteration  2 RMS(Cart)=  0.00000000 RMS(Int)=  0.00000000
 ClnCor:  largest displacement from symmetrization is 8.88D-16 for atom     2.
 Variable       Old X    -DE/DX   Delta X   Delta X   Delta X     New X
                                 (Linear)    (Quad)   (Total)
    R1        2.70838   0.00026   0.00078   0.00000   0.00078   2.70916
         Item               Value     Threshold  Converged?
 Maximum Force            0.000258     0.000450     YES
 RMS     Force            0.000258     0.000300     YES
 Maximum Displacement     0.000388     0.001800     YES
 RMS     Displacement     0.000549     0.001200     YES
 Predicted change in Energy=-1.203471D-07
 Optimization completed.
    -- Stationary point found.
                           ----------------------------
                           !   Optimized Parameters   !
                           ! (Angstroms and Degrees)  !
 --------------------------                            --------------------------
 ! Name  Definition              Value          Derivative Info.                !
 --------------------------------------------------------------------------------
 ! R1    R(1,2)                  1.4332         -DE/DX =    0.0003              !
 --------------------------------------------------------------------------------
 GradGradGradGradGradGradGradGradGradGradGradGradGradGradGradGradGradGrad

                          Input orientation:                          
 ---------------------------------------------------------------------
 Center     Atomic      Atomic             Coordinates (Angstroms)
 Number     Number       Type             X           Y           Z
 ---------------------------------------------------------------------
      1          9           0       -0.871246    1.276178    0.000000
      2          9           0       -2.304461    1.276178    0.000000
 ---------------------------------------------------------------------
 Stoichiometry    F2
 Framework group  D*H[C*(F.F)]
 Deg. of freedom     1
 Full point group                 D*H     NOp   8
 Largest Abelian subgroup         D2H     NOp   8
 Largest concise Abelian subgroup C2      NOp   2
                         Standard orientation:                         
 ---------------------------------------------------------------------
 Center     Atomic      Atomic             Coordinates (Angstroms)
 Number     Number       Type             X           Y           Z
 ---------------------------------------------------------------------
      1          9           0        0.000000    0.000000    0.716608
      2          9           0        0.000000    0.000000   -0.716608
 ---------------------------------------------------------------------
 Rotational constants (GHZ):      0.0000000     25.9004353     25.9004353

 **********************************************************************

            Population analysis using the SCF density.

 **********************************************************************

 Orbital symmetries:
       Occupied  (SGG) (SGU) (SGG) (SGU) (PIU) (PIU) (SGG) (PIG)
                 (PIG)
       Virtual   (SGU) (SGG) (SGU) (PIU) (PIU) (PIG) (PIG) (SGG)
                 (SGU) (PIU) (PIU) (SGU) (SGG) (PIG) (PIG) (PIU)
                 (PIU) (SGG) (DLTG) (DLTG) (DLTU) (DLTU) (SGU)
                 (SGG) (PIG) (PIG) (SGU) (SGG) (SGU)
 The electronic state is 1-SGG.
 Alpha  occ. eigenvalues --  -26.45309 -26.45284  -1.76212  -1.50870  -0.81008
 Alpha  occ. eigenvalues --   -0.81008  -0.74780  -0.67384  -0.67384
 Alpha virt. eigenvalues --    0.05259   0.22552   0.28233   0.29234   0.29234
 Alpha virt. eigenvalues --    0.36322   0.36322   0.37671   0.53238   1.60091
 Alpha virt. eigenvalues --    1.60091   1.72063   1.75062   1.80966   1.80966
 Alpha virt. eigenvalues --    1.86789   1.86789   1.89796   1.96555   1.96555
 Alpha virt. eigenvalues --    2.19798   2.19798   2.26781   2.31943   2.72757
 Alpha virt. eigenvalues --    2.72757   3.95597   4.58433   5.86806
          Condensed to atoms (all electrons):
              1          2
     1  F    8.903578   0.096422
     2  F    0.096422   8.903578
 Mulliken atomic charges:
              1
     1  F    0.000000
     2  F    0.000000
 Sum of Mulliken atomic charges =   0.00000
 Mulliken charges with hydrogens summed into heavy atoms:
              1
     1  F    0.000000
     2  F    0.000000
 Sum of Mulliken charges with hydrogens summed into heavy atoms =   0.00000
 Electronic spatial extent (au):  <R**2>=             53.7058
 Charge=              0.0000 electrons
 Dipole moment (field-independent basis, Debye):
    X=              0.0000    Y=              0.0000    Z=              0.0000  Tot=              0.0000
 Quadrupole moment (field-independent basis, Debye-Ang):
   XX=             -9.5641   YY=             -9.5641   ZZ=             -8.7096
   XY=              0.0000   XZ=              0.0000   YZ=              0.0000
 Traceless Quadrupole moment (field-independent basis, Debye-Ang):
   XX=             -0.2848   YY=             -0.2848   ZZ=              0.5696
   XY=              0.0000   XZ=              0.0000   YZ=              0.0000
 Octapole moment (field-independent basis, Debye-Ang**2):
  XXX=              0.0000  YYY=              0.0000  ZZZ=              0.0000  XYY=              0.0000
  XXY=              0.0000  XXZ=              0.0000  XZZ=              0.0000  YZZ=              0.0000
  YYZ=              0.0000  XYZ=              0.0000
 Hexadecapole moment (field-independent basis, Debye-Ang**3):
 XXXX=             -5.4584 YYYY=             -5.4584 ZZZZ=            -30.0620 XXXY=              0.0000
 XXXZ=              0.0000 YYYX=              0.0000 YYYZ=              0.0000 ZZZX=              0.0000
 ZZZY=              0.0000 XXYY=             -1.8195 XXZZ=             -6.7232 YYZZ=             -6.7232
 XXYZ=              0.0000 YYXZ=              0.0000 ZZXY=              0.0000
 N-N= 2.990712298496D+01 E-N=-5.352523544820D+02  KE= 1.978660130521D+02
 Symmetry AG   KE= 8.775011081869D+01
 Symmetry B1G  KE= 8.106057800279D-35
 Symmetry B2G  KE= 7.313472657504D+00
 Symmetry B3G  KE= 7.313472657504D+00
 Symmetry AU   KE= 1.263798681249D-34
 Symmetry B1U  KE= 8.307631945330D+01
 Symmetry B2U  KE= 6.206318732539D+00
 Symmetry B3U  KE= 6.206318732539D+00
 1|1|UNPC-DESKTOP-319GPER|FOpt|RMP2-FC|6-31+G(d)|F2|SAGAD|05-Oct-2020|0
 ||# opt freq MP2/6-31+g(d)||Fluor molecule Calculate with MP2 Method||
 0,1|F,-0.871245612,1.27617802,0.|F,-2.304461168,1.27617802,0.||Version
 =IA32W-G09RevA.02|State=1-SGG|HF=-198.6784366|MP2=-199.0530635|RMSD=5.
 613e-009|RMSF=1.492e-004|Dipole=0.,0.,0.|PG=D*H [C*(F1.F1)]||@


 NOBODY LOSES ALL THE TIME
 I HAD AN UNCLE NAMED
 SOL WHO WAS A BORN FAILURE AND
 NEARLY EVERYBODY SAID HE SHOULD HAVE GONE
 INTO VAUDEVILLE PERHAPS BECAUSE MY UNCLE SOL COULD
 SING MCCANN HE WAS A DIVER ON XMAS EVE LIKE HELL ITSELF WHICH
 MAY OR MAY NOT ACCOUNT FOR THE FACT THAT MY UNCLE
 SOL INDULGED IN THAT POSSIBLY MOST INEXCUSABLE
 OF ALL TO USE A HIGHFALOOTIN PHRASE
 LUXURIES THAT IS OR TO
 WIT FARMING AND BE
 IT NEEDLESSLY
 ADDED
 MY UNCLE SOL'S FARM
 FAILED BECAUSE THE CHICKENS
 ATE THE VEGETABLES SO
 MY UNCLE SOL HAD A
 CHICKEN FARM TILL THE
 SKUNKS ATE THE CHICKENS WHEN 
 MY UNCLE SOL
 HAD A SKUNK FARM BUT
 THE SKUNKS CAUGHT COLD AND
 DIED AND SO
 MY UNCLE SOL IMITATED THE
 SKUNKS IN A SUBTLE MANNER
 OR BY DROWNING HIMSELF IN THE WATERTANK
 BUT SOMEBODY WHO'D GIVEN MY UNCLE SOL A VICTOR
 VICTROLA AND RECORDS WHILE HE LIVED PRESENTED TO
 HIM UPON THE AUSPICIOUS OCCASION OF HIS DECEASE A
 SCRUMPTIOUS NOT TO MENTION SPLENDIFEROUS FUNERAL WITH
 TALL BOYS IN BLACK GLOVES AND FLOWERS AND EVERYTHING AND
 I REMEMBER WE ALL CRIED LIKE THE MISSOURI
 WHEN MY UNCLE SOL'S COFFIN LURCHED BECAUSE
 SOMEBODY PRESSED A BUTTON
 (AND DOWN WENT
 MY UNCLE
 SOL
 AND STARTED A WORM FARM)
           E. E. CUMMINGS
 Job cpu time:  0 days  0 hours  0 minutes 11.0 seconds.
 File lengths (MBytes):  RWF=      5 Int=      0 D2E=      0 Chk=      1 Scr=      1
 Normal termination of Gaussian 09 at Mon Oct 05 00:06:44 2020.
 Link1:  Proceeding to internal job step number  2.
 ----------------------------------------------------------------------
 #N Geom=AllCheck Guess=TCheck SCRF=Check GenChk RMP2(FC)/6-31+G(d) Fre
 q
 ----------------------------------------------------------------------
 1/10=4,29=7,30=1,38=1,40=1/1,3;
 2/12=2,40=1/2;
 3/5=1,6=6,7=11,11=1,14=-4,16=1,25=1,30=1,70=2,71=2,116=1/1,2,3;
 4/5=101/1;
 5/5=2,98=1/2;
 8/6=3,8=1,10=2,19=11,30=-1/1;
 9/15=3,16=-3/6;
 11/6=1,8=1,15=11,17=12,24=-1,27=1,28=-2,29=300,32=6,42=3/1,2,10;
 10/6=2,21=1/2;
 8/6=4,8=1,10=2,19=11,30=-1/11,4;
 10/5=1,20=4/2;
 11/12=2,14=11,16=1,17=2,28=-2,42=3/2,10,12;
 6/7=2,8=2,9=2,10=2/1;
 7/8=1,10=1,12=2,25=1,44=2/1,2,3,16;
 1/10=4,30=1/3;
 99//99;
 ----------------------------------------
 Fluor molecule Calculate with MP2 Method
 ----------------------------------------
 Redundant internal coordinates taken from checkpoint file:
 C:\Users\sagad\Documents\rayGit\FQ\quimicaComputacional\class2FluorMolecule\fluorMolecule\F2_MP2.chk
 Charge =  0 Multiplicity = 1
 F,0,-0.871245612,1.27617802,0.
 F,0,-2.304461168,1.27617802,0.
 Recover connectivity data from disk.

 GradGradGradGradGradGradGradGradGradGradGradGradGradGradGradGradGradGrad
 Berny optimization.
 Initialization pass.
                           ----------------------------
                           !    Initial Parameters    !
                           ! (Angstroms and Degrees)  !
 --------------------------                            --------------------------
 ! Name  Definition              Value          Derivative Info.                !
 --------------------------------------------------------------------------------
 ! R1    R(1,2)                  1.4332         calculate D2E/DX2 analytically  !
 --------------------------------------------------------------------------------
 Trust Radius=3.00D-01 FncErr=1.00D-07 GrdErr=1.00D-07
 Number of steps in this run=   2 maximum allowed number of steps=   2.
 GradGradGradGradGradGradGradGradGradGradGradGradGradGradGradGradGradGrad

                          Input orientation:                          
 ---------------------------------------------------------------------
 Center     Atomic      Atomic             Coordinates (Angstroms)
 Number     Number       Type             X           Y           Z
 ---------------------------------------------------------------------
      1          9           0       -0.871246    1.276178    0.000000
      2          9           0       -2.304461    1.276178    0.000000
 ---------------------------------------------------------------------
 Stoichiometry    F2
 Framework group  D*H[C*(F.F)]
 Deg. of freedom     1
 Full point group                 D*H     NOp   8
 Largest Abelian subgroup         D2H     NOp   8
 Largest concise Abelian subgroup C2      NOp   2
                         Standard orientation:                         
 ---------------------------------------------------------------------
 Center     Atomic      Atomic             Coordinates (Angstroms)
 Number     Number       Type             X           Y           Z
 ---------------------------------------------------------------------
      1          9           0        0.000000    0.000000    0.716608
      2          9           0        0.000000    0.000000   -0.716608
 ---------------------------------------------------------------------
 Rotational constants (GHZ):      0.0000000     25.9004353     25.9004353
 Standard basis: 6-31+G(d) (6D, 7F)
 There are    10 symmetry adapted basis functions of AG  symmetry.
 There are     1 symmetry adapted basis functions of B1G symmetry.
 There are     4 symmetry adapted basis functions of B2G symmetry.
 There are     4 symmetry adapted basis functions of B3G symmetry.
 There are     1 symmetry adapted basis functions of AU  symmetry.
 There are    10 symmetry adapted basis functions of B1U symmetry.
 There are     4 symmetry adapted basis functions of B2U symmetry.
 There are     4 symmetry adapted basis functions of B3U symmetry.
 Integral buffers will be    262144 words long.
 Raffenetti 1 integral format.
 Two-electron integral symmetry is turned on.
    38 basis functions,    64 primitive gaussians,    38 cartesian basis functions
     9 alpha electrons        9 beta electrons
       nuclear repulsion energy        29.9071229850 Hartrees.
 NAtoms=    2 NActive=    2 NUniq=    1 SFac= 3.00D+00 NAtFMM=   80 NAOKFM=F Big=F
 One-electron integrals computed using PRISM.
 NBasis=    38 RedAO= T  NBF=    10     1     4     4     1    10     4     4
 NBsUse=    38 1.00D-06 NBFU=    10     1     4     4     1    10     4     4
 Initial guess read from the checkpoint file:  C:\Users\sagad\Documents\rayGit\FQ
 \quimicaComputacional\class2FluorMolecule\fluorMolecule\F2_MP2.chk
 B after Tr=     0.000000    0.000000    0.000000
         Rot=    1.000000    0.000000    0.000000    0.000000 Ang=   0.00 deg.
 Initial guess orbital symmetries:
       Occupied  (SGG) (SGU) (SGG) (SGU) (PIU) (PIU) (SGG) (PIG)
                 (PIG)
       Virtual   (SGU) (SGG) (SGU) (PIU) (PIU) (PIG) (PIG) (SGG)
                 (SGU) (PIU) (PIU) (SGU) (SGG) (PIG) (PIG) (PIU)
                 (PIU) (SGG) (DLTG) (DLTG) (DLTU) (DLTU) (SGU)
                 (SGG) (PIG) (PIG) (SGU) (SGG) (SGU)
 Requested convergence on RMS density matrix=1.00D-08 within 128 cycles.
 Requested convergence on MAX density matrix=1.00D-06.
 Requested convergence on             energy=1.00D-06.
 No special actions if energy rises.
 Keep R1 ints in memory in canonical form, NReq=1117910.
 SCF Done:  E(RHF) =  -198.678436556     A.U. after    1 cycles
             Convg  =    0.1783D-09             -V/T =  2.0041
 ExpMin= 1.08D-01 ExpMax= 7.00D+03 ExpMxC= 1.05D+03 IAcc=1 IRadAn=         1 AccDes= 0.00D+00
 HarFok:  IExCor=  205 AccDes= 0.00D+00 IRadAn=         1 IDoV=-2
 ScaDFX=  1.000000  1.000000  1.000000  1.000000
 Range of M.O.s used for correlation:     3    38
 NBasis=    38 NAE=     9 NBE=     9 NFC=     2 NFV=     0
 NROrb=     36 NOA=     7 NOB=     7 NVA=    29 NVB=    29

 **** Warning!!: The largest alpha MO coefficient is  0.10348176D+02

 Disk-based method using ON**2 memory for  7 occupieds at a time.
 Permanent disk used for amplitudes=       82737 words.
 Estimated scratch disk usage=     1268388 words.
 Actual    scratch disk usage=     1268388 words.
 JobTyp=1 Pass  1:  I=   3 to   9 NPSUse=  4 ParTrn=T ParDer=T DoDerP=T.
 (rs|ai) integrals will be sorted in core.
 Spin components of T(2) and E(2):
     alpha-alpha T2 =       0.1249856286D-01 E2=     -0.4986078409D-01
     alpha-beta  T2 =       0.7731040443D-01 E2=     -0.2749053688D+00
     beta-beta   T2 =       0.1249856286D-01 E2=     -0.4986078409D-01
 ANorm=    0.1049908344D+01
 E2 =    -0.3746269370D+00 EUMP2 =    -0.19905306349329D+03
 G2DrvN: will do     3 centers at a time, making    1 passes doing MaxLOS=2.
 Calling FoFCou, ICntrl=  3107 FMM=F I1Cent=   0 AccDes= 0.00D+00.
 FoFDir/FoFCou used for L=0 through L=2.
 End of G2Drv Frequency-dependent properties file   721 does not exist.
 End of G2Drv Frequency-dependent properties file   722 does not exist.
          IDoAtm=11
          Differentiating once with respect to electric field.
                with respect to dipole field.
          Differentiating once with respect to nuclear coordinates.
          Keep R1 ints in memory in canonical form, NReq=1095401.
          There are     9 degrees of freedom in the 1st order CPHF.  IDoFFX=5.
      6 vectors produced by pass  0 Test12= 2.90D-15 1.11D-08 XBig12= 3.25D+00 1.73D+00.
 AX will form     6 AO Fock derivatives at one time.
      6 vectors produced by pass  1 Test12= 2.90D-15 1.11D-08 XBig12= 6.00D-01 3.16D-01.
      6 vectors produced by pass  2 Test12= 2.90D-15 1.11D-08 XBig12= 6.87D-02 1.13D-01.
      6 vectors produced by pass  3 Test12= 2.90D-15 1.11D-08 XBig12= 1.34D-03 2.26D-02.
      6 vectors produced by pass  4 Test12= 2.90D-15 1.11D-08 XBig12= 5.82D-06 1.16D-03.
      6 vectors produced by pass  5 Test12= 2.90D-15 1.11D-08 XBig12= 2.51D-08 7.29D-05.
      6 vectors produced by pass  6 Test12= 2.90D-15 1.11D-08 XBig12= 4.14D-11 2.72D-06.
      3 vectors produced by pass  7 Test12= 2.90D-15 1.11D-08 XBig12= 4.90D-13 2.46D-07.
      1 vectors produced by pass  8 Test12= 2.90D-15 1.11D-08 XBig12= 1.47D-15 1.33D-08.
 Inverted reduced A of dimension    46 with in-core refinement.
 End of Minotr Frequency-dependent properties file   721 does not exist.
 End of Minotr Frequency-dependent properties file   722 does not exist.
 MDV=   196608000.
 Form MO integral derivatives with frozen-active canonical formalism.
 Discarding MO integrals.
 Reordered first order wavefunction length =       136242
 In DefCFB: NBatch=  1 ICI=  9 ICA= 29 LFMax= 29
            Large arrays: LIAPS=     1507536 LIARS=     1319094 words.
 Semi-Direct transformation.
 ModeAB=           4 MOrb=             9 LenV=     196445074
 LASXX=       198765 LTotXX=      198765 LenRXX=      413766
 LTotAB=      215001 MaxLAS=      152532 LenRXY=           0
 NonZer=      612531 LenScr=     1837056 LnRSAI=      152532
 LnScr1=     1048064 LExtra=           0 Total=      3451418
 MaxDsk=          -1 SrtSym=           T ITran=            4
 JobTyp=0 Pass  1:  I=   1 to   9.
 (rs|ai) integrals will be sorted in core.
 Spin components of T(2) and E(2):
     alpha-alpha T2 =       0.1249856286D-01 E2=     -0.4986078409D-01
     alpha-beta  T2 =       0.7731040443D-01 E2=     -0.2749053688D+00
     beta-beta   T2 =       0.1249856286D-01 E2=     -0.4986078409D-01
 ANorm=    0.1484794619D+01
 E2 =    -0.3746269370D+00 EUMP2 =    -0.19905306349329D+03
          IDoAtm=11
          Differentiating once with respect to electric field.
                with respect to dipole field.
          Differentiating once with respect to nuclear coordinates.
          There are     1 degrees of freedom in the 1st order CPHF.  IDoFFX=0.
 LinEq1:  Iter=  0 NonCon=     1 RMS=1.15D-02 Max=8.19D-02
 LinEq1:  Iter=  1 NonCon=     1 RMS=1.63D-03 Max=1.13D-02
 LinEq1:  Iter=  2 NonCon=     1 RMS=3.20D-04 Max=1.95D-03
 LinEq1:  Iter=  3 NonCon=     1 RMS=2.74D-05 Max=2.80D-04
 LinEq1:  Iter=  4 NonCon=     1 RMS=4.15D-06 Max=2.61D-05
 LinEq1:  Iter=  5 NonCon=     1 RMS=6.16D-07 Max=4.29D-06
 LinEq1:  Iter=  6 NonCon=     1 RMS=3.71D-08 Max=2.00D-07
 LinEq1:  Iter=  7 NonCon=     1 RMS=2.02D-09 Max=1.31D-08
 LinEq1:  Iter=  8 NonCon=     0 RMS=9.77D-11 Max=7.24D-10
 Linear equations converged to 1.000D-10 1.000D-09 after     8 iterations.
 End of Minotr Frequency-dependent properties file   721 does not exist.
 End of Minotr Frequency-dependent properties file   722 does not exist.
 Symmetrizing basis deriv contribution to polar:
 IMax=3 JMax=2 DiffMx= 0.00D+00
 G2DrvN: will do     3 centers at a time, making    1 passes doing MaxLOS=2.
 Calling FoFCou, ICntrl=  3107 FMM=F I1Cent=   0 AccDes= 0.00D+00.
 FoFDir/FoFCou used for L=0 through L=2.
 End of G2Drv Frequency-dependent properties file   721 does not exist.
 End of G2Drv Frequency-dependent properties file   722 does not exist.
 R2 and R3 integrals will be kept in memory, NReq=     1369822.
 DD1Dir will call FoFMem   1 times, MxPair=        90
 NAB=    45 NAA=     0 NBB=     0.
 Discarding MO integrals.

 **********************************************************************

            Population analysis using the SCF density.

 **********************************************************************

 Orbital symmetries:
       Occupied  (SGG) (SGU) (SGG) (SGU) (PIU) (PIU) (SGG) (PIG)
                 (PIG)
       Virtual   (SGU) (SGG) (SGU) (PIU) (PIU) (PIG) (PIG) (SGG)
                 (SGU) (PIU) (PIU) (SGU) (SGG) (PIG) (PIG) (PIU)
                 (PIU) (SGG) (DLTG) (DLTG) (DLTU) (DLTU) (SGU)
                 (SGG) (PIG) (PIG) (SGU) (SGG) (SGU)
 The electronic state is 1-SGG.
 Alpha  occ. eigenvalues --  -26.45309 -26.45284  -1.76212  -1.50870  -0.81008
 Alpha  occ. eigenvalues --   -0.81008  -0.74780  -0.67384  -0.67384
 Alpha virt. eigenvalues --    0.05259   0.22552   0.28233   0.29234   0.29234
 Alpha virt. eigenvalues --    0.36322   0.36322   0.37671   0.53238   1.60091
 Alpha virt. eigenvalues --    1.60091   1.72063   1.75062   1.80966   1.80966
 Alpha virt. eigenvalues --    1.86789   1.86789   1.89796   1.96555   1.96555
 Alpha virt. eigenvalues --    2.19798   2.19798   2.26781   2.31943   2.72757
 Alpha virt. eigenvalues --    2.72757   3.95597   4.58433   5.86806
          Condensed to atoms (all electrons):
              1          2
     1  F    8.903578   0.096422
     2  F    0.096422   8.903578
 Mulliken atomic charges:
              1
     1  F    0.000000
     2  F    0.000000
 Sum of Mulliken atomic charges =   0.00000
 Mulliken charges with hydrogens summed into heavy atoms:
              1
     1  F    0.000000
     2  F    0.000000
 Sum of Mulliken charges with hydrogens summed into heavy atoms =   0.00000
 APT atomic charges:
              1
     1  F    0.000000
     2  F    0.000000
 Sum of APT charges=   0.00000
 APT Atomic charges with hydrogens summed into heavy atoms:
              1
     1  F    0.000000
     2  F    0.000000
 Sum of APT charges=   0.00000
 Electronic spatial extent (au):  <R**2>=             53.7058
 Charge=              0.0000 electrons
 Dipole moment (field-independent basis, Debye):
    X=              0.0000    Y=              0.0000    Z=              0.0000  Tot=              0.0000
 Quadrupole moment (field-independent basis, Debye-Ang):
   XX=             -9.5641   YY=             -9.5641   ZZ=             -8.7096
   XY=              0.0000   XZ=              0.0000   YZ=              0.0000
 Traceless Quadrupole moment (field-independent basis, Debye-Ang):
   XX=             -0.2848   YY=             -0.2848   ZZ=              0.5696
   XY=              0.0000   XZ=              0.0000   YZ=              0.0000
 Octapole moment (field-independent basis, Debye-Ang**2):
  XXX=              0.0000  YYY=              0.0000  ZZZ=              0.0000  XYY=              0.0000
  XXY=              0.0000  XXZ=              0.0000  XZZ=              0.0000  YZZ=              0.0000
  YYZ=              0.0000  XYZ=              0.0000
 Hexadecapole moment (field-independent basis, Debye-Ang**3):
 XXXX=             -5.4584 YYYY=             -5.4584 ZZZZ=            -30.0620 XXXY=              0.0000
 XXXZ=              0.0000 YYYX=              0.0000 YYYZ=              0.0000 ZZZX=              0.0000
 ZZZY=              0.0000 XXYY=             -1.8195 XXZZ=             -6.7232 YYZZ=             -6.7232
 XXYZ=              0.0000 YYXZ=              0.0000 ZZXY=              0.0000
 N-N= 2.990712298496D+01 E-N=-5.352523544951D+02  KE= 1.978660130597D+02
 Symmetry AG   KE= 8.775011083608D+01
 Symmetry B1G  KE= 8.106057824699D-35
 Symmetry B2G  KE= 7.313472646469D+00
 Symmetry B3G  KE= 7.313472646469D+00
 Symmetry AU   KE= 1.263798690441D-34
 Symmetry B1U  KE= 8.307631946323D+01
 Symmetry B2U  KE= 6.206318733728D+00
 Symmetry B3U  KE= 6.206318733728D+00
  Exact polarizability:   4.408   0.000   4.408   0.000   0.000  10.458
 Approx polarizability:   3.405   0.000   3.405   0.000   0.000  11.747
 Calling FoFJK, ICntrl=    100127 FMM=F ISym2X=1 I1Cent= 0 IOpClX= 0 NMat=1 NMatS=1 NMatT=0.
 Full mass-weighted force constant matrix:
 Low frequencies ---  -16.2902  -16.2902    0.0009    0.0020    0.0020  964.0951
 Diagonal vibrational polarizability:
        0.0000000       0.0000000       0.0000000
 Harmonic frequencies (cm**-1), IR intensities (KM/Mole), Raman scattering
 activities (A**4/AMU), depolarization ratios for plane and unpolarized
 incident light, reduced masses (AMU), force constants (mDyne/A),
 and normal coordinates:
                     1
                    SGG
 Frequencies --   964.0951
 Red. masses --    18.9984
 Frc consts  --    10.4042
 IR Inten    --     0.0000
  Atom  AN      X      Y      Z
     1   9     0.00   0.00   0.71
     2   9     0.00   0.00  -0.71

 -------------------
 - Thermochemistry -
 -------------------
 Temperature   298.150 Kelvin.  Pressure   1.00000 Atm.
 Atom     1 has atomic number  9 and mass  18.99840
 Atom     2 has atomic number  9 and mass  18.99840
 Molecular mass:    37.99681 amu.
 Principal axes and moments of inertia in atomic units:
                           1         2         3
     Eigenvalues --     0.00000  69.67996  69.67996
           X            0.00000   1.00000   0.00000
           Y            0.00000   0.00000   1.00000
           Z            1.00000   0.00000   0.00000
 This molecule is a prolate symmetric top.
 Rotational symmetry number  2.
 Rotational temperature (Kelvin)      1.24302
 Rotational constant (GHZ):          25.900435
 Zero-point vibrational energy       5766.6 (Joules/Mol)
                                    1.37824 (Kcal/Mol)
 Vibrational temperatures:   1387.12
          (Kelvin)
 
 Zero-point correction=                           0.002196 (Hartree/Particle)
 Thermal correction to Energy=                    0.004599
 Thermal correction to Enthalpy=                  0.005543
 Thermal correction to Gibbs Free Energy=        -0.017473
 Sum of electronic and zero-point Energies=           -199.050867
 Sum of electronic and thermal Energies=              -199.048464
 Sum of electronic and thermal Enthalpies=            -199.047520
 Sum of electronic and thermal Free Energies=         -199.070536
 
                     E (Thermal)             CV                S
                      KCal/Mol        Cal/Mol-Kelvin    Cal/Mol-Kelvin
 Total                    2.886              5.386             48.441
 Electronic               0.000              0.000              0.000
 Translational            0.889              2.981             36.834
 Rotational               0.592              1.987             11.500
 Vibrational              1.405              0.418              0.108
                       Q            Log10(Q)             Ln(Q)
 Total Bot       0.108869D+09          8.036906         18.505660
 Total V=0       0.111471D+10          9.047164         20.831865
 Vib (Bot)       0.986063D-01         -1.006096         -2.316621
 Vib (V=0)       0.100963D+01          0.004162          0.009584
 Electronic      0.100000D+01          0.000000          0.000000
 Translational   0.920610D+07          6.964076         16.035377
 Rotational      0.119929D+03          2.078926          4.786903
 ***** Axes restored to original set *****
 -------------------------------------------------------------------
 Center     Atomic                   Forces (Hartrees/Bohr)
 Number     Number              X              Y              Z
 -------------------------------------------------------------------
      1        9           0.000258362    0.000000000    0.000000000
      2        9          -0.000258362    0.000000000    0.000000000
 -------------------------------------------------------------------
 Cartesian Forces:  Max     0.000258362 RMS     0.000149165

 GradGradGradGradGradGradGradGradGradGradGradGradGradGradGradGradGradGrad
 Berny optimization.
 Internal  Forces:  Max     0.000258362 RMS     0.000258362
 Search for a local minimum.
 Step number   1 out of a maximum of    2
 All quantities printed in internal units (Hartrees-Bohrs-Radians)
 Second derivative matrix not updated -- analytic derivatives used.
 The second derivative matrix:
                          R1
           R1           0.33413
     Eigenvalues ---    0.33413
 Angle between quadratic step and forces=   0.00 degrees.
 Linear search not attempted -- first point.
 Iteration  1 RMS(Cart)=  0.00054676 RMS(Int)=  0.00000000
 Iteration  2 RMS(Cart)=  0.00000000 RMS(Int)=  0.00000000
 ClnCor:  largest displacement from symmetrization is 8.88D-16 for atom     2.
 Variable       Old X    -DE/DX   Delta X   Delta X   Delta X     New X
                                 (Linear)    (Quad)   (Total)
    R1        2.70838   0.00026   0.00000   0.00077   0.00077   2.70916
         Item               Value     Threshold  Converged?
 Maximum Force            0.000258     0.000450     YES
 RMS     Force            0.000258     0.000300     YES
 Maximum Displacement     0.000387     0.001800     YES
 RMS     Displacement     0.000547     0.001200     YES
 Predicted change in Energy=-9.988668D-08
 Optimization completed.
    -- Stationary point found.
                           ----------------------------
                           !   Optimized Parameters   !
                           ! (Angstroms and Degrees)  !
 --------------------------                            --------------------------
 ! Name  Definition              Value          Derivative Info.                !
 --------------------------------------------------------------------------------
 ! R1    R(1,2)                  1.4332         -DE/DX =    0.0003              !
 --------------------------------------------------------------------------------
 GradGradGradGradGradGradGradGradGradGradGradGradGradGradGradGradGradGrad

 1|1|UNPC-DESKTOP-319GPER|Freq|RMP2-FC|6-31+G(d)|F2|SAGAD|05-Oct-2020|0
 ||#N Geom=AllCheck Guess=TCheck SCRF=Check GenChk RMP2(FC)/6-31+G(d) F
 req||Fluor molecule Calculate with MP2 Method||0,1|F,-0.871245612,1.27
 617802,0.|F,-2.304461168,1.27617802,0.||Version=IA32W-G09RevA.02|State
 =1-SGG|HF=-198.6784366|MP2=-199.0530635|RMSD=1.783e-010|RMSF=1.492e-00
 4|ZeroPoint=0.0021964|Thermal=0.0045991|Dipole=0.,0.,0.|DipoleDeriv=0.
 ,0.,0.,0.,0.,0.,0.,0.,0.,0.,0.,0.,0.,0.,0.,0.,0.,0.|Polar=10.4577525,0
 .,4.4079853,0.,0.,4.4079853|PG=D*H [C*(F1.F1)]|NImag=0||0.33413215,0.,
 -0.00009540,0.,0.,-0.00009540,-0.33413215,0.,0.,0.33413215,0.,0.000095
 40,0.,0.,-0.00009540,0.,0.,0.00009540,0.,0.,-0.00009540||-0.00025836,0
 .,0.,0.00025836,0.,0.|||@


 NOBODY LOSES ALL THE TIME
 I HAD AN UNCLE NAMED
 SOL WHO WAS A BORN FAILURE AND
 NEARLY EVERYBODY SAID HE SHOULD HAVE GONE
 INTO VAUDEVILLE PERHAPS BECAUSE MY UNCLE SOL COULD
 SING MCCANN HE WAS A DIVER ON XMAS EVE LIKE HELL ITSELF WHICH
 MAY OR MAY NOT ACCOUNT FOR THE FACT THAT MY UNCLE
 SOL INDULGED IN THAT POSSIBLY MOST INEXCUSABLE
 OF ALL TO USE A HIGHFALOOTIN PHRASE
 LUXURIES THAT IS OR TO
 WIT FARMING AND BE
 IT NEEDLESSLY
 ADDED
 MY UNCLE SOL'S FARM
 FAILED BECAUSE THE CHICKENS
 ATE THE VEGETABLES SO
 MY UNCLE SOL HAD A
 CHICKEN FARM TILL THE
 SKUNKS ATE THE CHICKENS WHEN 
 MY UNCLE SOL
 HAD A SKUNK FARM BUT
 THE SKUNKS CAUGHT COLD AND
 DIED AND SO
 MY UNCLE SOL IMITATED THE
 SKUNKS IN A SUBTLE MANNER
 OR BY DROWNING HIMSELF IN THE WATERTANK
 BUT SOMEBODY WHO'D GIVEN MY UNCLE SOL A VICTOR
 VICTROLA AND RECORDS WHILE HE LIVED PRESENTED TO
 HIM UPON THE AUSPICIOUS OCCASION OF HIS DECEASE A
 SCRUMPTIOUS NOT TO MENTION SPLENDIFEROUS FUNERAL WITH
 TALL BOYS IN BLACK GLOVES AND FLOWERS AND EVERYTHING AND
 I REMEMBER WE ALL CRIED LIKE THE MISSOURI
 WHEN MY UNCLE SOL'S COFFIN LURCHED BECAUSE
 SOMEBODY PRESSED A BUTTON
 (AND DOWN WENT
 MY UNCLE
 SOL
 AND STARTED A WORM FARM)
           E. E. CUMMINGS
 Job cpu time:  0 days  0 hours  0 minutes  8.0 seconds.
 File lengths (MBytes):  RWF=     30 Int=      0 D2E=      0 Chk=      1 Scr=      1
 Normal termination of Gaussian 09 at Mon Oct 05 00:06:52 2020.
