 Entering Link 1 = C:\G09W\l1.exe PID=      8560.
  
 Copyright (c) 1988,1990,1992,1993,1995,1998,2003,2009, Gaussian, Inc.
                  All Rights Reserved.
  
 This is part of the Gaussian(R) 09 program.  It is based on
 the Gaussian(R) 03 system (copyright 2003, Gaussian, Inc.),
 the Gaussian(R) 98 system (copyright 1998, Gaussian, Inc.),
 the Gaussian(R) 94 system (copyright 1995, Gaussian, Inc.),
 the Gaussian 92(TM) system (copyright 1992, Gaussian, Inc.),
 the Gaussian 90(TM) system (copyright 1990, Gaussian, Inc.),
 the Gaussian 88(TM) system (copyright 1988, Gaussian, Inc.),
 the Gaussian 86(TM) system (copyright 1986, Carnegie Mellon
 University), and the Gaussian 82(TM) system (copyright 1983,
 Carnegie Mellon University). Gaussian is a federally registered
 trademark of Gaussian, Inc.
  
 This software contains proprietary and confidential information,
 including trade secrets, belonging to Gaussian, Inc.
  
 This software is provided under written license and may be
 used, copied, transmitted, or stored only in accord with that
 written license.
  
 The following legend is applicable only to US Government
 contracts under FAR:
  
                    RESTRICTED RIGHTS LEGEND
  
 Use, reproduction and disclosure by the US Government is
 subject to restrictions as set forth in subparagraphs (a)
 and (c) of the Commercial Computer Software - Restricted
 Rights clause in FAR 52.227-19.
  
 Gaussian, Inc.
 340 Quinnipiac St., Bldg. 40, Wallingford CT 06492
  
  
 ---------------------------------------------------------------
 Warning -- This program may not be used in any manner that
 competes with the business of Gaussian, Inc. or will provide
 assistance to any competitor of Gaussian, Inc.  The licensee
 of this program is prohibited from giving any competitor of
 Gaussian, Inc. access to this program.  By using this program,
 the user acknowledges that Gaussian, Inc. is engaged in the
 business of creating and licensing software in the field of
 computational chemistry and represents and warrants to the
 licensee that it is not a competitor of Gaussian, Inc. and that
 it will not use this program in any manner prohibited above.
 ---------------------------------------------------------------
  

 Cite this work as:
 Gaussian 09, Revision A.02,
 M. J. Frisch, G. W. Trucks, H. B. Schlegel, G. E. Scuseria, 
 M. A. Robb, J. R. Cheeseman, G. Scalmani, V. Barone, B. Mennucci, 
 G. A. Petersson, H. Nakatsuji, M. Caricato, X. Li, H. P. Hratchian, 
 A. F. Izmaylov, J. Bloino, G. Zheng, J. L. Sonnenberg, M. Hada, 
 M. Ehara, K. Toyota, R. Fukuda, J. Hasegawa, M. Ishida, T. Nakajima, 
 Y. Honda, O. Kitao, H. Nakai, T. Vreven, J. A. Montgomery, Jr., 
 J. E. Peralta, F. Ogliaro, M. Bearpark, J. J. Heyd, E. Brothers, 
 K. N. Kudin, V. N. Staroverov, R. Kobayashi, J. Normand, 
 K. Raghavachari, A. Rendell, J. C. Burant, S. S. Iyengar, J. Tomasi, 
 M. Cossi, N. Rega, J. M. Millam, M. Klene, J. E. Knox, J. B. Cross, 
 V. Bakken, C. Adamo, J. Jaramillo, R. Gomperts, R. E. Stratmann, 
 O. Yazyev, A. J. Austin, R. Cammi, C. Pomelli, J. W. Ochterski, 
 R. L. Martin, K. Morokuma, V. G. Zakrzewski, G. A. Voth, 
 P. Salvador, J. J. Dannenberg, S. Dapprich, A. D. Daniels, 
 O. Farkas, J. B. Foresman, J. V. Ortiz, J. Cioslowski, 
 and D. J. Fox, Gaussian, Inc., Wallingford CT, 2009.
 
 ******************************************
 Gaussian 09:  IA32W-G09RevA.02 11-Jun-2009
                17-Jan-2021 
 ******************************************
 %chk=D:\Documents\rayGit\FQ\quimicaComputacional\p3Eteno\estadoDeTransicion\TSET
 HENEOHRADICALM062X.chk
 %nprocshared=4
 Will use up to    4 processors via shared memory.
 %mem=1500mb
 ----------------------------------------------------------------------
 # opt=(readfc,ts,noeigen) geom=check guess=check freq=noraman 6-31+g(d
 ,p) iop(1/8=3) m062x
 ----------------------------------------------------------------------
 1/5=1,8=3,10=3,11=1,14=-1,18=20,26=3,29=2,38=1/1,3;
 2/9=110,12=2,40=1/2;
 3/5=1,6=6,7=111,11=2,14=-4,16=1,25=1,30=1,71=1,74=-55,116=-2/1,2,3;
 4/5=1/1;
 5/5=2,38=6/2;
 6/7=2,8=2,9=2,10=2,28=1/1;
 7//1,2,3,16;
 1/5=1,8=3,11=1,14=-1,18=20/3(2);
 2/9=110/2;
 99//99;
 2/9=110/2;
 3/5=1,6=6,7=111,11=2,14=-2,16=1,25=1,30=1,71=1,74=-55/1,2,3;
 4/5=5,16=3/1;
 5/5=2,38=5/2;
 7//1,2,3,16;
 1/5=1,8=3,11=1,14=-1,18=20/3(-5);
 2/9=110/2;
 6/7=2,8=2,9=2,10=2,19=2,28=1/1;
 99/9=1/99;
 -------------------------------------------------
 Transition state Ethene OH radical with M062X TWO
 -------------------------------------------------
 Redundant internal coordinates taken from checkpoint file:
 D:\Documents\rayGit\FQ\quimicaComputacional\p3Eteno\estadoDeTransicion\TSETHENEOHRADICALM062X.chk
 Charge =  0 Multiplicity = 2
 C,0,-0.4614690558,0.7483180846,0.6703147931
 H,0,0.0583492623,-0.2020858077,0.6239867302
 H,0,-1.5320402883,0.7436679503,0.5090732985
 C,0,0.2090083849,1.9108929901,0.8980257061
 H,0,-0.3343296798,2.8255801775,1.094387445
 H,0,1.2513021521,1.8961886664,1.1907137436
 O,0,0.3915009582,2.257393026,-1.1757823242
 H,0,0.7944946566,1.4043454027,-1.4065773123
 Recover connectivity data from disk.

 GradGradGradGradGradGradGradGradGradGradGradGradGradGradGradGradGradGrad
 Berny optimization.
 Initialization pass.
 Force constant matrix read from checkpoint file:
 D:\Documents\rayGit\FQ\quimicaComputacional\p3Eteno\estadoDeTransicion\TSETHENEO
 HRADICALM062X.chk
                           ----------------------------
                           !    Initial Parameters    !
                           ! (Angstroms and Degrees)  !
 --------------------------                            --------------------------
 ! Name  Definition              Value          Derivative Info.                !
 --------------------------------------------------------------------------------
 ! R1    R(1,2)                  1.0843         D2E/DX2 =    0.3989             !
 ! R2    R(1,3)                  1.0827         D2E/DX2 =    0.4029             !
 ! R3    R(1,4)                  1.3612         D2E/DX2 =    0.2659             !
 ! R4    R(1,7)                  2.5324         D2E/DX2 =    0.0197             !
 ! R5    R(1,8)                  2.5142         D2E/DX2 =    0.0167             !
 ! R6    R(4,5)                  1.0819         D2E/DX2 =    0.3998             !
 ! R7    R(4,6)                  1.0827         D2E/DX2 =    0.398              !
 ! R8    R(4,7)                  2.1105         D2E/DX2 =   -0.0678             !
 ! R9    R(4,8)                  2.4312         D2E/DX2 =    0.04               !
 ! R10   R(7,8)                  0.9713         D2E/DX2 =    0.477              !
 ! A1    A(2,1,3)              117.6417         D2E/DX2 =    0.0588             !
 ! A2    A(2,1,4)              121.3072         D2E/DX2 =    0.0589             !
 ! A3    A(2,1,7)              109.2514         D2E/DX2 =    0.0117             !
 ! A4    A(2,1,8)               87.3592         D2E/DX2 =    0.0105             !
 ! A5    A(3,1,4)              121.0398         D2E/DX2 =    0.0649             !
 ! A6    A(3,1,7)              103.1237         D2E/DX2 =    0.0131             !
 ! A7    A(3,1,8)              111.8429         D2E/DX2 =    0.011              !
 ! A8    A(1,4,5)              120.3363         D2E/DX2 =    0.1206             !
 ! A9    A(1,4,6)              120.5164         D2E/DX2 =    0.1182             !
 ! A10   A(5,4,6)              116.4806         D2E/DX2 =    0.0627             !
 ! A11   A(5,4,7)               94.7591         D2E/DX2 =    0.0228             !
 ! A12   A(5,4,8)              117.9799         D2E/DX2 =    0.0141             !
 ! A13   A(6,4,7)              100.6391         D2E/DX2 =    0.0277             !
 ! A14   A(6,4,8)               91.2372         D2E/DX2 =    0.0162             !
 ! D1    D(2,1,4,5)           -170.4459         D2E/DX2 =    0.014              !
 ! D2    D(2,1,4,6)             -9.5998         D2E/DX2 =    0.0118             !
 ! D3    D(3,1,4,5)             10.8016         D2E/DX2 =    0.0096             !
 ! D4    D(3,1,4,6)            171.6476         D2E/DX2 =    0.0129             !
 --------------------------------------------------------------------------------
 Trust Radius=3.00D-02 FncErr=1.00D-07 GrdErr=1.00D-06
 Number of steps in this run=  38 maximum allowed number of steps= 100.
 Search for a saddle point of order  1.
 GradGradGradGradGradGradGradGradGradGradGradGradGradGradGradGradGradGrad

                          Input orientation:                          
 ---------------------------------------------------------------------
 Center     Atomic      Atomic             Coordinates (Angstroms)
 Number     Number       Type             X           Y           Z
 ---------------------------------------------------------------------
      1          6           0       -0.461469    0.748318    0.670315
      2          1           0        0.058349   -0.202086    0.623987
      3          1           0       -1.532040    0.743668    0.509073
      4          6           0        0.209008    1.910893    0.898026
      5          1           0       -0.334330    2.825580    1.094387
      6          1           0        1.251302    1.896189    1.190714
      7          8           0        0.391501    2.257393   -1.175782
      8          1           0        0.794495    1.404345   -1.406577
 ---------------------------------------------------------------------
                    Distance matrix (angstroms):
                    1          2          3          4          5
     1  C    0.000000
     2  H    1.084262   0.000000
     3  H    1.082656   1.853913   0.000000
     4  C    1.361239   2.135995   2.131889   0.000000
     5  H    2.123916   3.089051   2.472137   1.081863   0.000000
     6  H    2.126501   2.479329   3.088678   1.082709   1.840455
     7  O    2.532378   3.065811   2.971551   2.110461   2.450171
     8  H    2.514219   2.691788   3.085284   2.431168   3.090142
                    6          7          8
     6  H    0.000000
     7  O    2.543625   0.000000
     8  H    2.682630   0.971267   0.000000
 Stoichiometry    C2H5O(2)
 Framework group  C1[X(C2H5O)]
 Deg. of freedom    18
 Full point group                 C1      NOp   1
 Largest Abelian subgroup         C1      NOp   1
 Largest concise Abelian subgroup C1      NOp   1
                         Standard orientation:                         
 ---------------------------------------------------------------------
 Center     Atomic      Atomic             Coordinates (Angstroms)
 Number     Number       Type             X           Y           Z
 ---------------------------------------------------------------------
      1          6           0       -1.077311   -0.495594   -0.032510
      2          1           0       -1.343303   -1.044800    0.863730
      3          1           0       -1.281128   -0.963436   -0.987353
      4          6           0       -0.485070    0.728064    0.037374
      5          1           0       -0.366097    1.329256   -0.854164
      6          1           0       -0.406598    1.247619    0.984034
      7          8           0        1.430644   -0.148811   -0.085804
      8          1           0        1.326262   -0.772973    0.651005
 ---------------------------------------------------------------------
 Rotational constants (GHZ):     25.7382754      8.5727013      7.1567535
 Standard basis: 6-31+G(d,p) (6D, 7F)
 There are    82 symmetry adapted basis functions of A   symmetry.
 Integral buffers will be    262144 words long.
 Raffenetti 2 integral format.
 Two-electron integral symmetry is turned on.
    82 basis functions,   131 primitive gaussians,    82 cartesian basis functions
    13 alpha electrons       12 beta electrons
       nuclear repulsion energy        68.9575953159 Hartrees.
 NAtoms=    8 NActive=    8 NUniq=    8 SFac= 7.50D-01 NAtFMM=   80 NAOKFM=F Big=F
 One-electron integrals computed using PRISM.
 NBasis=    82 RedAO= T  NBF=    82
 NBsUse=    82 1.00D-06 NBFU=    82
 Initial guess read from the checkpoint file:  D:\Documents\rayGit\FQ\quimicaComp
 utacional\p3Eteno\estadoDeTransicion\TSETHENEOHRADICALM062X.chk
 B after Tr=     0.000000    0.000000    0.000000
         Rot=    1.000000    0.000000    0.000000    0.000000 Ang=   0.00 deg.
 Initial guess orbital symmetries:
 Alpha Orbitals:
       Occupied  (A) (A) (A) (A) (A) (A) (A) (A) (A) (A) (A) (A)
                 (A)
       Virtual   (A) (A) (A) (A) (A) (A) (A) (A) (A) (A) (A) (A)
                 (A) (A) (A) (A) (A) (A) (A) (A) (A) (A) (A) (A)
                 (A) (A) (A) (A) (A) (A) (A) (A) (A) (A) (A) (A)
                 (A) (A) (A) (A) (A) (A) (A) (A) (A) (A) (A) (A)
                 (A) (A) (A) (A) (A) (A) (A) (A) (A) (A) (A) (A)
                 (A) (A) (A) (A) (A) (A) (A) (A) (A)
 Beta  Orbitals:
       Occupied  (A) (A) (A) (A) (A) (A) (A) (A) (A) (A) (A) (A)
       Virtual   (A) (A) (A) (A) (A) (A) (A) (A) (A) (A) (A) (A)
                 (A) (A) (A) (A) (A) (A) (A) (A) (A) (A) (A) (A)
                 (A) (A) (A) (A) (A) (A) (A) (A) (A) (A) (A) (A)
                 (A) (A) (A) (A) (A) (A) (A) (A) (A) (A) (A) (A)
                 (A) (A) (A) (A) (A) (A) (A) (A) (A) (A) (A) (A)
                 (A) (A) (A) (A) (A) (A) (A) (A) (A) (A)
 Initial guess <Sx>= 0.0000 <Sy>= 0.0000 <Sz>= 0.5000 <S**2>= 0.7727 S= 0.5113
 Requested convergence on RMS density matrix=1.00D-08 within 128 cycles.
 Requested convergence on MAX density matrix=1.00D-06.
 Requested convergence on             energy=1.00D-06.
 No special actions if energy rises.
 Keep R1 and R2 ints in memory in canonical form, NReq=12588294.
 SCF Done:  E(UM062X) =  -154.250690556     A.U. after    1 cycles
             Convg  =    0.6952D-09             -V/T =  2.0089
 <Sx>= 0.0000 <Sy>= 0.0000 <Sz>= 0.5000 <S**2>= 0.7727 S= 0.5113
 <L.S>= 0.000000000000E+00
 Annihilation of the first spin contaminant:
 S**2 before annihilation     0.7727,   after     0.7501

 **********************************************************************

            Population analysis using the SCF density.

 **********************************************************************

 Orbital symmetries:
 Alpha Orbitals:
       Occupied  (A) (A) (A) (A) (A) (A) (A) (A) (A) (A) (A) (A)
                 (A)
       Virtual   (A) (A) (A) (A) (A) (A) (A) (A) (A) (A) (A) (A)
                 (A) (A) (A) (A) (A) (A) (A) (A) (A) (A) (A) (A)
                 (A) (A) (A) (A) (A) (A) (A) (A) (A) (A) (A) (A)
                 (A) (A) (A) (A) (A) (A) (A) (A) (A) (A) (A) (A)
                 (A) (A) (A) (A) (A) (A) (A) (A) (A) (A) (A) (A)
                 (A) (A) (A) (A) (A) (A) (A) (A) (A)
 Beta  Orbitals:
       Occupied  (A) (A) (A) (A) (A) (A) (A) (A) (A) (A) (A) (A)
       Virtual   (A) (A) (A) (A) (A) (A) (A) (A) (A) (A) (A) (A)
                 (A) (A) (A) (A) (A) (A) (A) (A) (A) (A) (A) (A)
                 (A) (A) (A) (A) (A) (A) (A) (A) (A) (A) (A) (A)
                 (A) (A) (A) (A) (A) (A) (A) (A) (A) (A) (A) (A)
                 (A) (A) (A) (A) (A) (A) (A) (A) (A) (A) (A) (A)
                 (A) (A) (A) (A) (A) (A) (A) (A) (A) (A)
 The electronic state is 2-A.
 Alpha  occ. eigenvalues --  -19.66375 -10.58451 -10.57701  -1.09417  -0.88021
 Alpha  occ. eigenvalues --   -0.68793  -0.56485  -0.51573  -0.50252  -0.46231
 Alpha  occ. eigenvalues --   -0.43993  -0.38513  -0.30959
 Alpha virt. eigenvalues --    0.02159   0.03215   0.04369   0.05346   0.06389
 Alpha virt. eigenvalues --    0.08678   0.09319   0.12463   0.15813   0.16722
 Alpha virt. eigenvalues --    0.20489   0.22425   0.24340   0.27287   0.28495
 Alpha virt. eigenvalues --    0.32240   0.35383   0.37020   0.37677   0.60563
 Alpha virt. eigenvalues --    0.66490   0.72411   0.73127   0.78352   0.93271
 Alpha virt. eigenvalues --    0.94377   0.95738   1.03798   1.05127   1.07820
 Alpha virt. eigenvalues --    1.14406   1.19492   1.24902   1.28897   1.30836
 Alpha virt. eigenvalues --    1.41840   1.46070   1.55987   1.58143   1.64818
 Alpha virt. eigenvalues --    1.67660   1.85699   1.87038   1.97546   2.03626
 Alpha virt. eigenvalues --    2.05347   2.09920   2.18024   2.24138   2.25914
 Alpha virt. eigenvalues --    2.44226   2.47942   2.50399   2.52271   2.61340
 Alpha virt. eigenvalues --    2.63824   2.69072   2.72204   2.74284   2.76729
 Alpha virt. eigenvalues --    2.99613   3.19784   3.33972   3.46343   3.47047
 Alpha virt. eigenvalues --    3.70363   4.07710   4.32104   4.53690
  Beta  occ. eigenvalues --  -19.64917 -10.58484 -10.57444  -1.03945  -0.87069
  Beta  occ. eigenvalues --   -0.68292  -0.56008  -0.50083  -0.48597  -0.43795
  Beta  occ. eigenvalues --   -0.36439  -0.34807
  Beta virt. eigenvalues --   -0.07343   0.03002   0.03378   0.04620   0.05316
  Beta virt. eigenvalues --    0.06603   0.08837   0.08906   0.13107   0.15535
  Beta virt. eigenvalues --    0.16716   0.20732   0.22611   0.24872   0.27471
  Beta virt. eigenvalues --    0.28758   0.32203   0.35742   0.37285   0.38082
  Beta virt. eigenvalues --    0.60846   0.66785   0.72969   0.75114   0.79156
  Beta virt. eigenvalues --    0.94239   0.95260   0.95804   1.04985   1.06279
  Beta virt. eigenvalues --    1.08160   1.14826   1.20181   1.28955   1.30463
  Beta virt. eigenvalues --    1.32050   1.43002   1.47235   1.56983   1.59319
  Beta virt. eigenvalues --    1.65985   1.69923   1.87555   1.89669   1.98610
  Beta virt. eigenvalues --    2.05435   2.06420   2.10159   2.19174   2.24954
  Beta virt. eigenvalues --    2.26261   2.44947   2.48941   2.52033   2.53464
  Beta virt. eigenvalues --    2.61776   2.64501   2.69475   2.73263   2.74790
  Beta virt. eigenvalues --    2.77194   3.00597   3.20403   3.34757   3.46872
  Beta virt. eigenvalues --    3.47819   3.71236   4.11270   4.34049   4.54304
          Condensed to atoms (all electrons):
              1          2          3          4          5          6
     1  C    5.332102   0.383755   0.376256   0.222657  -0.020220  -0.014997
     2  H    0.383755   0.509567  -0.027381  -0.024265   0.003235  -0.005973
     3  H    0.376256  -0.027381   0.489266  -0.010908  -0.005764   0.003235
     4  C    0.222657  -0.024265  -0.010908   5.359635   0.390910   0.373193
     5  H   -0.020220   0.003235  -0.005764   0.390910   0.484256  -0.025626
     6  H   -0.014997  -0.005973   0.003235   0.373193  -0.025626   0.506855
     7  O   -0.038086  -0.001596  -0.001630   0.017989  -0.015655  -0.015468
     8  H    0.029189  -0.000045  -0.000100  -0.017649   0.001307  -0.000306
              7          8
     1  C   -0.038086   0.029189
     2  H   -0.001596  -0.000045
     3  H   -0.001630  -0.000100
     4  C    0.017989  -0.017649
     5  H   -0.015655   0.001307
     6  H   -0.015468  -0.000306
     7  O    8.281597   0.223622
     8  H    0.223622   0.437363
 Mulliken atomic charges:
              1
     1  C   -0.270657
     2  H    0.162703
     3  H    0.177025
     4  C   -0.311561
     5  H    0.187557
     6  H    0.179088
     7  O   -0.450773
     8  H    0.326618
 Sum of Mulliken atomic charges =   0.00000
 Mulliken charges with hydrogens summed into heavy atoms:
              1
     1  C    0.069071
     4  C    0.055083
     7  O   -0.124154
 Sum of Mulliken charges with hydrogens summed into heavy atoms =   0.00000
          Atomic-Atomic Spin Densities.
              1          2          3          4          5          6
     1  C    0.397252   0.002501   0.001896   0.090287  -0.001103  -0.003207
     2  H    0.002501  -0.020454   0.000410  -0.004154   0.000016   0.000037
     3  H    0.001896   0.000410  -0.019103  -0.003834   0.000050   0.000004
     4  C    0.090287  -0.004154  -0.003834  -0.136842   0.003658   0.005479
     5  H   -0.001103   0.000016   0.000050   0.003658   0.009699  -0.000005
     6  H   -0.003207   0.000037   0.000004   0.005479  -0.000005   0.005944
     7  O   -0.051947  -0.000108  -0.000208  -0.080681  -0.003656  -0.001877
     8  H   -0.000673   0.000131   0.000013   0.002765  -0.000016   0.000084
              7          8
     1  C   -0.051947  -0.000673
     2  H   -0.000108   0.000131
     3  H   -0.000208   0.000013
     4  C   -0.080681   0.002765
     5  H   -0.003656  -0.000016
     6  H   -0.001877   0.000084
     7  O    0.870976   0.007012
     8  H    0.007012  -0.033224
 Mulliken atomic spin densities:
              1
     1  C    0.435006
     2  H   -0.021621
     3  H   -0.020772
     4  C   -0.123323
     5  H    0.008644
     6  H    0.006460
     7  O    0.739513
     8  H   -0.023907
 Sum of Mulliken atomic spin densities =   1.00000
 Electronic spatial extent (au):  <R**2>=            204.0436
 Charge=              0.0000 electrons
 Dipole moment (field-independent basis, Debye):
    X=             -1.9060    Y=             -0.4802    Z=              1.2373  Tot=              2.3225
 Quadrupole moment (field-independent basis, Debye-Ang):
   XX=            -23.1306   YY=            -17.6635   ZZ=            -17.7872
   XY=             -0.3395   XZ=              1.8768   YZ=             -1.3207
 Traceless Quadrupole moment (field-independent basis, Debye-Ang):
   XX=             -3.6035   YY=              1.8636   ZZ=              1.7399
   XY=             -0.3395   XZ=              1.8768   YZ=             -1.3207
 Octapole moment (field-independent basis, Debye-Ang**2):
  XXX=              4.4051  YYY=             -0.0044  ZZZ=              0.8521  XYY=              1.3565
  XXY=             -4.3215  XXZ=              2.5472  XZZ=              0.6312  YZZ=             -0.3731
  YYZ=              0.8970  XYZ=             -1.9341
 Hexadecapole moment (field-independent basis, Debye-Ang**3):
 XXXX=           -173.7929 YYYY=            -69.2564 ZZZZ=            -33.3821 XXXY=             -1.5455
 XXXZ=              3.7198 YYYX=             -1.3075 YYYZ=             -1.9302 ZZZX=              1.8157
 ZZZY=             -1.0197 XXYY=            -37.2230 XXZZ=            -31.2741 YYZZ=            -14.2261
 XXYZ=             -2.8640 YYXZ=              1.3595 ZZXY=              0.2172
 N-N= 6.895759531586D+01 E-N=-7.407460227718D+02  KE= 2.279872228278D+02
                          Isotropic Fermi Contact Couplings
        Atom                 a.u.       MegaHertz       Gauss      10(-4) cm-1
     1  C(13)              0.07150      80.37452      28.67963      26.81005
     2  H(1)              -0.00616     -27.55179      -9.83116      -9.19029
     3  H(1)              -0.00607     -27.12594      -9.67921      -9.04824
     4  C(13)              0.00299       3.36160       1.19950       1.12131
     5  H(1)               0.00322      14.38237       5.13199       4.79744
     6  H(1)               0.00178       7.96133       2.84080       2.65561
     7  O(17)              0.16743    -101.49671     -36.21655     -33.85566
     8  H(1)              -0.01300     -58.11695     -20.73757     -19.38573
 --------------------------------------------------------
       Center         ----  Spin Dipole Couplings  ----
                      3XX-RR        3YY-RR        3ZZ-RR
 --------------------------------------------------------
     1   Atom        0.324585     -0.128378     -0.196207
     2   Atom        0.001411     -0.010946      0.009535
     3   Atom        0.000764     -0.015816      0.015052
     4   Atom       -0.052025      0.039947      0.012078
     5   Atom        0.001184      0.009007     -0.010191
     6   Atom        0.001323      0.006976     -0.008299
     7   Atom        2.677407     -1.287950     -1.389456
     8   Atom       -0.037859     -0.000821      0.038680
 --------------------------------------------------------
                        XY            XZ            YZ
 --------------------------------------------------------
     1   Atom       -0.186650      0.002728     -0.001473
     2   Atom        0.001382     -0.014472     -0.025271
     3   Atom       -0.000407      0.013828      0.022403
     4   Atom        0.014602     -0.005025      0.003362
     5   Atom       -0.005201      0.005680     -0.005119
     6   Atom       -0.003208     -0.005647      0.006468
     7   Atom       -0.569045     -0.014790      0.010049
     8   Atom       -0.000608     -0.008250     -0.123492
 --------------------------------------------------------


 ---------------------------------------------------------------------------------
              Anisotropic Spin Dipole Couplings in Principal Axis System
 ---------------------------------------------------------------------------------

       Atom             a.u.   MegaHertz   Gauss  10(-4) cm-1        Axes

              Baa    -0.1964   -26.359    -9.406    -8.792  0.1325  0.3831  0.9141
     1 C(13)  Bbb    -0.1952   -26.190    -9.345    -8.736  0.3108  0.8597 -0.4054
              Bcc     0.3916    52.549    18.751    17.529  0.9412 -0.3379  0.0052
 
              Baa    -0.0297   -15.836    -5.651    -5.282  0.2387  0.7738  0.5867
     2 H(1)   Bbb    -0.0024    -1.255    -0.448    -0.419  0.8879 -0.4186  0.1909
              Bcc     0.0320    17.092     6.099     5.701 -0.3934 -0.4754  0.7870
 
              Baa    -0.0293   -15.616    -5.572    -5.209  0.2399  0.8342 -0.4965
     3 H(1)   Bbb    -0.0024    -1.270    -0.453    -0.424  0.8970 -0.3861 -0.2153
              Bcc     0.0316    16.886     6.025     5.633  0.3713  0.3937  0.8409
 
              Baa    -0.0547    -7.345    -2.621    -2.450  0.9846 -0.1547  0.0818
     4 C(13)  Bbb     0.0123     1.652     0.589     0.551 -0.0937 -0.0713  0.9930
              Bcc     0.0424     5.693     2.031     1.899  0.1478  0.9854  0.0847
 
              Baa    -0.0129    -6.901    -2.462    -2.302 -0.3243  0.1414  0.9353
     5 H(1)   Bbb    -0.0008    -0.443    -0.158    -0.148  0.8183  0.5380  0.2024
              Bcc     0.0138     7.344     2.620     2.450 -0.4746  0.8310 -0.2901
 
              Baa    -0.0121    -6.459    -2.305    -2.154  0.3225 -0.2548  0.9116
     6 H(1)   Bbb     0.0002     0.129     0.046     0.043  0.8321  0.5353 -0.1447
              Bcc     0.0119     6.330     2.259     2.111 -0.4512  0.8053  0.3847
 
              Baa    -1.3921   100.731    35.943    33.600 -0.0397 -0.3086  0.9504
     7 O(17)  Bbb    -1.3654    98.800    35.254    32.956  0.1336  0.9409  0.3111
              Bcc     2.7575  -199.532   -71.198   -66.557  0.9902 -0.1393 -0.0039
 
              Baa    -0.1066   -56.890   -20.300   -18.976  0.0844  0.7569  0.6481
     8 H(1)   Bbb    -0.0376   -20.038    -7.150    -6.684  0.9959 -0.0852 -0.0302
              Bcc     0.1442    76.928    27.450    25.660 -0.0323 -0.6480  0.7610
 

 ---------------------------------------------------------------------------------

 Calling FoFJK, ICntrl=      2127 FMM=F ISym2X=0 I1Cent= 0 IOpClX= 1 NMat=1 NMatS=1 NMatT=0.
 ***** Axes restored to original set *****
 -------------------------------------------------------------------
 Center     Atomic                   Forces (Hartrees/Bohr)
 Number     Number              X              Y              Z
 -------------------------------------------------------------------
      1        6           0.002931689    0.005408943    0.003439538
      2        1           0.000361379   -0.001008935   -0.000721156
      3        1          -0.000768401   -0.000036285   -0.001436571
      4        6          -0.005861448   -0.009361593    0.003776794
      5        1           0.000084720    0.002667143   -0.004821604
      6        1           0.002625645    0.001125640   -0.003833683
      7        8          -0.000140894    0.001870443    0.005361409
      8        1           0.000767310   -0.000665354   -0.001764728
 -------------------------------------------------------------------
 Cartesian Forces:  Max     0.009361593 RMS     0.003415052

 GradGradGradGradGradGradGradGradGradGradGradGradGradGradGradGradGradGrad
 Berny optimization.
 Internal  Forces:  Max     0.005875852 RMS     0.002210793
 Search for a saddle point.
 Step number   1 out of a maximum of   38
 All quantities printed in internal units (Hartrees-Bohrs-Radians)
 Swaping is turned off.
 Second derivative matrix not updated -- first step.
     Eigenvalues ---   -0.10174   0.00578   0.00841   0.01665   0.01904
     Eigenvalues ---    0.02755   0.03351   0.06233   0.09460   0.09768
     Eigenvalues ---    0.14157   0.16091   0.29750   0.39816   0.39957
     Eigenvalues ---    0.40120   0.40354   0.526321000.000001000.00000
     Eigenvalues --- 1000.000001000.000001000.000001000.000001000.00000
     Eigenvalues --- 1000.000001000.000001000.00000
 Eigenvectors required to have negative eigenvalues:
                          R8        R9        R3        A6        A13
   1                    0.86220   0.26212  -0.23049  -0.17378   0.13548
                          A4        D2        R5        A3        A12
   1                   -0.13371   0.09061  -0.09047  -0.08710   0.08276
 RFO step:  Lambda0=1.676576136D-04 Lambda=-2.27798387D-03.
 Linear search not attempted -- option 19 set.
 Maximum step size (   0.030) exceeded in Quadratic search.
    -- Step size scaled by   0.084
 Iteration  1 RMS(Cart)=  0.00524901 RMS(Int)=  0.00003823
 Iteration  2 RMS(Cart)=  0.00003041 RMS(Int)=  0.00001251
 Iteration  3 RMS(Cart)=  0.00000000 RMS(Int)=  0.00001251
 Variable       Old X    -DE/DX   Delta X   Delta X   Delta X     New X
                                 (Linear)    (Quad)   (Total)
    R1        2.04896   0.00109   0.00000   0.00030   0.00030   2.04925
    R2        2.04592   0.00097   0.00000   0.00030   0.00030   2.04623
    R3        2.57237  -0.00588   0.00000  -0.00176  -0.00176   2.57061
    R4        4.78550   0.00073   0.00000   0.01197   0.01196   4.79746
    R5        4.75119   0.00095   0.00000   0.00898   0.00899   4.76018
    R6        2.04442   0.00134   0.00000   0.00027   0.00027   2.04470
    R7        2.04602   0.00147   0.00000   0.00025   0.00025   2.04627
    R8        3.98819  -0.00530   0.00000   0.00430   0.00431   3.99250
    R9        4.59424   0.00021   0.00000   0.00999   0.00998   4.60422
   R10        1.83543   0.00180   0.00000   0.00036   0.00037   1.83580
    A1        2.05324  -0.00018   0.00000  -0.00036  -0.00036   2.05288
    A2        2.11721   0.00015   0.00000   0.00015   0.00015   2.11736
    A3        1.90680   0.00015   0.00000   0.00264   0.00263   1.90942
    A4        1.52471   0.00035   0.00000   0.00435   0.00438   1.52908
    A5        2.11254   0.00000   0.00000   0.00018   0.00018   2.11272
    A6        1.79985   0.00096   0.00000  -0.00134  -0.00133   1.79852
    A7        1.95203  -0.00182   0.00000  -0.00691  -0.00693   1.94510
    A8        2.10026   0.00093   0.00000   0.00150   0.00148   2.10174
    A9        2.10341   0.00098   0.00000   0.00127   0.00124   2.10465
   A10        2.03297  -0.00077   0.00000   0.00108   0.00105   2.03402
   A11        1.65386  -0.00328   0.00000  -0.01034  -0.01033   1.64353
   A12        2.05914  -0.00331   0.00000  -0.01191  -0.01192   2.04721
   A13        1.75648  -0.00421   0.00000  -0.00609  -0.00610   1.75038
   A14        1.59239  -0.00083   0.00000   0.00000   0.00000   1.59239
    D1       -2.97484  -0.00264   0.00000  -0.00720  -0.00721  -2.98205
    D2       -0.16755   0.00115   0.00000   0.00641   0.00641  -0.16114
    D3        0.18852  -0.00118   0.00000  -0.00587  -0.00587   0.18265
    D4        2.99582   0.00260   0.00000   0.00775   0.00775   3.00356
         Item               Value     Threshold  Converged?
 Maximum Force            0.005876     0.000450     NO 
 RMS     Force            0.002211     0.000300     NO 
 Maximum Displacement     0.011857     0.001800     NO 
 RMS     Displacement     0.005264     0.001200     NO 
 Predicted change in Energy=-1.700394D-04
 GradGradGradGradGradGradGradGradGradGradGradGradGradGradGradGradGradGrad

                          Input orientation:                          
 ---------------------------------------------------------------------
 Center     Atomic      Atomic             Coordinates (Angstroms)
 Number     Number       Type             X           Y           Z
 ---------------------------------------------------------------------
      1          6           0       -0.461575    0.746765    0.672970
      2          1           0        0.057981   -0.204081    0.629161
      3          1           0       -1.531699    0.742193    0.507730
      4          6           0        0.208239    1.908620    0.900744
      5          1           0       -0.334057    2.825979    1.088113
      6          1           0        1.251525    1.895489    1.190449
      7          8           0        0.397004    2.262785   -1.173529
      8          1           0        0.789399    1.406550   -1.411496
 ---------------------------------------------------------------------
                    Distance matrix (angstroms):
                    1          2          3          4          5
     1  C    0.000000
     2  H    1.084419   0.000000
     3  H    1.082816   1.853985   0.000000
     4  C    1.360309   2.135378   2.131290   0.000000
     5  H    2.124085   3.089594   2.472519   1.082007   0.000000
     6  H    2.126514   2.479472   3.089099   1.082842   1.841292
     7  O    2.538706   3.074094   2.976361   2.112741   2.442675
     8  H    2.518978   2.700627   3.084201   2.436448   3.086257
                    6          7          8
     6  H    0.000000
     7  O    2.540375   0.000000
     8  H    2.687516   0.971464   0.000000
 Stoichiometry    C2H5O(2)
 Framework group  C1[X(C2H5O)]
 Deg. of freedom    18
 Full point group                 C1      NOp   1
 Largest Abelian subgroup         C1      NOp   1
 Largest concise Abelian subgroup C1      NOp   1
                         Standard orientation:                         
 ---------------------------------------------------------------------
 Center     Atomic      Atomic             Coordinates (Angstroms)
 Number     Number       Type             X           Y           Z
 ---------------------------------------------------------------------
      1          6           0       -1.081659   -0.492905   -0.032728
      2          1           0       -1.352114   -1.040247    0.863506
      3          1           0       -1.284021   -0.961762   -0.987565
      4          6           0       -0.485114    0.727621    0.037194
      5          1           0       -0.354867    1.325696   -0.855041
      6          1           0       -0.400955    1.246360    0.983963
      7          8           0        1.433163   -0.149358   -0.084440
      8          1           0        1.327291   -0.783477    0.643863
 ---------------------------------------------------------------------
 Rotational constants (GHZ):     25.8135572      8.5380087      7.1361699
 Standard basis: 6-31+G(d,p) (6D, 7F)
 There are    82 symmetry adapted basis functions of A   symmetry.
 Integral buffers will be    262144 words long.
 Raffenetti 2 integral format.
 Two-electron integral symmetry is turned on.
    82 basis functions,   131 primitive gaussians,    82 cartesian basis functions
    13 alpha electrons       12 beta electrons
       nuclear repulsion energy        68.9226403066 Hartrees.
 NAtoms=    8 NActive=    8 NUniq=    8 SFac= 7.50D-01 NAtFMM=   80 NAOKFM=F Big=F
 One-electron integrals computed using PRISM.
 NBasis=    82 RedAO= T  NBF=    82
 NBsUse=    82 1.00D-06 NBFU=    82
 Initial guess read from the read-write file.
 B after Tr=     0.000000    0.000000    0.000000
         Rot=    1.000000    0.000000    0.000000    0.000000 Ang=   0.00 deg.
 Initial guess orbital symmetries:
 Alpha Orbitals:
       Occupied  (A) (A) (A) (A) (A) (A) (A) (A) (A) (A) (A) (A)
                 (A)
       Virtual   (A) (A) (A) (A) (A) (A) (A) (A) (A) (A) (A) (A)
                 (A) (A) (A) (A) (A) (A) (A) (A) (A) (A) (A) (A)
                 (A) (A) (A) (A) (A) (A) (A) (A) (A) (A) (A) (A)
                 (A) (A) (A) (A) (A) (A) (A) (A) (A) (A) (A) (A)
                 (A) (A) (A) (A) (A) (A) (A) (A) (A) (A) (A) (A)
                 (A) (A) (A) (A) (A) (A) (A) (A) (A)
 Beta  Orbitals:
       Occupied  (A) (A) (A) (A) (A) (A) (A) (A) (A) (A) (A) (A)
       Virtual   (A) (A) (A) (A) (A) (A) (A) (A) (A) (A) (A) (A)
                 (A) (A) (A) (A) (A) (A) (A) (A) (A) (A) (A) (A)
                 (A) (A) (A) (A) (A) (A) (A) (A) (A) (A) (A) (A)
                 (A) (A) (A) (A) (A) (A) (A) (A) (A) (A) (A) (A)
                 (A) (A) (A) (A) (A) (A) (A) (A) (A) (A) (A) (A)
                 (A) (A) (A) (A) (A) (A) (A) (A) (A) (A)
 Initial guess <Sx>= 0.0000 <Sy>= 0.0000 <Sz>= 0.5000 <S**2>= 0.7727 S= 0.5113
 Requested convergence on RMS density matrix=1.00D-08 within 128 cycles.
 Requested convergence on MAX density matrix=1.00D-06.
 Requested convergence on             energy=1.00D-06.
 No special actions if energy rises.
 Keep R1 and R2 ints in memory in canonical form, NReq=12588294.
 SCF Done:  E(UM062X) =  -154.250860370     A.U. after   15 cycles
             Convg  =    0.3799D-08             -V/T =  2.0089
 <Sx>= 0.0000 <Sy>= 0.0000 <Sz>= 0.5000 <S**2>= 0.7725 S= 0.5112
 <L.S>= 0.000000000000E+00
 Annihilation of the first spin contaminant:
 S**2 before annihilation     0.7725,   after     0.7501
 Calling FoFJK, ICntrl=      2127 FMM=F ISym2X=0 I1Cent= 0 IOpClX= 1 NMat=1 NMatS=1 NMatT=0.
 ***** Axes restored to original set *****
 -------------------------------------------------------------------
 Center     Atomic                   Forces (Hartrees/Bohr)
 Number     Number              X              Y              Z
 -------------------------------------------------------------------
      1        6           0.002689635    0.004964334    0.003188167
      2        1           0.000326665   -0.000928467   -0.000655024
      3        1          -0.000699483   -0.000031705   -0.001332513
      4        6          -0.005422430   -0.008606448    0.003613747
      5        1           0.000122895    0.002427472   -0.004475607
      6        1           0.002401590    0.001053186   -0.003546136
      7        8          -0.000105393    0.001717374    0.004874219
      8        1           0.000686521   -0.000595745   -0.001666853
 -------------------------------------------------------------------
 Cartesian Forces:  Max     0.008606448 RMS     0.003148766

 GradGradGradGradGradGradGradGradGradGradGradGradGradGradGradGradGradGrad
 Berny optimization.
 Internal  Forces:  Max     0.005410879 RMS     0.002032942
 Search for a saddle point.
 Step number   2 out of a maximum of   38
 All quantities printed in internal units (Hartrees-Bohrs-Radians)
 Swaping is turned off.
 Update second derivatives using D2CorX and points    1    2
     Eigenvalues ---   -0.10203   0.00583   0.00842   0.01666   0.01904
     Eigenvalues ---    0.02754   0.03360   0.06222   0.09457   0.09768
     Eigenvalues ---    0.14136   0.16085   0.29719   0.39816   0.39957
     Eigenvalues ---    0.40120   0.40354   0.526311000.000001000.00000
     Eigenvalues --- 1000.000001000.000001000.000001000.000001000.00000
     Eigenvalues --- 1000.000001000.000001000.00000
 Eigenvectors required to have negative eigenvalues:
                          R8        R9        R3        A6        A13
   1                    0.86163   0.26643  -0.23101  -0.17476   0.13487
                          A4        D2        R5        A3        A12
   1                   -0.13364   0.09262  -0.08802  -0.08395   0.08058
 RFO step:  Lambda0=1.340844111D-04 Lambda=-2.00549567D-03.
 Linear search not attempted -- option 19 set.
 Maximum step size (   0.030) exceeded in Quadratic search.
    -- Step size scaled by   0.087
 Iteration  1 RMS(Cart)=  0.00540140 RMS(Int)=  0.00003989
 Iteration  2 RMS(Cart)=  0.00003169 RMS(Int)=  0.00001257
 Iteration  3 RMS(Cart)=  0.00000000 RMS(Int)=  0.00001257
 Variable       Old X    -DE/DX   Delta X   Delta X   Delta X     New X
                                 (Linear)    (Quad)   (Total)
    R1        2.04925   0.00100   0.00000   0.00028   0.00028   2.04954
    R2        2.04623   0.00089   0.00000   0.00029   0.00029   2.04652
    R3        2.57061  -0.00541   0.00000  -0.00164  -0.00164   2.56897
    R4        4.79746   0.00068   0.00000   0.01237   0.01236   4.80982
    R5        4.76018   0.00090   0.00000   0.00938   0.00939   4.76956
    R6        2.04470   0.00122   0.00000   0.00025   0.00025   2.04495
    R7        2.04627   0.00135   0.00000   0.00024   0.00024   2.04651
    R8        3.99250  -0.00481   0.00000   0.00399   0.00400   3.99651
    R9        4.60422   0.00020   0.00000   0.00986   0.00984   4.61406
   R10        1.83580   0.00165   0.00000   0.00036   0.00037   1.83617
    A1        2.05288  -0.00017   0.00000  -0.00034  -0.00034   2.05254
    A2        2.11736   0.00014   0.00000   0.00015   0.00015   2.11751
    A3        1.90942   0.00012   0.00000   0.00278   0.00276   1.91218
    A4        1.52908   0.00035   0.00000   0.00464   0.00466   1.53374
    A5        2.11272   0.00000   0.00000   0.00017   0.00017   2.11289
    A6        1.79852   0.00089   0.00000  -0.00119  -0.00118   1.79734
    A7        1.94510  -0.00170   0.00000  -0.00694  -0.00695   1.93815
    A8        2.10174   0.00084   0.00000   0.00142   0.00140   2.10314
    A9        2.10465   0.00088   0.00000   0.00117   0.00115   2.10579
   A10        2.03402  -0.00073   0.00000   0.00097   0.00094   2.03497
   A11        1.64353  -0.00301   0.00000  -0.01028  -0.01027   1.63326
   A12        2.04721  -0.00307   0.00000  -0.01193  -0.01194   2.03527
   A13        1.75038  -0.00389   0.00000  -0.00604  -0.00605   1.74433
   A14        1.59239  -0.00075   0.00000   0.00020   0.00020   1.59259
    D1       -2.98205  -0.00243   0.00000  -0.00693  -0.00693  -2.98898
    D2       -0.16114   0.00106   0.00000   0.00623   0.00623  -0.15490
    D3        0.18265  -0.00109   0.00000  -0.00567  -0.00567   0.17698
    D4        3.00356   0.00240   0.00000   0.00749   0.00749   3.01106
         Item               Value     Threshold  Converged?
 Maximum Force            0.005411     0.000450     NO 
 RMS     Force            0.002033     0.000300     NO 
 Maximum Displacement     0.012111     0.001800     NO 
 RMS     Displacement     0.005417     0.001200     NO 
 Predicted change in Energy=-1.569913D-04
 GradGradGradGradGradGradGradGradGradGradGradGradGradGradGradGradGradGrad

                          Input orientation:                          
 ---------------------------------------------------------------------
 Center     Atomic      Atomic             Coordinates (Angstroms)
 Number     Number       Type             X           Y           Z
 ---------------------------------------------------------------------
      1          6           0       -0.461715    0.745140    0.675664
      2          1           0        0.057559   -0.206151    0.634587
      3          1           0       -1.531380    0.740627    0.506475
      4          6           0        0.207480    1.906367    0.903286
      5          1           0       -0.333752    2.826294    1.081704
      6          1           0        1.251688    1.894756    1.190192
      7          8           0        0.402775    2.268303   -1.171200
      8          1           0        0.784161    1.408964   -1.416566
 ---------------------------------------------------------------------
                    Distance matrix (angstroms):
                    1          2          3          4          5
     1  C    0.000000
     2  H    1.084568   0.000000
     3  H    1.082972   1.854057   0.000000
     4  C    1.359442   2.134808   2.130738   0.000000
     5  H    2.124251   3.090107   2.472895   1.082142   0.000000
     6  H    2.126524   2.479607   3.089490   1.082968   1.842051
     7  O    2.545246   3.082688   2.981500   2.114859   2.435037
     8  H    2.523944   2.709940   3.083260   2.441656   3.082192
                    6          7          8
     6  H    0.000000
     7  O    2.536999   0.000000
     8  H    2.692538   0.971660   0.000000
 Stoichiometry    C2H5O(2)
 Framework group  C1[X(C2H5O)]
 Deg. of freedom    18
 Full point group                 C1      NOp   1
 Largest Abelian subgroup         C1      NOp   1
 Largest concise Abelian subgroup C1      NOp   1
                         Standard orientation:                         
 ---------------------------------------------------------------------
 Center     Atomic      Atomic             Coordinates (Angstroms)
 Number     Number       Type             X           Y           Z
 ---------------------------------------------------------------------
      1          6           0       -1.086203   -0.490093   -0.032913
      2          1           0       -1.361320   -1.035370    0.863340
      3          1           0       -1.287305   -0.959949   -0.987703
      4          6           0       -0.484932    0.727145    0.036970
      5          1           0       -0.343474    1.321942   -0.855912
      6          1           0       -0.395143    1.245077    0.983809
      7          8           0        1.435718   -0.149973   -0.083029
      8          1           0        1.328309   -0.794226    0.636363
 ---------------------------------------------------------------------
 Rotational constants (GHZ):     25.8932894      8.5026854      7.1152345
 Standard basis: 6-31+G(d,p) (6D, 7F)
 There are    82 symmetry adapted basis functions of A   symmetry.
 Integral buffers will be    262144 words long.
 Raffenetti 2 integral format.
 Two-electron integral symmetry is turned on.
    82 basis functions,   131 primitive gaussians,    82 cartesian basis functions
    13 alpha electrons       12 beta electrons
       nuclear repulsion energy        68.8871831122 Hartrees.
 NAtoms=    8 NActive=    8 NUniq=    8 SFac= 7.50D-01 NAtFMM=   80 NAOKFM=F Big=F
 One-electron integrals computed using PRISM.
 NBasis=    82 RedAO= T  NBF=    82
 NBsUse=    82 1.00D-06 NBFU=    82
 Initial guess read from the read-write file.
 B after Tr=     0.000000    0.000000    0.000000
         Rot=    1.000000    0.000000    0.000000    0.000000 Ang=   0.00 deg.
 Initial guess orbital symmetries:
 Alpha Orbitals:
       Occupied  (A) (A) (A) (A) (A) (A) (A) (A) (A) (A) (A) (A)
                 (A)
       Virtual   (A) (A) (A) (A) (A) (A) (A) (A) (A) (A) (A) (A)
                 (A) (A) (A) (A) (A) (A) (A) (A) (A) (A) (A) (A)
                 (A) (A) (A) (A) (A) (A) (A) (A) (A) (A) (A) (A)
                 (A) (A) (A) (A) (A) (A) (A) (A) (A) (A) (A) (A)
                 (A) (A) (A) (A) (A) (A) (A) (A) (A) (A) (A) (A)
                 (A) (A) (A) (A) (A) (A) (A) (A) (A)
 Beta  Orbitals:
       Occupied  (A) (A) (A) (A) (A) (A) (A) (A) (A) (A) (A) (A)
       Virtual   (A) (A) (A) (A) (A) (A) (A) (A) (A) (A) (A) (A)
                 (A) (A) (A) (A) (A) (A) (A) (A) (A) (A) (A) (A)
                 (A) (A) (A) (A) (A) (A) (A) (A) (A) (A) (A) (A)
                 (A) (A) (A) (A) (A) (A) (A) (A) (A) (A) (A) (A)
                 (A) (A) (A) (A) (A) (A) (A) (A) (A) (A) (A) (A)
                 (A) (A) (A) (A) (A) (A) (A) (A) (A) (A)
 Initial guess <Sx>= 0.0000 <Sy>= 0.0000 <Sz>= 0.5000 <S**2>= 0.7725 S= 0.5112
 Requested convergence on RMS density matrix=1.00D-08 within 128 cycles.
 Requested convergence on MAX density matrix=1.00D-06.
 Requested convergence on             energy=1.00D-06.
 No special actions if energy rises.
 Keep R1 and R2 ints in memory in canonical form, NReq=12588294.
 SCF Done:  E(UM062X) =  -154.251017182     A.U. after   15 cycles
             Convg  =    0.4229D-08             -V/T =  2.0089
 <Sx>= 0.0000 <Sy>= 0.0000 <Sz>= 0.5000 <S**2>= 0.7724 S= 0.5111
 <L.S>= 0.000000000000E+00
 Annihilation of the first spin contaminant:
 S**2 before annihilation     0.7724,   after     0.7501
 Calling FoFJK, ICntrl=      2127 FMM=F ISym2X=0 I1Cent= 0 IOpClX= 1 NMat=1 NMatS=1 NMatT=0.
 ***** Axes restored to original set *****
 -------------------------------------------------------------------
 Center     Atomic                   Forces (Hartrees/Bohr)
 Number     Number              X              Y              Z
 -------------------------------------------------------------------
      1        6           0.002461584    0.004546363    0.002943369
      2        1           0.000294062   -0.000850900   -0.000592378
      3        1          -0.000634381   -0.000027729   -0.001230709
      4        6          -0.005000250   -0.007885377    0.003435263
      5        1           0.000153907    0.002197719   -0.004133320
      6        1           0.002187542    0.000981288   -0.003264682
      7        8          -0.000062990    0.001562078    0.004408481
      8        1           0.000600525   -0.000523441   -0.001566024
 -------------------------------------------------------------------
 Cartesian Forces:  Max     0.007885377 RMS     0.002892263

 GradGradGradGradGradGradGradGradGradGradGradGradGradGradGradGradGradGrad
 Berny optimization.
 Internal  Forces:  Max     0.004972477 RMS     0.001863090
 Search for a saddle point.
 Step number   3 out of a maximum of   38
 All quantities printed in internal units (Hartrees-Bohrs-Radians)
 Swaping is turned off.
 Update second derivatives using D2CorX and points    1    2    3
     Eigenvalues ---   -0.10224   0.00579   0.00840   0.01658   0.01901
     Eigenvalues ---    0.02742   0.03387   0.06209   0.09452   0.09767
     Eigenvalues ---    0.14117   0.16079   0.29682   0.39816   0.39958
     Eigenvalues ---    0.40121   0.40354   0.526301000.000001000.00000
     Eigenvalues --- 1000.000001000.000001000.000001000.000001000.00000
     Eigenvalues --- 1000.000001000.000001000.00000
 Eigenvectors required to have negative eigenvalues:
                          R8        R9        R3        A6        A13
   1                    0.86090   0.27083  -0.23155  -0.17545   0.13421
                          A4        D2        R5        A3        D3
   1                   -0.13368   0.09442  -0.08619  -0.08087  -0.08008
 RFO step:  Lambda0=1.065030389D-04 Lambda=-1.76932946D-03.
 Linear search not attempted -- option 19 set.
 Maximum step size (   0.030) exceeded in Quadratic search.
    -- Step size scaled by   0.090
 Iteration  1 RMS(Cart)=  0.00565936 RMS(Int)=  0.00004469
 Iteration  2 RMS(Cart)=  0.00003515 RMS(Int)=  0.00001350
 Iteration  3 RMS(Cart)=  0.00000000 RMS(Int)=  0.00001350
 Variable       Old X    -DE/DX   Delta X   Delta X   Delta X     New X
                                 (Linear)    (Quad)   (Total)
    R1        2.04954   0.00091   0.00000   0.00027   0.00027   2.04980
    R2        2.04652   0.00081   0.00000   0.00028   0.00028   2.04680
    R3        2.56897  -0.00497   0.00000  -0.00150  -0.00150   2.56747
    R4        4.80982   0.00063   0.00000   0.01299   0.01298   4.82279
    R5        4.76956   0.00084   0.00000   0.00943   0.00944   4.77901
    R6        2.04495   0.00111   0.00000   0.00023   0.00023   2.04518
    R7        2.04651   0.00123   0.00000   0.00022   0.00022   2.04674
    R8        3.99651  -0.00435   0.00000   0.00372   0.00374   4.00024
    R9        4.61406   0.00019   0.00000   0.00977   0.00976   4.62382
   R10        1.83617   0.00150   0.00000   0.00036   0.00037   1.83654
    A1        2.05254  -0.00016   0.00000  -0.00031  -0.00031   2.05224
    A2        2.11751   0.00013   0.00000   0.00013   0.00013   2.11764
    A3        1.91218   0.00009   0.00000   0.00292   0.00290   1.91509
    A4        1.53374   0.00035   0.00000   0.00499   0.00502   1.53876
    A5        2.11289   0.00000   0.00000   0.00016   0.00015   2.11304
    A6        1.79734   0.00083   0.00000  -0.00095  -0.00093   1.79640
    A7        1.93815  -0.00159   0.00000  -0.00711  -0.00713   1.93103
    A8        2.10314   0.00076   0.00000   0.00134   0.00132   2.10446
    A9        2.10579   0.00080   0.00000   0.00106   0.00104   2.10683
   A10        2.03497  -0.00068   0.00000   0.00086   0.00083   2.03580
   A11        1.63326  -0.00275   0.00000  -0.01015  -0.01013   1.62313
   A12        2.03527  -0.00285   0.00000  -0.01193  -0.01194   2.02333
   A13        1.74433  -0.00359   0.00000  -0.00603  -0.00604   1.73829
   A14        1.59259  -0.00067   0.00000   0.00066   0.00067   1.59326
    D1       -2.98898  -0.00223   0.00000  -0.00653  -0.00654  -2.99552
    D2       -0.15490   0.00098   0.00000   0.00603   0.00603  -0.14888
    D3        0.17698  -0.00101   0.00000  -0.00543  -0.00543   0.17155
    D4        3.01106   0.00220   0.00000   0.00713   0.00714   3.01819
         Item               Value     Threshold  Converged?
 Maximum Force            0.004972     0.000450     NO 
 RMS     Force            0.001863     0.000300     NO 
 Maximum Displacement     0.012318     0.001800     NO 
 RMS     Displacement     0.005677     0.001200     NO 
 Predicted change in Energy=-1.436533D-04
 GradGradGradGradGradGradGradGradGradGradGradGradGradGradGradGradGradGrad

                          Input orientation:                          
 ---------------------------------------------------------------------
 Center     Atomic      Atomic             Coordinates (Angstroms)
 Number     Number       Type             X           Y           Z
 ---------------------------------------------------------------------
      1          6           0       -0.461856    0.743441    0.678364
      2          1           0        0.057146   -0.208284    0.640305
      3          1           0       -1.531045    0.738932    0.505249
      4          6           0        0.206729    1.904157    0.905644
      5          1           0       -0.333450    2.826523    1.075186
      6          1           0        1.251759    1.894015    1.190047
      7          8           0        0.409110    2.274051   -1.168778
      8          1           0        0.778422    1.411464   -1.421874
 ---------------------------------------------------------------------
                    Distance matrix (angstroms):
                    1          2          3          4          5
     1  C    0.000000
     2  H    1.084709   0.000000
     3  H    1.083122   1.854133   0.000000
     4  C    1.358648   2.134288   2.130240   0.000000
     5  H    2.124426   3.090589   2.473277   1.082264   0.000000
     6  H    2.126527   2.479713   3.089848   1.083086   1.842730
     7  O    2.552113   3.091706   2.987165   2.116838   2.427342
     8  H    2.528942   2.719633   3.082165   2.446819   3.077980
                    6          7          8
     6  H    0.000000
     7  O    2.533484   0.000000
     8  H    2.697969   0.971857   0.000000
 Stoichiometry    C2H5O(2)
 Framework group  C1[X(C2H5O)]
 Deg. of freedom    18
 Full point group                 C1      NOp   1
 Largest Abelian subgroup         C1      NOp   1
 Largest concise Abelian subgroup C1      NOp   1
                         Standard orientation:                         
 ---------------------------------------------------------------------
 Center     Atomic      Atomic             Coordinates (Angstroms)
 Number     Number       Type             X           Y           Z
 ---------------------------------------------------------------------
      1          6           0       -1.090988   -0.487140   -0.033071
      2          1           0       -1.370994   -1.030124    0.863231
      3          1           0       -1.291109   -0.957936   -0.987773
      4          6           0       -0.484503    0.726627    0.036706
      5          1           0       -0.331960    1.318018   -0.856761
      6          1           0       -0.389151    1.243743    0.983583
      7          8           0        1.438377   -0.150619   -0.081517
      8          1           0        1.329138   -0.805674    0.628044
 ---------------------------------------------------------------------
 Rotational constants (GHZ):     25.9784283      8.4662391      7.0935286
 Standard basis: 6-31+G(d,p) (6D, 7F)
 There are    82 symmetry adapted basis functions of A   symmetry.
 Integral buffers will be    262144 words long.
 Raffenetti 2 integral format.
 Two-electron integral symmetry is turned on.
    82 basis functions,   131 primitive gaussians,    82 cartesian basis functions
    13 alpha electrons       12 beta electrons
       nuclear repulsion energy        68.8504506869 Hartrees.
 NAtoms=    8 NActive=    8 NUniq=    8 SFac= 7.50D-01 NAtFMM=   80 NAOKFM=F Big=F
 One-electron integrals computed using PRISM.
 NBasis=    82 RedAO= T  NBF=    82
 NBsUse=    82 1.00D-06 NBFU=    82
 Initial guess read from the read-write file.
 B after Tr=     0.000000    0.000000    0.000000
         Rot=    1.000000    0.000000    0.000000    0.000000 Ang=   0.00 deg.
 Initial guess orbital symmetries:
 Alpha Orbitals:
       Occupied  (A) (A) (A) (A) (A) (A) (A) (A) (A) (A) (A) (A)
                 (A)
       Virtual   (A) (A) (A) (A) (A) (A) (A) (A) (A) (A) (A) (A)
                 (A) (A) (A) (A) (A) (A) (A) (A) (A) (A) (A) (A)
                 (A) (A) (A) (A) (A) (A) (A) (A) (A) (A) (A) (A)
                 (A) (A) (A) (A) (A) (A) (A) (A) (A) (A) (A) (A)
                 (A) (A) (A) (A) (A) (A) (A) (A) (A) (A) (A) (A)
                 (A) (A) (A) (A) (A) (A) (A) (A) (A)
 Beta  Orbitals:
       Occupied  (A) (A) (A) (A) (A) (A) (A) (A) (A) (A) (A) (A)
       Virtual   (A) (A) (A) (A) (A) (A) (A) (A) (A) (A) (A) (A)
                 (A) (A) (A) (A) (A) (A) (A) (A) (A) (A) (A) (A)
                 (A) (A) (A) (A) (A) (A) (A) (A) (A) (A) (A) (A)
                 (A) (A) (A) (A) (A) (A) (A) (A) (A) (A) (A) (A)
                 (A) (A) (A) (A) (A) (A) (A) (A) (A) (A) (A) (A)
                 (A) (A) (A) (A) (A) (A) (A) (A) (A) (A)
 Initial guess <Sx>= 0.0000 <Sy>= 0.0000 <Sz>= 0.5000 <S**2>= 0.7724 S= 0.5111
 Requested convergence on RMS density matrix=1.00D-08 within 128 cycles.
 Requested convergence on MAX density matrix=1.00D-06.
 Requested convergence on             energy=1.00D-06.
 No special actions if energy rises.
 Keep R1 and R2 ints in memory in canonical form, NReq=12588294.
 SCF Done:  E(UM062X) =  -154.251160705     A.U. after   15 cycles
             Convg  =    0.5017D-08             -V/T =  2.0089
 <Sx>= 0.0000 <Sy>= 0.0000 <Sz>= 0.5000 <S**2>= 0.7723 S= 0.5111
 <L.S>= 0.000000000000E+00
 Annihilation of the first spin contaminant:
 S**2 before annihilation     0.7723,   after     0.7501
 Calling FoFJK, ICntrl=      2127 FMM=F ISym2X=0 I1Cent= 0 IOpClX= 1 NMat=1 NMatS=1 NMatT=0.
 ***** Axes restored to original set *****
 -------------------------------------------------------------------
 Center     Atomic                   Forces (Hartrees/Bohr)
 Number     Number              X              Y              Z
 -------------------------------------------------------------------
      1        6           0.002252691    0.004167318    0.002709867
      2        1           0.000263809   -0.000776966   -0.000535032
      3        1          -0.000574144   -0.000024684   -0.001133113
      4        6          -0.004600228   -0.007211994    0.003247006
      5        1           0.000176534    0.001979458   -0.003797928
      6        1           0.001986036    0.000910995   -0.002992803
      7        8          -0.000007955    0.001399641    0.003964230
      8        1           0.000503257   -0.000443768   -0.001462226
 -------------------------------------------------------------------
 Cartesian Forces:  Max     0.007211994 RMS     0.002649242

 GradGradGradGradGradGradGradGradGradGradGradGradGradGradGradGradGradGrad
 Berny optimization.
 Internal  Forces:  Max     0.004572255 RMS     0.001703685
 Search for a saddle point.
 Step number   4 out of a maximum of   38
 All quantities printed in internal units (Hartrees-Bohrs-Radians)
 Swaping is turned off.
 Update second derivatives using D2CorX and points    1    2    3    4
     Eigenvalues ---   -0.10244   0.00565   0.00837   0.01641   0.01895
     Eigenvalues ---    0.02714   0.03439   0.06191   0.09445   0.09767
     Eigenvalues ---    0.14099   0.16074   0.29628   0.39816   0.39958
     Eigenvalues ---    0.40121   0.40354   0.526221000.000001000.00000
     Eigenvalues --- 1000.000001000.000001000.000001000.000001000.00000
     Eigenvalues --- 1000.000001000.000001000.00000
 Eigenvectors required to have negative eigenvalues:
                          R8        R9        R3        A6        A4
   1                    0.86003   0.27569  -0.23226  -0.17577  -0.13372
                          A13       D2        R5        D3        A3
   1                    0.13327   0.09610  -0.08495  -0.08162  -0.07774
 RFO step:  Lambda0=8.369443861D-05 Lambda=-1.57530169D-03.
 Linear search not attempted -- option 19 set.
 Maximum step size (   0.030) exceeded in Quadratic search.
    -- Step size scaled by   0.091
 Iteration  1 RMS(Cart)=  0.00608692 RMS(Int)=  0.00005558
 Iteration  2 RMS(Cart)=  0.00004289 RMS(Int)=  0.00001634
 Iteration  3 RMS(Cart)=  0.00000000 RMS(Int)=  0.00001634
 Variable       Old X    -DE/DX   Delta X   Delta X   Delta X     New X
                                 (Linear)    (Quad)   (Total)
    R1        2.04980   0.00083   0.00000   0.00025   0.00025   2.05005
    R2        2.04680   0.00074   0.00000   0.00027   0.00027   2.04707
    R3        2.56747  -0.00457   0.00000  -0.00134  -0.00134   2.56613
    R4        4.82279   0.00060   0.00000   0.01391   0.01389   4.83668
    R5        4.77901   0.00078   0.00000   0.00897   0.00898   4.78799
    R6        2.04518   0.00101   0.00000   0.00021   0.00021   2.04539
    R7        2.04674   0.00112   0.00000   0.00020   0.00020   2.04694
    R8        4.00024  -0.00392   0.00000   0.00347   0.00349   4.00374
    R9        4.62382   0.00020   0.00000   0.00972   0.00970   4.63352
   R10        1.83654   0.00133   0.00000   0.00036   0.00038   1.83692
    A1        2.05224  -0.00014   0.00000  -0.00027  -0.00027   2.05197
    A2        2.11764   0.00012   0.00000   0.00010   0.00010   2.11774
    A3        1.91509   0.00006   0.00000   0.00305   0.00302   1.91811
    A4        1.53876   0.00035   0.00000   0.00542   0.00546   1.54422
    A5        2.11304   0.00000   0.00000   0.00015   0.00015   2.11319
    A6        1.79640   0.00078   0.00000  -0.00055  -0.00053   1.79587
    A7        1.93103  -0.00149   0.00000  -0.00752  -0.00753   1.92349
    A8        2.10446   0.00068   0.00000   0.00125   0.00123   2.10568
    A9        2.10683   0.00072   0.00000   0.00093   0.00090   2.10773
   A10        2.03580  -0.00063   0.00000   0.00075   0.00073   2.03653
   A11        1.62313  -0.00249   0.00000  -0.00991  -0.00988   1.61325
   A12        2.02333  -0.00264   0.00000  -0.01191  -0.01193   2.01140
   A13        1.73829  -0.00331   0.00000  -0.00608  -0.00610   1.73220
   A14        1.59326  -0.00058   0.00000   0.00148   0.00149   1.59475
    D1       -2.99552  -0.00204   0.00000  -0.00600  -0.00600  -3.00152
    D2       -0.14888   0.00090   0.00000   0.00577   0.00577  -0.14311
    D3        0.17155  -0.00093   0.00000  -0.00512  -0.00512   0.16643
    D4        3.01819   0.00201   0.00000   0.00664   0.00665   3.02484
         Item               Value     Threshold  Converged?
 Maximum Force            0.004572     0.000450     NO 
 RMS     Force            0.001704     0.000300     NO 
 Maximum Displacement     0.013892     0.001800     NO 
 RMS     Displacement     0.006108     0.001200     NO 
 Predicted change in Energy=-1.304028D-04
 GradGradGradGradGradGradGradGradGradGradGradGradGradGradGradGradGradGrad

                          Input orientation:                          
 ---------------------------------------------------------------------
 Center     Atomic      Atomic             Coordinates (Angstroms)
 Number     Number       Type             X           Y           Z
 ---------------------------------------------------------------------
      1          6           0       -0.461949    0.741668    0.681022
      2          1           0        0.056836   -0.210455    0.646354
      3          1           0       -1.530636    0.737059    0.503969
      4          6           0        0.205985    1.902027    0.907804
      5          1           0       -0.333213    2.826661    1.068589
      6          1           0        1.251694    1.893310    1.190153
      7          8           0        0.416461    2.280160   -1.166215
      8          1           0        0.771640    1.413871   -1.427535
 ---------------------------------------------------------------------
                    Distance matrix (angstroms):
                    1          2          3          4          5
     1  C    0.000000
     2  H    1.084840   0.000000
     3  H    1.083264   1.854218   0.000000
     4  C    1.357939   2.133819   2.129809   0.000000
     5  H    2.124612   3.091035   2.473673   1.082374   0.000000
     6  H    2.126515   2.479764   3.090166   1.083192   1.843326
     7  O    2.559462   3.101274   2.993637   2.118688   2.419716
     8  H    2.533695   2.729541   3.080463   2.451952   3.073648
                    6          7          8
     6  H    0.000000
     7  O    2.529770   0.000000
     8  H    2.704182   0.972057   0.000000
 Stoichiometry    C2H5O(2)
 Framework group  C1[X(C2H5O)]
 Deg. of freedom    18
 Full point group                 C1      NOp   1
 Largest Abelian subgroup         C1      NOp   1
 Largest concise Abelian subgroup C1      NOp   1
                         Standard orientation:                         
 ---------------------------------------------------------------------
 Center     Atomic      Atomic             Coordinates (Angstroms)
 Number     Number       Type             X           Y           Z
 ---------------------------------------------------------------------
      1          6           0       -1.096080   -0.484011   -0.033197
      2          1           0       -1.381207   -1.024447    0.863190
      3          1           0       -1.295639   -0.955625   -0.987774
      4          6           0       -0.483785    0.726051    0.036405
      5          1           0       -0.320391    1.313955   -0.857578
      6          1           0       -0.382916    1.242317    0.983294
      7          8           0        1.441230   -0.151245   -0.079820
      8          1           0        1.329502   -0.818487    0.618178
 ---------------------------------------------------------------------
 Rotational constants (GHZ):     26.0704643      8.4280849      7.0705389
 Standard basis: 6-31+G(d,p) (6D, 7F)
 There are    82 symmetry adapted basis functions of A   symmetry.
 Integral buffers will be    262144 words long.
 Raffenetti 2 integral format.
 Two-electron integral symmetry is turned on.
    82 basis functions,   131 primitive gaussians,    82 cartesian basis functions
    13 alpha electrons       12 beta electrons
       nuclear repulsion energy        68.8115823781 Hartrees.
 NAtoms=    8 NActive=    8 NUniq=    8 SFac= 7.50D-01 NAtFMM=   80 NAOKFM=F Big=F
 One-electron integrals computed using PRISM.
 NBasis=    82 RedAO= T  NBF=    82
 NBsUse=    82 1.00D-06 NBFU=    82
 Initial guess read from the read-write file.
 B after Tr=     0.000000    0.000000    0.000000
         Rot=    1.000000    0.000000    0.000000    0.000000 Ang=   0.00 deg.
 Initial guess orbital symmetries:
 Alpha Orbitals:
       Occupied  (A) (A) (A) (A) (A) (A) (A) (A) (A) (A) (A) (A)
                 (A)
       Virtual   (A) (A) (A) (A) (A) (A) (A) (A) (A) (A) (A) (A)
                 (A) (A) (A) (A) (A) (A) (A) (A) (A) (A) (A) (A)
                 (A) (A) (A) (A) (A) (A) (A) (A) (A) (A) (A) (A)
                 (A) (A) (A) (A) (A) (A) (A) (A) (A) (A) (A) (A)
                 (A) (A) (A) (A) (A) (A) (A) (A) (A) (A) (A) (A)
                 (A) (A) (A) (A) (A) (A) (A) (A) (A)
 Beta  Orbitals:
       Occupied  (A) (A) (A) (A) (A) (A) (A) (A) (A) (A) (A) (A)
       Virtual   (A) (A) (A) (A) (A) (A) (A) (A) (A) (A) (A) (A)
                 (A) (A) (A) (A) (A) (A) (A) (A) (A) (A) (A) (A)
                 (A) (A) (A) (A) (A) (A) (A) (A) (A) (A) (A) (A)
                 (A) (A) (A) (A) (A) (A) (A) (A) (A) (A) (A) (A)
                 (A) (A) (A) (A) (A) (A) (A) (A) (A) (A) (A) (A)
                 (A) (A) (A) (A) (A) (A) (A) (A) (A) (A)
 Initial guess <Sx>= 0.0000 <Sy>= 0.0000 <Sz>= 0.5000 <S**2>= 0.7723 S= 0.5111
 Requested convergence on RMS density matrix=1.00D-08 within 128 cycles.
 Requested convergence on MAX density matrix=1.00D-06.
 Requested convergence on             energy=1.00D-06.
 No special actions if energy rises.
 Keep R1 and R2 ints in memory in canonical form, NReq=12588294.
 SCF Done:  E(UM062X) =  -154.251290986     A.U. after   15 cycles
             Convg  =    0.6539D-08             -V/T =  2.0089
 <Sx>= 0.0000 <Sy>= 0.0000 <Sz>= 0.5000 <S**2>= 0.7722 S= 0.5111
 <L.S>= 0.000000000000E+00
 Annihilation of the first spin contaminant:
 S**2 before annihilation     0.7722,   after     0.7501
 Calling FoFJK, ICntrl=      2127 FMM=F ISym2X=0 I1Cent= 0 IOpClX= 1 NMat=1 NMatS=1 NMatT=0.
 ***** Axes restored to original set *****
 -------------------------------------------------------------------
 Center     Atomic                   Forces (Hartrees/Bohr)
 Number     Number              X              Y              Z
 -------------------------------------------------------------------
      1        6           0.002068493    0.003839987    0.002491998
      2        1           0.000236123   -0.000707629   -0.000484648
      3        1          -0.000519962   -0.000022901   -0.001041793
      4        6          -0.004229242   -0.006601834    0.003056017
      5        1           0.000190422    0.001775404   -0.003474360
      6        1           0.001800259    0.000843856   -0.002734877
      7        8           0.000060774    0.001224229    0.003540179
      8        1           0.000393132   -0.000351110   -0.001352516
 -------------------------------------------------------------------
 Cartesian Forces:  Max     0.006601834 RMS     0.002424066

 GradGradGradGradGradGradGradGradGradGradGradGradGradGradGradGradGradGrad
 Berny optimization.
 Internal  Forces:  Max     0.004220702 RMS     0.001556628
 Search for a saddle point.
 Step number   5 out of a maximum of   38
 All quantities printed in internal units (Hartrees-Bohrs-Radians)
 Swaping is turned off.
 Update second derivatives using D2CorX and points    1    2    3    4    5
     Eigenvalues ---   -0.10262   0.00543   0.00834   0.01616   0.01887
     Eigenvalues ---    0.02678   0.03516   0.06175   0.09436   0.09766
     Eigenvalues ---    0.14083   0.16068   0.29567   0.39816   0.39958
     Eigenvalues ---    0.40121   0.40354   0.526121000.000001000.00000
     Eigenvalues --- 1000.000001000.000001000.000001000.000001000.00000
     Eigenvalues --- 1000.000001000.000001000.00000
 Eigenvectors required to have negative eigenvalues:
                          R8        R9        R3        A6        A4
   1                    0.85914   0.28175  -0.23295  -0.17583  -0.13327
                          A13       D2        D3        R5        A14
   1                    0.13172   0.09814  -0.08343  -0.08337  -0.07449
 RFO step:  Lambda0=6.434198028D-05 Lambda=-1.41691015D-03.
 Linear search not attempted -- option 19 set.
 Maximum step size (   0.030) exceeded in Quadratic search.
    -- Step size scaled by   0.091
 Iteration  1 RMS(Cart)=  0.00668658 RMS(Int)=  0.00007458
 Iteration  2 RMS(Cart)=  0.00005639 RMS(Int)=  0.00002194
 Iteration  3 RMS(Cart)=  0.00000001 RMS(Int)=  0.00002194
 Variable       Old X    -DE/DX   Delta X   Delta X   Delta X     New X
                                 (Linear)    (Quad)   (Total)
    R1        2.05005   0.00076   0.00000   0.00023   0.00023   2.05028
    R2        2.04707   0.00067   0.00000   0.00026   0.00026   2.04733
    R3        2.56613  -0.00422   0.00000  -0.00118  -0.00117   2.56496
    R4        4.83668   0.00056   0.00000   0.01501   0.01498   4.85166
    R5        4.78799   0.00070   0.00000   0.00799   0.00801   4.79600
    R6        2.04539   0.00091   0.00000   0.00018   0.00018   2.04557
    R7        2.04694   0.00101   0.00000   0.00017   0.00017   2.04710
    R8        4.00374  -0.00351   0.00000   0.00317   0.00320   4.00694
    R9        4.63352   0.00021   0.00000   0.00959   0.00955   4.64307
   R10        1.83692   0.00116   0.00000   0.00035   0.00038   1.83730
    A1        2.05197  -0.00013   0.00000  -0.00022  -0.00022   2.05175
    A2        2.11774   0.00011   0.00000   0.00006   0.00006   2.11780
    A3        1.91811   0.00002   0.00000   0.00311   0.00307   1.92118
    A4        1.54422   0.00035   0.00000   0.00591   0.00596   1.55017
    A5        2.11319   0.00000   0.00000   0.00015   0.00015   2.11333
    A6        1.79587   0.00074   0.00000   0.00000   0.00002   1.79589
    A7        1.92349  -0.00140   0.00000  -0.00810  -0.00812   1.91537
    A8        2.10568   0.00060   0.00000   0.00113   0.00112   2.10680
    A9        2.10773   0.00065   0.00000   0.00077   0.00075   2.10849
   A10        2.03653  -0.00058   0.00000   0.00066   0.00064   2.03717
   A11        1.61325  -0.00224   0.00000  -0.00953  -0.00949   1.60376
   A12        2.01140  -0.00244   0.00000  -0.01186  -0.01190   1.99950
   A13        1.73220  -0.00307   0.00000  -0.00624  -0.00626   1.72593
   A14        1.59475  -0.00048   0.00000   0.00261   0.00262   1.59737
    D1       -3.00152  -0.00186   0.00000  -0.00536  -0.00537  -3.00689
    D2       -0.14311   0.00082   0.00000   0.00543   0.00542  -0.13769
    D3        0.16643  -0.00085   0.00000  -0.00474  -0.00474   0.16169
    D4        3.02484   0.00183   0.00000   0.00605   0.00605   3.03089
         Item               Value     Threshold  Converged?
 Maximum Force            0.004221     0.000450     NO 
 RMS     Force            0.001557     0.000300     NO 
 Maximum Displacement     0.016613     0.001800     NO 
 RMS     Displacement     0.006714     0.001200     NO 
 Predicted change in Energy=-1.180059D-04
 GradGradGradGradGradGradGradGradGradGradGradGradGradGradGradGradGradGrad

                          Input orientation:                          
 ---------------------------------------------------------------------
 Center     Atomic      Atomic             Coordinates (Angstroms)
 Number     Number       Type             X           Y           Z
 ---------------------------------------------------------------------
      1          6           0       -0.461951    0.739825    0.683601
      2          1           0        0.056707   -0.212637    0.652728
      3          1           0       -1.530108    0.734964    0.502574
      4          6           0        0.205243    1.900011    0.909739
      5          1           0       -0.333112    2.826700    1.061942
      6          1           0        1.251457    1.892694    1.190595
      7          8           0        0.425252    2.286690   -1.163443
      8          1           0        0.763327    1.416053   -1.433595
 ---------------------------------------------------------------------
                    Distance matrix (angstroms):
                    1          2          3          4          5
     1  C    0.000000
     2  H    1.084962   0.000000
     3  H    1.083399   1.854313   0.000000
     4  C    1.357321   2.133401   2.129451   0.000000
     5  H    2.124804   3.091437   2.474076   1.082471   0.000000
     6  H    2.126480   2.479747   3.090440   1.083281   1.843849
     7  O    2.567390   3.111420   3.001150   2.120379   2.412274
     8  H    2.537934   2.739468   3.077738   2.457008   3.069170
                    6          7          8
     6  H    0.000000
     7  O    2.525736   0.000000
     8  H    2.711426   0.972258   0.000000
 Stoichiometry    C2H5O(2)
 Framework group  C1[X(C2H5O)]
 Deg. of freedom    18
 Full point group                 C1      NOp   1
 Largest Abelian subgroup         C1      NOp   1
 Largest concise Abelian subgroup C1      NOp   1
                         Standard orientation:                         
 ---------------------------------------------------------------------
 Center     Atomic      Atomic             Coordinates (Angstroms)
 Number     Number       Type             X           Y           Z
 ---------------------------------------------------------------------
      1          6           0       -1.101527   -0.480665   -0.033275
      2          1           0       -1.391951   -1.018295    0.863246
      3          1           0       -1.301099   -0.952921   -0.987686
      4          6           0       -0.482724    0.725400    0.036063
      5          1           0       -0.308850    1.309771   -0.858377
      6          1           0       -0.376324    1.240757    0.982944
      7          8           0        1.444325   -0.151818   -0.077865
      8          1           0        1.329128   -0.833182    0.606064
 ---------------------------------------------------------------------
 Rotational constants (GHZ):     26.1709790      8.3879941      7.0460314
 Standard basis: 6-31+G(d,p) (6D, 7F)
 There are    82 symmetry adapted basis functions of A   symmetry.
 Integral buffers will be    262144 words long.
 Raffenetti 2 integral format.
 Two-electron integral symmetry is turned on.
    82 basis functions,   131 primitive gaussians,    82 cartesian basis functions
    13 alpha electrons       12 beta electrons
       nuclear repulsion energy        68.7704311298 Hartrees.
 NAtoms=    8 NActive=    8 NUniq=    8 SFac= 7.50D-01 NAtFMM=   80 NAOKFM=F Big=F
 One-electron integrals computed using PRISM.
 NBasis=    82 RedAO= T  NBF=    82
 NBsUse=    82 1.00D-06 NBFU=    82
 Initial guess read from the read-write file.
 B after Tr=     0.000000    0.000000    0.000000
         Rot=    1.000000    0.000000    0.000000    0.000000 Ang=   0.00 deg.
 Initial guess orbital symmetries:
 Alpha Orbitals:
       Occupied  (A) (A) (A) (A) (A) (A) (A) (A) (A) (A) (A) (A)
                 (A)
       Virtual   (A) (A) (A) (A) (A) (A) (A) (A) (A) (A) (A) (A)
                 (A) (A) (A) (A) (A) (A) (A) (A) (A) (A) (A) (A)
                 (A) (A) (A) (A) (A) (A) (A) (A) (A) (A) (A) (A)
                 (A) (A) (A) (A) (A) (A) (A) (A) (A) (A) (A) (A)
                 (A) (A) (A) (A) (A) (A) (A) (A) (A) (A) (A) (A)
                 (A) (A) (A) (A) (A) (A) (A) (A) (A)
 Beta  Orbitals:
       Occupied  (A) (A) (A) (A) (A) (A) (A) (A) (A) (A) (A) (A)
       Virtual   (A) (A) (A) (A) (A) (A) (A) (A) (A) (A) (A) (A)
                 (A) (A) (A) (A) (A) (A) (A) (A) (A) (A) (A) (A)
                 (A) (A) (A) (A) (A) (A) (A) (A) (A) (A) (A) (A)
                 (A) (A) (A) (A) (A) (A) (A) (A) (A) (A) (A) (A)
                 (A) (A) (A) (A) (A) (A) (A) (A) (A) (A) (A) (A)
                 (A) (A) (A) (A) (A) (A) (A) (A) (A) (A)
 Initial guess <Sx>= 0.0000 <Sy>= 0.0000 <Sz>= 0.5000 <S**2>= 0.7722 S= 0.5110
 Requested convergence on RMS density matrix=1.00D-08 within 128 cycles.
 Requested convergence on MAX density matrix=1.00D-06.
 Requested convergence on             energy=1.00D-06.
 No special actions if energy rises.
 Keep R1 and R2 ints in memory in canonical form, NReq=12588294.
 SCF Done:  E(UM062X) =  -154.251408847     A.U. after   15 cycles
             Convg  =    0.9857D-08             -V/T =  2.0089
 <Sx>= 0.0000 <Sy>= 0.0000 <Sz>= 0.5000 <S**2>= 0.7722 S= 0.5110
 <L.S>= 0.000000000000E+00
 Annihilation of the first spin contaminant:
 S**2 before annihilation     0.7722,   after     0.7501
 Calling FoFJK, ICntrl=      2127 FMM=F ISym2X=0 I1Cent= 0 IOpClX= 1 NMat=1 NMatS=1 NMatT=0.
 ***** Axes restored to original set *****
 -------------------------------------------------------------------
 Center     Atomic                   Forces (Hartrees/Bohr)
 Number     Number              X              Y              Z
 -------------------------------------------------------------------
      1        6           0.001909123    0.003565386    0.002289870
[...]
     6   1    -0.27  -0.39   0.12    -0.25  -0.40   0.15    -0.17  -0.37   0.27
     7   8     0.00   0.00   0.00    -0.01   0.01   0.00     0.00   0.00   0.00
     8   1     0.00   0.00   0.00    -0.02   0.01   0.01     0.01   0.00   0.00
                    13                     14                     15
                     A                      A                      A
 Frequencies --  1629.1898              3166.5993              3195.1715
 Red. masses --     2.2228                 1.0542                 1.0608
 Frc consts  --     3.4761                 6.2284                 6.3806
 IR Inten    --    58.9969                10.9809                12.2376
  Atom  AN      X      Y      Z        X      Y      Z        X      Y      Z
     1   6     0.12   0.20   0.01     0.03   0.06   0.00    -0.01  -0.01   0.00
     2   1    -0.14  -0.25  -0.35    -0.22  -0.33   0.62     0.02   0.04  -0.07
     3   1    -0.16  -0.26   0.33    -0.14  -0.28  -0.58     0.02   0.04   0.07
     4   6    -0.09  -0.22  -0.01     0.00   0.00   0.00     0.03   0.06   0.01
     5   1     0.09   0.30   0.37    -0.02  -0.04   0.07    -0.16  -0.32   0.56
     6   1     0.11   0.31  -0.36    -0.02  -0.04  -0.09    -0.13  -0.34  -0.64
     7   8    -0.01   0.01   0.00     0.00   0.00   0.00     0.00   0.00   0.00
     8   1    -0.02   0.00   0.00     0.00   0.00   0.00     0.00   0.00   0.00
                    16                     17                     18
                     A                      A                      A
 Frequencies --  3259.6567              3294.2039              3792.1225
 Red. masses --     1.1173                 1.1189                 1.0676
 Frc consts  --     6.9949                 7.1540                 9.0454
 IR Inten    --     2.4802                 3.7533                33.4368
  Atom  AN      X      Y      Z        X      Y      Z        X      Y      Z
     1   6     0.00   0.00   0.09     0.00   0.00   0.04     0.00   0.00   0.00
     2   1     0.19   0.28  -0.51     0.08   0.11  -0.20     0.00   0.00   0.00
     3   1    -0.16  -0.31  -0.60    -0.06  -0.12  -0.22     0.00   0.00   0.00
     4   6     0.00   0.00  -0.04     0.00   0.00   0.09     0.00   0.00   0.00
     5   1    -0.07  -0.13   0.23     0.17   0.34  -0.57     0.00   0.00   0.00
     6   1     0.04   0.11   0.20    -0.11  -0.29  -0.54     0.00   0.00   0.00
     7   8     0.00   0.00   0.00     0.00   0.00   0.00     0.01   0.06  -0.02
     8   1     0.00   0.00   0.00     0.00   0.00   0.00    -0.18  -0.91   0.36

 -------------------
 - Thermochemistry -
 -------------------
 Temperature   298.150 Kelvin.  Pressure   1.00000 Atm.
 Atom     1 has atomic number  6 and mass  12.00000
 Atom     2 has atomic number  1 and mass   1.00783
 Atom     3 has atomic number  1 and mass   1.00783
 Atom     4 has atomic number  6 and mass  12.00000
 Atom     5 has atomic number  1 and mass   1.00783
 Atom     6 has atomic number  1 and mass   1.00783
 Atom     7 has atomic number  8 and mass  15.99491
 Atom     8 has atomic number  1 and mass   1.00783
 Molecular mass:    45.03404 amu.
 Principal axes and moments of inertia in atomic units:
                           1         2         3
     Eigenvalues --    64.89410 225.92250 265.26854
           X            0.99984   0.01708   0.00583
           Y           -0.01697   0.99970  -0.01784
           Z           -0.00614   0.01773   0.99982
 This molecule is an asymmetric top.
 Rotational symmetry number  1.
 Rotational temperatures (Kelvin)      1.33469     0.38338     0.32651
 Rotational constants (GHZ):          27.81056     7.98832     6.80345
    1 imaginary frequencies ignored.
 Zero-point vibrational energy     165678.2 (Joules/Mol)
                                   39.59804 (Kcal/Mol)
 Warning -- explicit consideration of   3 degrees of freedom as
           vibrations may cause significant error
 Vibrational temperatures:    256.82   327.65   552.62  1037.55  1180.53
          (Kelvin)           1356.58  1457.58  1475.50  1775.73  1932.29
                             2117.38  2344.04  4556.02  4597.13  4689.91
                             4739.62  5456.01
 
 Zero-point correction=                           0.063103 (Hartree/Particle)
 Thermal correction to Energy=                    0.067699
 Thermal correction to Enthalpy=                  0.068643
 Thermal correction to Gibbs Free Energy=         0.036475
 Sum of electronic and zero-point Energies=           -154.188973
 Sum of electronic and thermal Energies=              -154.184378
 Sum of electronic and thermal Enthalpies=            -154.183434
 Sum of electronic and thermal Free Energies=         -154.215602
 
                     E (Thermal)             CV                S
                      KCal/Mol        Cal/Mol-Kelvin    Cal/Mol-Kelvin
 Total                   42.482             14.140             67.704
 Electronic               0.000              0.000              1.377
 Translational            0.889              2.981             37.340
 Rotational               0.889              2.981             22.880
 Vibrational             40.704              8.178              6.107
 Vibration     1          0.629              1.869              2.344
 Vibration     2          0.651              1.799              1.897
 Vibration     3          0.753              1.504              1.023
                       Q            Log10(Q)             Ln(Q)
 Total Bot       0.167046D-16        -16.777164        -38.630848
 Total V=0       0.177159D+13         12.248364         28.202900
 Vib (Bot)       0.314969D-28        -28.501732        -65.627664
 Vib (Bot)    1  0.112578D+01          0.051453          0.118475
 Vib (Bot)    2  0.865752D+00         -0.062606         -0.144157
 Vib (Bot)    3  0.469384D+00         -0.328472         -0.756334
 Vib (V=0)       0.334038D+01          0.523796          1.206084
 Vib (V=0)    1  0.173182D+01          0.238503          0.549172
 Vib (V=0)    2  0.149976D+01          0.176023          0.405307
 Vib (V=0)    3  0.118580D+01          0.074011          0.170417
 Electronic      0.200000D+01          0.301030          0.693147
 Translational   0.118786D+08          7.074767         16.290252
 Rotational      0.223240D+05          4.348772         10.013417
 ***** Axes restored to original set *****
 -------------------------------------------------------------------
 Center     Atomic                   Forces (Hartrees/Bohr)
 Number     Number              X              Y              Z
 -------------------------------------------------------------------
      1        6           0.000005344    0.000022811   -0.000007842
      2        1          -0.000009424    0.000000703    0.000004710
      3        1          -0.000005614    0.000015640    0.000000264
      4        6          -0.000004243   -0.000000890   -0.000009220
      5        1           0.000009941   -0.000000352    0.000009115
      6        1           0.000002936   -0.000006056   -0.000002915
      7        8           0.000001253   -0.000017307    0.000021800
      8        1          -0.000000193   -0.000014548   -0.000015913
 -------------------------------------------------------------------
 Cartesian Forces:  Max     0.000022811 RMS     0.000010366

 GradGradGradGradGradGradGradGradGradGradGradGradGradGradGradGradGradGrad
 Berny optimization.
 Internal  Forces:  Max     0.000017266 RMS     0.000006230
 Search for a saddle point.
 Step number   1 out of a maximum of    2
 All quantities printed in internal units (Hartrees-Bohrs-Radians)
 Swaping is turned off.
 Second derivative matrix not updated -- analytic derivatives used.
     Eigenvalues ---   -0.02450   0.00651   0.01016   0.01731   0.01968
     Eigenvalues ---    0.02478   0.02903   0.03607   0.09254   0.09755
     Eigenvalues ---    0.10699   0.13764   0.36428   0.36652   0.36995
     Eigenvalues ---    0.37257   0.46808   0.536081000.000001000.00000
     Eigenvalues --- 1000.000001000.000001000.000001000.000001000.00000
     Eigenvalues --- 1000.000001000.000001000.00000
 Eigenvectors required to have negative eigenvalues:
                          R8        R9        R4        D3        D2
   1                    0.81057   0.37694   0.27416  -0.18849   0.17937
                          D1        R3        D4        A6        R5
   1                   -0.10329  -0.09506   0.09417  -0.08914  -0.07248
 Angle between quadratic step and forces=  47.83 degrees.
 Linear search not attempted -- option 19 set.
 Iteration  1 RMS(Cart)=  0.00038814 RMS(Int)=  0.00000007
 Iteration  2 RMS(Cart)=  0.00000005 RMS(Int)=  0.00000003
 Variable       Old X    -DE/DX   Delta X   Delta X   Delta X     New X
                                 (Linear)    (Quad)   (Total)
    R1        2.05200   0.00000   0.00000   0.00000   0.00000   2.05201
    R2        2.05038   0.00000   0.00000   0.00000   0.00000   2.05038
    R3        2.55700  -0.00001   0.00000  -0.00007  -0.00007   2.55694
    R4        5.02622  -0.00002   0.00000  -0.00096  -0.00096   5.02526
    R5        4.85175   0.00000   0.00000  -0.00061  -0.00061   4.85115
    R6        2.04740   0.00000   0.00000   0.00000   0.00000   2.04740
    R7        2.04820   0.00000   0.00000   0.00000   0.00000   2.04820
    R8        3.99499  -0.00001   0.00000   0.00021   0.00021   3.99520
    R9        4.72433   0.00001   0.00000   0.00083   0.00083   4.72516
   R10        1.83949   0.00001   0.00000   0.00003   0.00003   1.83952
    A1        2.04895   0.00000   0.00000   0.00004   0.00004   2.04899
    A2        2.11809   0.00000   0.00000  -0.00002  -0.00002   2.11807
    A3        1.93413   0.00000   0.00000  -0.00032  -0.00032   1.93381
    A4        1.64626   0.00000   0.00000  -0.00028  -0.00028   1.64598
    A5        2.11565   0.00000   0.00000  -0.00002  -0.00002   2.11563
    A6        1.83515   0.00000   0.00000  -0.00003  -0.00003   1.83512
    A7        1.79400   0.00000   0.00000  -0.00025  -0.00025   1.79375
    A8        2.11319   0.00000   0.00000   0.00001   0.00001   2.11320
    A9        2.11465   0.00000   0.00000   0.00004   0.00004   2.11469
   A10        2.04046   0.00000   0.00000  -0.00001  -0.00001   2.04045
   A11        1.53343   0.00001   0.00000   0.00042   0.00042   1.53385
   A12        1.85228   0.00000   0.00000   0.00021   0.00021   1.85250
   A13        1.62913  -0.00001   0.00000  -0.00003  -0.00003   1.62910
   A14        1.67861   0.00000   0.00000   0.00015   0.00015   1.67875
    D1       -3.05168   0.00001   0.00000  -0.00004  -0.00004  -3.05172
    D2       -0.10033   0.00000   0.00000   0.00017   0.00017  -0.10015
    D3        0.12473   0.00000   0.00000  -0.00008  -0.00008   0.12465
    D4        3.07609   0.00000   0.00000   0.00013   0.00013   3.07622
         Item               Value     Threshold  Converged?
 Maximum Force            0.000017     0.000450     YES
 RMS     Force            0.000006     0.000300     YES
 Maximum Displacement     0.000847     0.001800     YES
 RMS     Displacement     0.000388     0.001200     YES
 Predicted change in Energy=-1.773693D-08
 Optimization completed.
    -- Stationary point found.
                           ----------------------------
                           !   Optimized Parameters   !
                           ! (Angstroms and Degrees)  !
 --------------------------                            --------------------------
 ! Name  Definition              Value          Derivative Info.                !
 --------------------------------------------------------------------------------
 ! R1    R(1,2)                  1.0859         -DE/DX =    0.0                 !
 ! R2    R(1,3)                  1.085          -DE/DX =    0.0                 !
 ! R3    R(1,4)                  1.3531         -DE/DX =    0.0                 !
 ! R4    R(1,7)                  2.6598         -DE/DX =    0.0                 !
 ! R5    R(1,8)                  2.5674         -DE/DX =    0.0                 !
 ! R6    R(4,5)                  1.0834         -DE/DX =    0.0                 !
 ! R7    R(4,6)                  1.0839         -DE/DX =    0.0                 !
 ! R8    R(4,7)                  2.1141         -DE/DX =    0.0                 !
 ! R9    R(4,8)                  2.5            -DE/DX =    0.0                 !
 ! R10   R(7,8)                  0.9734         -DE/DX =    0.0                 !
 ! A1    A(2,1,3)              117.396          -DE/DX =    0.0                 !
 ! A2    A(2,1,4)              121.3575         -DE/DX =    0.0                 !
 ! A3    A(2,1,7)              110.8175         -DE/DX =    0.0                 !
 ! A4    A(2,1,8)               94.3238         -DE/DX =    0.0                 !
 ! A5    A(3,1,4)              121.2179         -DE/DX =    0.0                 !
 ! A6    A(3,1,7)              105.1464         -DE/DX =    0.0                 !
 ! A7    A(3,1,8)              102.7884         -DE/DX =    0.0                 !
 ! A8    A(1,4,5)              121.077          -DE/DX =    0.0                 !
 ! A9    A(1,4,6)              121.1605         -DE/DX =    0.0                 !
 ! A10   A(5,4,6)              116.9098         -DE/DX =    0.0                 !
 ! A11   A(5,4,7)               87.8593         -DE/DX =    0.0                 !
 ! A12   A(5,4,8)              106.128          -DE/DX =    0.0                 !
 ! A13   A(6,4,7)               93.3422         -DE/DX =    0.0                 !
 ! A14   A(6,4,8)               96.177          -DE/DX =    0.0                 !
 ! D1    D(2,1,4,5)           -174.8485         -DE/DX =    0.0                 !
 ! D2    D(2,1,4,6)             -5.7482         -DE/DX =    0.0                 !
 ! D3    D(3,1,4,5)              7.1466         -DE/DX =    0.0                 !
 ! D4    D(3,1,4,6)            176.2468         -DE/DX =    0.0                 !
 --------------------------------------------------------------------------------
 GradGradGradGradGradGradGradGradGradGradGradGradGradGradGradGradGradGrad


 Test job not archived.
 1|1|UNPC-DESKTOP-319GPER|Freq|UM062X|6-31+G(d,p)|C2H5O1(2)|SAGAD|17-Ja
 n-2021|0||#N Geom=AllCheck Guess=TCheck SCRF=Check Test GenChk UM062X/
 6-31+G(d,p) Freq||Transition state Ethene OH radical with M062X TWO||0
 ,2|C,-0.4582782017,0.7167688465,0.710227347|H,0.0637633118,-0.23514714
 74,0.7313935593|H,-1.5194202419,0.699321422,0.4845563094|C,0.195525055
 8,1.8831451758,0.9176141667|H,-0.3414311221,2.8222465003,0.9776799268|
 H,1.2413240825,1.8969840398,1.2019849678|O,0.6114030861,2.3413347599,-
 1.1038580161|H,0.5839304194,1.4596468933,-1.515456181||Version=IA32W-G
 09RevA.02|State=2-A|HF=-154.2520765|S2=0.774917|S2-1=0.|S2A=0.750143|R
 MSD=2.767e-010|RMSF=1.037e-005|ZeroPoint=0.0631035|Thermal=0.0676988|D
 ipole=-0.1704855,-0.749159,0.3185335|DipoleDeriv=0.1809122,0.0978089,-
 0.2984628,0.1524968,0.2696572,-0.6348328,0.077656,-0.0000588,-0.432241
 1,0.0262607,0.0651277,-0.0245837,0.0330077,-0.0427433,0.006685,-0.0163
 569,0.0016323,0.1460179,-0.0512584,-0.020376,-0.0205923,0.0103304,0.04
 61902,0.0019002,-0.0369661,-0.0070919,0.1360174,-0.092017,-0.2514143,0
 .6325797,-0.3256403,-0.2768875,0.9567259,0.3169912,0.3440718,-0.861301
 9,0.0453304,0.05072,-0.0204693,0.0456556,0.021812,-0.0546078,-0.040738
 9,-0.0476664,0.2083594,-0.0098929,0.0115696,-0.079381,0.0195435,0.0705
 738,-0.0166726,-0.0622656,-0.034842,0.1564583,-0.4247033,0.0714565,-0.
 1924142,0.1215397,-0.1525737,-0.2989595,-0.216217,-0.1494074,0.315011,
 0.3253682,-0.0248924,0.0033237,-0.0569333,0.0639712,0.0397617,-0.02210
 26,-0.1066377,0.331679|Polar=32.8060344,9.3747077,41.0699582,-8.547474
 1,-10.7538773,48.3158996|PG=C01 [X(C2H5O1)]|NImag=1||0.65994143,0.0446
 3632,0.73997168,0.11538943,0.06224171,0.13942351,-0.12926312,0.1254078
 4,-0.00708916,0.12462429,0.12246848,-0.27322199,0.00467377,-0.13155807
 ,0.29123259,-0.00875341,0.00381901,-0.03553849,0.00894795,-0.00344429,
 0.02270633,-0.33411969,0.00049675,-0.06261989,-0.00788414,-0.00282042,
 -0.00275257,0.35127069,0.00304892,-0.05779052,-0.00104434,0.02413344,0
 .00388666,0.00475734,0.00385259,0.05300495,-0.06378632,-0.00387979,-0.
 04839441,-0.00029819,-0.00071687,0.00393312,0.06963390,0.00395665,0.03
 661303,-0.19108904,-0.14353961,-0.04413095,0.01243268,0.01505505,0.003
 17779,-0.01170046,-0.02964185,-0.00467806,0.65313152,-0.14701128,-0.38
 022837,-0.06285076,-0.01545782,-0.02122840,-0.00369532,0.00000052,0.00
 378859,0.00139744,0.01415396,0.72561177,-0.07694628,-0.11797086,-0.061
 09742,-0.00137403,0.00126307,0.00508068,-0.00206359,-0.00687236,0.0036
 5697,0.16971350,0.15917274,0.08945429,0.01195129,-0.01654488,-0.001408
 05,-0.00054725,-0.00320179,-0.00220987,0.00073477,0.00009251,0.0013782
 5,-0.13408523,0.13327755,0.00242752,0.13104147,0.01446629,-0.02025198,
 -0.00041785,-0.00276829,-0.00217200,-0.00239814,-0.00016585,0.00104867
 ,0.00129082,0.12997938,-0.27517084,-0.01938973,-0.13746040,0.29199841,
 0.00524121,0.00159394,0.00473845,-0.00224245,-0.00148473,0.00955321,0.
 00128390,0.00055996,-0.00617828,-0.00227919,-0.02245829,-0.03107570,-0
 .00415960,0.01722851,0.03341902,-0.01092028,0.00057270,-0.00336951,0.0
 0063479,-0.00013774,0.00182927,0.00135088,-0.00195939,-0.00239662,-0.3
 3076171,0.00266895,-0.08158099,-0.00853544,-0.00292296,-0.00309618,0.3
 4721937,-0.02906151,0.00370305,-0.00764586,0.00007399,0.00111286,0.000
 95272,-0.00197750,-0.00410237,-0.00180509,0.00484005,-0.05775693,-0.00
 380430,0.02338152,0.00410850,0.00684050,0.00264591,0.05292577,-0.00178
 883,0.00432093,0.00444858,0.00146715,0.00044305,-0.00619228,-0.0019331
 1,-0.00131681,0.00948802,-0.08140693,-0.00974558,-0.05355903,0.0020819
 7,0.00033169,0.00404905,0.08391180,0.00413579,0.05348814,-0.00651545,-
 0.01069982,0.00268952,-0.00006095,0.00002734,-0.00021896,0.00098821,0.
 00052261,-0.00046118,0.00286802,0.01040874,-0.01152781,-0.00025199,-0.
 00104947,0.00449359,0.00092149,0.00041048,-0.00145235,0.00415368,-0.00
 933894,-0.01490961,0.00494768,-0.00000967,0.00085645,-0.00069165,0.000
 66670,0.00022619,-0.00018479,0.01022551,0.00458859,-0.01615728,0.00094
 550,0.00025820,-0.00304038,-0.00091658,0.00005674,0.00153965,0.0151840
 8,0.43924284,0.02841695,0.04804774,-0.00209757,0.00046565,-0.00117360,
 0.00076371,-0.00143167,-0.00014777,0.00076941,-0.03787110,-0.05398420,
 0.04694919,0.00171317,0.00330474,-0.01310409,0.00450812,0.00146413,-0.
 01063239,0.00879417,0.19766463,0.07896788,0.00001486,-0.00032930,0.000
 53861,0.00006370,0.00016715,-0.00002018,-0.00064026,-0.00004883,0.0006
 0823,-0.00079578,0.00195938,0.00135168,-0.00030762,-0.00007870,0.00075
 872,0.00009090,-0.00031293,-0.00087970,-0.00210299,-0.01675660,-0.0045
 9528,0.00367720,0.00079171,0.00272774,0.00009565,0.00017858,-0.0004661
 9,0.00070033,-0.00005279,-0.00006218,-0.00005836,-0.00107248,0.0003955
 8,0.00375873,-0.00049001,0.00018104,0.00076050,0.00004911,-0.00004763,
 0.00029126,-0.01480396,-0.43031941,-0.19517568,0.01539984,0.42759104,0
 .00222726,0.00182732,-0.00148264,0.00012308,0.00043959,-0.00030626,-0.
 00011696,0.00010733,0.00011215,-0.00252505,-0.00783604,0.00059102,0.00
 017661,0.00004996,-0.00140164,0.00019411,-0.00013790,-0.00109009,-0.00
 231697,-0.18407785,-0.10161614,0.00223792,0.18962759,0.10519361||-0.00
 000534,-0.00002281,0.00000784,0.00000942,-0.00000070,-0.00000471,0.000
 00561,-0.00001564,-0.00000026,0.00000424,0.00000089,0.00000922,-0.0000
 0994,0.00000035,-0.00000912,-0.00000294,0.00000606,0.00000291,-0.00000
 125,0.00001731,-0.00002180,0.00000019,0.00001455,0.00001591|||@


 POCKETA-POCKETA
 BARON VON RICHTOFEN
 SLAUGHTERED THE ALLIES WITH
 HARDLY A CARE.
 KILLED EIGHTY-ONE WITH HIS
 BLOOD-COLORED TRIPLANE, THEN
 UN-AEROBATICALLY
 PLUNGED FROM THE AIR.
   -- TONY HOFFMAN
 Job cpu time:  0 days  0 hours  0 minutes 53.0 seconds.
 File lengths (MBytes):  RWF=     15 Int=      0 D2E=      0 Chk=      2 Scr=      1
 Normal termination of Gaussian 09 at Sun Jan 17 12:05:23 2021.
