 Entering Link 1 = C:\G09W\l1.exe PID=      3444.
  
 Copyright (c) 1988,1990,1992,1993,1995,1998,2003,2009, Gaussian, Inc.
                  All Rights Reserved.
  
 This is part of the Gaussian(R) 09 program.  It is based on
 the Gaussian(R) 03 system (copyright 2003, Gaussian, Inc.),
 the Gaussian(R) 98 system (copyright 1998, Gaussian, Inc.),
 the Gaussian(R) 94 system (copyright 1995, Gaussian, Inc.),
 the Gaussian 92(TM) system (copyright 1992, Gaussian, Inc.),
 the Gaussian 90(TM) system (copyright 1990, Gaussian, Inc.),
 the Gaussian 88(TM) system (copyright 1988, Gaussian, Inc.),
 the Gaussian 86(TM) system (copyright 1986, Carnegie Mellon
 University), and the Gaussian 82(TM) system (copyright 1983,
 Carnegie Mellon University). Gaussian is a federally registered
 trademark of Gaussian, Inc.
  
 This software contains proprietary and confidential information,
 including trade secrets, belonging to Gaussian, Inc.
  
 This software is provided under written license and may be
 used, copied, transmitted, or stored only in accord with that
 written license.
  
 The following legend is applicable only to US Government
 contracts under FAR:
  
                    RESTRICTED RIGHTS LEGEND
  
 Use, reproduction and disclosure by the US Government is
 subject to restrictions as set forth in subparagraphs (a)
 and (c) of the Commercial Computer Software - Restricted
 Rights clause in FAR 52.227-19.
  
 Gaussian, Inc.
 340 Quinnipiac St., Bldg. 40, Wallingford CT 06492
  
  
 ---------------------------------------------------------------
 Warning -- This program may not be used in any manner that
 competes with the business of Gaussian, Inc. or will provide
 assistance to any competitor of Gaussian, Inc.  The licensee
 of this program is prohibited from giving any competitor of
 Gaussian, Inc. access to this program.  By using this program,
 the user acknowledges that Gaussian, Inc. is engaged in the
 business of creating and licensing software in the field of
 computational chemistry and represents and warrants to the
 licensee that it is not a competitor of Gaussian, Inc. and that
 it will not use this program in any manner prohibited above.
 ---------------------------------------------------------------
  

 Cite this work as:
 Gaussian 09, Revision A.02,
 M. J. Frisch, G. W. Trucks, H. B. Schlegel, G. E. Scuseria, 
 M. A. Robb, J. R. Cheeseman, G. Scalmani, V. Barone, B. Mennucci, 
 G. A. Petersson, H. Nakatsuji, M. Caricato, X. Li, H. P. Hratchian, 
 A. F. Izmaylov, J. Bloino, G. Zheng, J. L. Sonnenberg, M. Hada, 
 M. Ehara, K. Toyota, R. Fukuda, J. Hasegawa, M. Ishida, T. Nakajima, 
 Y. Honda, O. Kitao, H. Nakai, T. Vreven, J. A. Montgomery, Jr., 
 J. E. Peralta, F. Ogliaro, M. Bearpark, J. J. Heyd, E. Brothers, 
 K. N. Kudin, V. N. Staroverov, R. Kobayashi, J. Normand, 
 K. Raghavachari, A. Rendell, J. C. Burant, S. S. Iyengar, J. Tomasi, 
 M. Cossi, N. Rega, J. M. Millam, M. Klene, J. E. Knox, J. B. Cross, 
 V. Bakken, C. Adamo, J. Jaramillo, R. Gomperts, R. E. Stratmann, 
 O. Yazyev, A. J. Austin, R. Cammi, C. Pomelli, J. W. Ochterski, 
 R. L. Martin, K. Morokuma, V. G. Zakrzewski, G. A. Voth, 
 P. Salvador, J. J. Dannenberg, S. Dapprich, A. D. Daniels, 
 O. Farkas, J. B. Foresman, J. V. Ortiz, J. Cioslowski, 
 and D. J. Fox, Gaussian, Inc., Wallingford CT, 2009.
 
 ******************************************
 Gaussian 09:  IA32W-G09RevA.02 11-Jun-2009
                17-Jan-2021 
 ******************************************
 %chk=D:\Documents\rayGit\FQ\quimicaComputacional\p3Eteno\estadoDeTransicion\TSET
 HENEOHRADICALM062X.chk
 %nprocshared=4
 Will use up to    4 processors via shared memory.
 %mem=1500mb
 -------------------------------------------------------------------
 # opt=(calcfc,ts,noeigen) freq=noraman 6-31+g(d,p) iop(1/8=3) m062x
 -------------------------------------------------------------------
 1/5=1,8=3,10=4,11=1,14=-1,18=20,26=3,38=1/1,3;
 2/9=110,12=2,17=6,18=5,40=1/2;
 3/5=1,6=6,7=111,11=2,16=1,25=1,30=1,71=2,74=-55/1,2,3;
 4//1;
 5/5=2,38=5/2;
 8/6=4,10=90,11=11/1;
 11/6=1,8=1,9=11,15=111,16=1/1,2,10;
 10/6=1,7=6,13=1/2;
 6/7=2,8=2,9=2,10=2,28=1/1;
 7/10=1,18=20,25=1/1,2,3,16;
 1/5=1,8=3,10=4,11=1,14=-1,18=20/3(2);
 2/9=110/2;
 99//99;
 2/9=110/2;
 3/5=1,6=6,7=111,11=2,16=1,25=1,30=1,71=1,74=-55/1,2,3;
 4/5=5,16=3/1;
 5/5=2,38=5/2;
 7//1,2,3,16;
 1/5=1,8=3,11=1,14=-1,18=20/3(-5);
 2/9=110/2;
 6/7=2,8=2,9=2,10=2,19=2,28=1/1;
 99/9=1/99;
 ---------------------------------------------
 Transition state Ethene OH radical with M062X
 ---------------------------------------------
 Symbolic Z-matrix:
 Charge =  0 Multiplicity = 2
 C                    -0.47616   0.7481    0.59177 
 H                     0.057    -0.17961   0.59177 
 H                    -1.54616   0.7481    0.59177 
 C                     0.25615   2.02258   0.74029 
 H                    -0.32396   2.76735   1.24396 
 H                     1.19098   1.8967    1.24541 
 O                     0.35777   2.19607  -1.24958 
 H                     0.8612    1.38501  -1.35125 
 

 GradGradGradGradGradGradGradGradGradGradGradGradGradGradGradGradGradGrad
 Berny optimization.
 Initialization pass.
                           ----------------------------
                           !    Initial Parameters    !
                           ! (Angstroms and Degrees)  !
 --------------------------                            --------------------------
 ! Name  Definition              Value          Derivative Info.                !
 --------------------------------------------------------------------------------
 ! R1    R(1,2)                  1.07           calculate D2E/DX2 analytically  !
 ! R2    R(1,3)                  1.07           calculate D2E/DX2 analytically  !
 ! R3    R(1,4)                  1.4774         calculate D2E/DX2 analytically  !
 ! R4    R(1,7)                  2.4865         calculate D2E/DX2 analytically  !
 ! R5    R(1,8)                  2.4433         calculate D2E/DX2 analytically  !
 ! R6    R(4,5)                  1.07           calculate D2E/DX2 analytically  !
 ! R7    R(4,6)                  1.07           calculate D2E/DX2 analytically  !
 ! R8    R(4,7)                  2.0            calculate D2E/DX2 analytically  !
 ! R9    R(4,8)                  2.2687         calculate D2E/DX2 analytically  !
 ! R10   R(7,8)                  0.96           calculate D2E/DX2 analytically  !
 ! A1    A(2,1,3)              119.8865         calculate D2E/DX2 analytically  !
 ! A2    A(2,1,4)              120.0628         calculate D2E/DX2 analytically  !
 ! A3    A(2,1,7)              109.7414         calculate D2E/DX2 analytically  !
 ! A4    A(2,1,8)               87.3215         calculate D2E/DX2 analytically  !
 ! A5    A(3,1,4)              119.7151         calculate D2E/DX2 analytically  !
 ! A6    A(3,1,7)              109.5959         calculate D2E/DX2 analytically  !
 ! A7    A(3,1,8)              123.1866         calculate D2E/DX2 analytically  !
 ! A8    A(1,4,5)              112.2738         calculate D2E/DX2 analytically  !
 ! A9    A(1,4,6)              112.2738         calculate D2E/DX2 analytically  !
 ! A10   A(5,4,6)              109.4712         calculate D2E/DX2 analytically  !
 ! A11   A(5,4,7)              115.8176         calculate D2E/DX2 analytically  !
 ! A12   A(5,4,8)              140.7288         calculate D2E/DX2 analytically  !
 ! A13   A(6,4,7)              115.8176         calculate D2E/DX2 analytically  !
 ! A14   A(6,4,8)               99.7386         calculate D2E/DX2 analytically  !
 ! D1    D(2,1,4,5)           -148.6203         calculate D2E/DX2 analytically  !
 ! D2    D(2,1,4,6)            -24.77           calculate D2E/DX2 analytically  !
 ! D3    D(3,1,4,5)             24.7212         calculate D2E/DX2 analytically  !
 ! D4    D(3,1,4,6)            148.5715         calculate D2E/DX2 analytically  !
 --------------------------------------------------------------------------------
 Trust Radius=3.00D-02 FncErr=1.00D-07 GrdErr=1.00D-06
 Number of steps in this run=  38 maximum allowed number of steps= 100.
 Search for a saddle point of order  1.
 GradGradGradGradGradGradGradGradGradGradGradGradGradGradGradGradGradGrad

                          Input orientation:                          
 ---------------------------------------------------------------------
 Center     Atomic      Atomic             Coordinates (Angstroms)
 Number     Number       Type             X           Y           Z
 ---------------------------------------------------------------------
      1          6           0       -0.476164    0.748099    0.591772
      2          1           0        0.057000   -0.179606    0.591772
      3          1           0       -1.546164    0.748099    0.591772
      4          6           0        0.256154    2.022581    0.740285
      5          1           0       -0.323955    2.767350    1.243962
      6          1           0        1.190980    1.896698    1.245413
      7          8           0        0.357767    2.196070   -1.249583
      8          1           0        0.861198    1.385009   -1.351252
 ---------------------------------------------------------------------
                    Distance matrix (angstroms):
                    1          2          3          4          5
     1  C    0.000000
     2  H    1.070000   0.000000
     3  H    1.070000   1.852234   0.000000
     4  C    1.477379   2.216155   2.212399   0.000000
     5  H    2.127415   3.042208   2.448780   1.070000   0.000000
     6  H    2.127415   2.454424   3.039487   1.070000   1.747303
     7  O    2.486493   3.020742   3.018635   2.000000   2.647428
     8  H    2.443263   2.621086   3.158542   2.268723   3.170267
                    6          7          8
     6  H    0.000000
     7  O    2.647428   0.000000
     8  H    2.667068   0.960000   0.000000
 Stoichiometry    C2H5O(2)
 Framework group  C1[X(C2H5O)]
 Deg. of freedom    18
 Full point group                 C1      NOp   1
 Largest Abelian subgroup         C1      NOp   1
 Largest concise Abelian subgroup C1      NOp   1
                         Standard orientation:                         
 ---------------------------------------------------------------------
 Center     Atomic      Atomic             Coordinates (Angstroms)
 Number     Number       Type             X           Y           Z
 ---------------------------------------------------------------------
      1          6           0       -1.063630   -0.533824   -0.026691
      2          1           0       -1.327523   -1.043244    0.876499
      3          1           0       -1.401677   -0.910367   -0.969474
      4          6           0       -0.361062    0.764390    0.034030
      5          1           0       -0.613513    1.401001   -0.788098
      6          1           0       -0.541844    1.280752    0.953588
      7          8           0        1.396401   -0.180283   -0.103510
      8          1           0        1.261497   -0.669277    0.711527
 ---------------------------------------------------------------------
 Rotational constants (GHZ):     24.1838312      8.9988806      7.3018204
 Standard basis: 6-31+G(d,p) (6D, 7F)
 There are    82 symmetry adapted basis functions of A   symmetry.
 Integral buffers will be    262144 words long.
 Raffenetti 2 integral format.
 Two-electron integral symmetry is turned on.
    82 basis functions,   131 primitive gaussians,    82 cartesian basis functions
    13 alpha electrons       12 beta electrons
       nuclear repulsion energy        68.7463623045 Hartrees.
 NAtoms=    8 NActive=    8 NUniq=    8 SFac= 7.50D-01 NAtFMM=   80 NAOKFM=F Big=F
 One-electron integrals computed using PRISM.
 NBasis=    82 RedAO= T  NBF=    82
 NBsUse=    82 1.00D-06 NBFU=    82
 Harris functional with IExCor= 1009 diagonalized for initial guess.
 ExpMin= 4.38D-02 ExpMax= 5.48D+03 ExpMxC= 8.25D+02 IAcc=2 IRadAn=         0 AccDes= 0.00D+00
 HarFok:  IExCor= 1009 AccDes= 0.00D+00 IRadAn=         0 IDoV= 1
 ScaDFX=  1.000000  1.000000  1.000000  1.000000
 FoFCou: FMM=F IPFlag=           0 FMFlag=      100000 FMFlg1=           0
         NFxFlg=           0 DoJE=T BraDBF=F KetDBF=T FulRan=T
         Omega=  0.000000  0.000000  1.000000  0.000000  0.000000 ICntrl=     500 IOpCl=  0
         NMat0=    1 NMatS0=    1 NMatT0=    0 NMatD0=    1 NMtDS0=    0 NMtDT0=    0
         I1Cent=           4 NGrid=           0.
 Petite list used in FoFCou.
 Initial guess orbital symmetries:
 Alpha Orbitals:
       Occupied  (A) (A) (A) (A) (A) (A) (A) (A) (A) (A) (A) (A)
                 (A)
       Virtual   (A) (A) (A) (A) (A) (A) (A) (A) (A) (A) (A) (A)
                 (A) (A) (A) (A) (A) (A) (A) (A) (A) (A) (A) (A)
                 (A) (A) (A) (A) (A) (A) (A) (A) (A) (A) (A) (A)
                 (A) (A) (A) (A) (A) (A) (A) (A) (A) (A) (A) (A)
                 (A) (A) (A) (A) (A) (A) (A) (A) (A) (A) (A) (A)
                 (A) (A) (A) (A) (A) (A) (A) (A) (A)
 Beta  Orbitals:
       Occupied  (A) (A) (A) (A) (A) (A) (A) (A) (A) (A) (A) (A)
       Virtual   (A) (A) (A) (A) (A) (A) (A) (A) (A) (A) (A) (A)
                 (A) (A) (A) (A) (A) (A) (A) (A) (A) (A) (A) (A)
                 (A) (A) (A) (A) (A) (A) (A) (A) (A) (A) (A) (A)
                 (A) (A) (A) (A) (A) (A) (A) (A) (A) (A) (A) (A)
                 (A) (A) (A) (A) (A) (A) (A) (A) (A) (A) (A) (A)
                 (A) (A) (A) (A) (A) (A) (A) (A) (A) (A)
 The electronic state of the initial guess is 2-A.
 Initial guess <Sx>= 0.0000 <Sy>= 0.0000 <Sz>= 0.5000 <S**2>= 0.7500 S= 0.5000
 Requested convergence on RMS density matrix=1.00D-08 within 128 cycles.
 Requested convergence on MAX density matrix=1.00D-06.
 Requested convergence on             energy=1.00D-06.
 No special actions if energy rises.
 Keep R1 and R2 ints in memory in canonical form, NReq=12588294.
 SCF Done:  E(UM062X) =  -154.227568734     A.U. after   18 cycles
             Convg  =    0.3103D-08             -V/T =  2.0100
 <Sx>= 0.0000 <Sy>= 0.0000 <Sz>= 0.5000 <S**2>= 0.8002 S= 0.5248
 <L.S>= 0.000000000000E+00
 Annihilation of the first spin contaminant:
 S**2 before annihilation     0.8002,   after     0.7504
 Range of M.O.s used for correlation:     1    82
 NBasis=    82 NAE=    13 NBE=    12 NFC=     0 NFV=     0
 NROrb=     82 NOA=    13 NOB=    12 NVA=    69 NVB=    70

 **** Warning!!: The largest alpha MO coefficient is  0.30847438D+02


 **** Warning!!: The largest beta MO coefficient is  0.31483579D+02

 Symmetrizing basis deriv contribution to polar:
 IMax=3 JMax=2 DiffMx= 0.00D+00
 G2DrvN: will do     9 centers at a time, making    1 passes doing MaxLOS=2.
 Calling FoFCou, ICntrl=  3107 FMM=F I1Cent=   0 AccDes= 0.00D+00.
 FoFDir/FoFCou used for L=0 through L=2.
 End of G2Drv Frequency-dependent properties file   721 does not exist.
 End of G2Drv Frequency-dependent properties file   722 does not exist.
          IDoAtm=11111111
          Differentiating once with respect to nuclear coordinates.
          Keep R1 and R2 ints in memory in canonical form, NReq=12405557.
          There are    27 degrees of freedom in the 1st order CPHF.  IDoFFX=5.
     21 vectors produced by pass  0 Test12= 6.43D-11 3.70D-07 XBig12= 1.70D-01 1.75D-01.
 AX will form    21 AO Fock derivatives at one time.
     21 vectors produced by pass  1 Test12= 6.43D-11 3.70D-07 XBig12= 1.15D-02 3.02D-02.
     21 vectors produced by pass  2 Test12= 6.43D-11 3.70D-07 XBig12= 2.94D-04 4.67D-03.
     21 vectors produced by pass  3 Test12= 6.43D-11 3.70D-07 XBig12= 3.88D-06 5.56D-04.
     21 vectors produced by pass  4 Test12= 6.43D-11 3.70D-07 XBig12= 4.69D-08 3.67D-05.
     10 vectors produced by pass  5 Test12= 6.43D-11 3.70D-07 XBig12= 4.29D-10 2.94D-06.
 Inverted reduced A of dimension   115 with in-core refinement.
 End of Minotr Frequency-dependent properties file   721 does not exist.
 End of Minotr Frequency-dependent properties file   722 does not exist.

 **********************************************************************

            Population analysis using the SCF density.

 **********************************************************************

 Orbital symmetries:
 Alpha Orbitals:
       Occupied  (A) (A) (A) (A) (A) (A) (A) (A) (A) (A) (A) (A)
                 (A)
       Virtual   (A) (A) (A) (A) (A) (A) (A) (A) (A) (A) (A) (A)
                 (A) (A) (A) (A) (A) (A) (A) (A) (A) (A) (A) (A)
                 (A) (A) (A) (A) (A) (A) (A) (A) (A) (A) (A) (A)
                 (A) (A) (A) (A) (A) (A) (A) (A) (A) (A) (A) (A)
                 (A) (A) (A) (A) (A) (A) (A) (A) (A) (A) (A) (A)
                 (A) (A) (A) (A) (A) (A) (A) (A) (A)
 Beta  Orbitals:
       Occupied  (A) (A) (A) (A) (A) (A) (A) (A) (A) (A) (A) (A)
       Virtual   (A) (A) (A) (A) (A) (A) (A) (A) (A) (A) (A) (A)
                 (A) (A) (A) (A) (A) (A) (A) (A) (A) (A) (A) (A)
                 (A) (A) (A) (A) (A) (A) (A) (A) (A) (A) (A) (A)
                 (A) (A) (A) (A) (A) (A) (A) (A) (A) (A) (A) (A)
                 (A) (A) (A) (A) (A) (A) (A) (A) (A) (A) (A) (A)
                 (A) (A) (A) (A) (A) (A) (A) (A) (A) (A)
 The electronic state is 2-A.
 Alpha  occ. eigenvalues --  -19.65080 -10.61411 -10.59071  -1.07970  -0.87229
 Alpha  occ. eigenvalues --   -0.70862  -0.56565  -0.50420  -0.50046  -0.45629
 Alpha  occ. eigenvalues --   -0.43630  -0.36974  -0.28917
 Alpha virt. eigenvalues --    0.00043   0.03232   0.03980   0.05095   0.06764
 Alpha virt. eigenvalues --    0.08699   0.09113   0.11655   0.15949   0.17433
 Alpha virt. eigenvalues --    0.20171   0.24146   0.24623   0.28336   0.28487
 Alpha virt. eigenvalues --    0.30936   0.33069   0.33599   0.38328   0.63256
 Alpha virt. eigenvalues --    0.64740   0.70628   0.71249   0.73079   0.81443
 Alpha virt. eigenvalues --    0.94595   0.96844   1.04114   1.05606   1.07530
 Alpha virt. eigenvalues --    1.09618   1.18932   1.23014   1.27298   1.31424
 Alpha virt. eigenvalues --    1.40420   1.45969   1.56343   1.62402   1.67794
 Alpha virt. eigenvalues --    1.68494   1.80069   1.89396   1.97892   1.98924
 Alpha virt. eigenvalues --    2.02178   2.15792   2.16951   2.24087   2.32310
 Alpha virt. eigenvalues --    2.37360   2.40277   2.49490   2.52409   2.57355
 Alpha virt. eigenvalues --    2.60655   2.71052   2.72917   2.75502   2.82191
 Alpha virt. eigenvalues --    2.90823   3.26822   3.40025   3.41771   3.50536
 Alpha virt. eigenvalues --    3.53002   4.10277   4.29207   4.48827
  Beta  occ. eigenvalues --  -19.64078 -10.61531 -10.58579  -1.04596  -0.85702
  Beta  occ. eigenvalues --   -0.69577  -0.55938  -0.48858  -0.48576  -0.45442
  Beta  occ. eigenvalues --   -0.37501  -0.34344
  Beta virt. eigenvalues --   -0.06457   0.02379   0.02618   0.04037   0.04970
  Beta virt. eigenvalues --    0.07073   0.08478   0.08840   0.12302   0.15298
  Beta virt. eigenvalues --    0.17444   0.20213   0.24387   0.25115   0.28205
  Beta virt. eigenvalues --    0.28550   0.31700   0.33226   0.33791   0.38640
  Beta virt. eigenvalues --    0.63695   0.65075   0.70831   0.73352   0.75242
  Beta virt. eigenvalues --    0.81807   0.95987   0.97380   1.05652   1.06880
  Beta virt. eigenvalues --    1.07926   1.10027   1.18973   1.26388   1.28183
  Beta virt. eigenvalues --    1.32331   1.41438   1.49346   1.58113   1.62534
  Beta virt. eigenvalues --    1.68626   1.70051   1.81203   1.91181   2.00267
  Beta virt. eigenvalues --    2.01924   2.05011   2.15487   2.18440   2.24585
  Beta virt. eigenvalues --    2.32681   2.39037   2.40727   2.51730   2.53294
  Beta virt. eigenvalues --    2.59898   2.61146   2.71450   2.73528   2.76118
  Beta virt. eigenvalues --    2.82677   2.92224   3.27268   3.42003   3.42958
  Beta virt. eigenvalues --    3.50839   3.54864   4.12424   4.31732   4.49407
          Condensed to atoms (all electrons):
              1          2          3          4          5          6
     1  C    5.416934   0.377123   0.380722   0.162715  -0.028427  -0.016101
     2  H    0.377123   0.504240  -0.025779  -0.019824   0.003624  -0.006540
     3  H    0.380722  -0.025779   0.481829  -0.015126  -0.005931   0.003526
     4  C    0.162715  -0.019824  -0.015126   5.337038   0.392243   0.360236
     5  H   -0.028427   0.003624  -0.005931   0.392243   0.506342  -0.038618
     6  H   -0.016101  -0.006540   0.003526   0.360236  -0.038618   0.536162
     7  O   -0.052326  -0.001184  -0.000358   0.066193  -0.011196  -0.012715
     8  H    0.024400  -0.000082   0.000113  -0.009510   0.001715  -0.001758
              7          8
     1  C   -0.052326   0.024400
     2  H   -0.001184  -0.000082
     3  H   -0.000358   0.000113
     4  C    0.066193  -0.009510
     5  H   -0.011196   0.001715
     6  H   -0.012715  -0.001758
     7  O    8.280919   0.215023
     8  H    0.215023   0.452217
 Mulliken atomic charges:
              1
     1  C   -0.265040
     2  H    0.168422
     3  H    0.181004
     4  C   -0.273965
     5  H    0.180248
     6  H    0.175808
     7  O   -0.484358
     8  H    0.317882
 Sum of Mulliken atomic charges =   0.00000
 Mulliken charges with hydrogens summed into heavy atoms:
              1
     1  C    0.084385
     4  C    0.082091
     7  O   -0.166476
 Sum of Mulliken charges with hydrogens summed into heavy atoms =   0.00000
          Atomic-Atomic Spin Densities.
              1          2          3          4          5          6
     1  C    0.862358  -0.000358  -0.001709   0.063679  -0.005718  -0.008804
     2  H   -0.000358  -0.038493   0.000959  -0.004887   0.000006   0.000242
     3  H   -0.001709   0.000959  -0.036937  -0.003714   0.000207   0.000033
     4  C    0.063679  -0.004887  -0.003714  -0.223543   0.005754   0.010561
     5  H   -0.005718   0.000006   0.000207   0.005754   0.009060   0.000374
     6  H   -0.008804   0.000242   0.000033   0.010561   0.000374   0.006879
     7  O   -0.079520   0.000203  -0.000295  -0.062034  -0.002423  -0.003656
     8  H    0.004575   0.000083  -0.000026   0.000725  -0.000016   0.000422
              7          8
     1  C   -0.079520   0.004575
     2  H    0.000203   0.000083
     3  H   -0.000295  -0.000026
     4  C   -0.062034   0.000725
     5  H   -0.002423  -0.000016
     6  H   -0.003656   0.000422
     7  O    0.605199   0.004645
     8  H    0.004645  -0.023140
 Mulliken atomic spin densities:
              1
     1  C    0.834503
     2  H   -0.042245
     3  H   -0.041483
     4  C   -0.213460
     5  H    0.007244
     6  H    0.006053
     7  O    0.462119
     8  H   -0.012731
 Sum of Mulliken atomic spin densities =   1.00000
 APT atomic charges:
              1
     1  C   -0.707672
     2  H    0.422150
     3  H    0.447048
     4  C   -0.849794
     5  H    0.463607
     6  H    0.439738
     7  O   -0.666842
     8  H    0.451765
 Sum of APT charges=   0.00000
 APT Atomic charges with hydrogens summed into heavy atoms:
              1
     1  C    0.161525
     2  H    0.000000
     3  H    0.000000
     4  C    0.053552
     5  H    0.000000
     6  H    0.000000
     7  O   -0.215077
     8  H    0.000000
 Sum of APT charges=   0.00000
 Electronic spatial extent (au):  <R**2>=            202.6039
 Charge=              0.0000 electrons
 Dipole moment (field-independent basis, Debye):
    X=             -2.8761    Y=              0.0311    Z=              1.3750  Tot=              3.1880
 Quadrupole moment (field-independent basis, Debye-Ang):
   XX=            -23.2805   YY=            -17.9954   ZZ=            -17.7623
   XY=             -0.6399   XZ=              2.1373   YZ=             -1.3229
 Traceless Quadrupole moment (field-independent basis, Debye-Ang):
   XX=             -3.6011   YY=              1.6840   ZZ=              1.9171
   XY=             -0.6399   XZ=              2.1373   YZ=             -1.3229
 Octapole moment (field-independent basis, Debye-Ang**2):
  XXX=              0.5472  YYY=              1.3816  ZZZ=              1.0777  XYY=             -0.3247
  XXY=             -3.0458  XXZ=              2.0626  XZZ=              0.1317  YZZ=             -0.5257
  YYZ=              0.8993  XYZ=             -1.6229
 Hexadecapole moment (field-independent basis, Debye-Ang**3):
 XXXX=           -172.2638 YYYY=            -73.5403 ZZZZ=            -32.8801 XXXY=             -2.0019
 XXXZ=              4.3960 YYYX=             -3.1302 YYYZ=             -2.0429 ZZZX=              2.1087
 ZZZY=             -1.1662 XXYY=            -36.4786 XXZZ=            -29.1564 YYZZ=            -15.2083
 XXYZ=             -2.3893 YYXZ=              1.3223 ZZXY=             -0.3900
 N-N= 6.874636230450D+01 E-N=-7.403031201953D+02  KE= 2.279481004975D+02
  Exact polarizability:   0.000   0.000   0.000   0.000   0.000   0.000
 Approx polarizability:  53.108   0.106  38.156  -1.136  -0.049  29.017
                          Isotropic Fermi Contact Couplings
        Atom                 a.u.       MegaHertz       Gauss      10(-4) cm-1
     1  C(13)              0.14605     164.19297      58.58813      54.76888
     2  H(1)              -0.01187     -53.05632     -18.93181     -17.69768
     3  H(1)              -0.01192     -53.26869     -19.00759     -17.76852
     4  C(13)             -0.03704     -41.64410     -14.85965     -13.89098
     5  H(1)               0.00189       8.46903       3.02196       2.82497
     6  H(1)               0.00141       6.30694       2.25047       2.10377
     7  O(17)              0.12176     -73.81215     -26.33801     -24.62108
     8  H(1)              -0.00822     -36.73368     -13.10749     -12.25304
 --------------------------------------------------------
       Center         ----  Spin Dipole Couplings  ----
                      3XX-RR        3YY-RR        3ZZ-RR
 --------------------------------------------------------
     1   Atom        0.493021     -0.136084     -0.356937
     2   Atom       -0.005499     -0.018378      0.023877
     3   Atom       -0.000491     -0.030328      0.030820
     4   Atom       -0.137082      0.078061      0.059021
     5   Atom        0.000545      0.013742     -0.014287
     6   Atom        0.001008      0.013594     -0.014603
     7   Atom        1.761955     -0.832110     -0.929844
     8   Atom       -0.022809     -0.029788      0.052597
 --------------------------------------------------------
                        XY            XZ            YZ
 --------------------------------------------------------
     1   Atom       -0.441755     -0.073967      0.037832
     2   Atom       -0.007670     -0.026210     -0.042564
     3   Atom       -0.007847      0.028687      0.034618
     4   Atom        0.030978      0.011033     -0.000270
     5   Atom        0.003925     -0.002172      0.000972
     6   Atom        0.003885      0.001443      0.002486
     7   Atom       -0.581783     -0.028012     -0.009305
     8   Atom       -0.001974     -0.003655     -0.076253
 --------------------------------------------------------


 ---------------------------------------------------------------------------------
              Anisotropic Spin Dipole Couplings in Principal Axis System
 ---------------------------------------------------------------------------------

       Atom             a.u.   MegaHertz   Gauss  10(-4) cm-1        Axes

              Baa    -0.3639   -48.838   -17.427   -16.291  0.4490  0.8066  0.3844
     1 C(13)  Bbb    -0.3632   -48.737   -17.391   -16.257 -0.1140 -0.3750  0.9200
              Bcc     0.7271    97.575    34.817    32.547  0.8862 -0.4569 -0.0764
 
              Baa    -0.0539   -28.764   -10.264    -9.595  0.4090  0.7354  0.5402
     2 H(1)   Bbb    -0.0021    -1.145    -0.408    -0.382  0.8611 -0.5069  0.0382
              Bcc     0.0561    29.909    10.672     9.976 -0.3019 -0.4496  0.8407
 
              Baa    -0.0535   -28.526   -10.179    -9.515  0.3678  0.8095 -0.4577
     3 H(1)   Bbb    -0.0028    -1.511    -0.539    -0.504  0.8422 -0.4986 -0.2051
              Bcc     0.0563    30.037    10.718    10.019  0.3942  0.3100  0.8652
 
              Baa    -0.1421   -19.062    -6.802    -6.358  0.9888 -0.1392 -0.0544
     4 C(13)  Bbb     0.0595     7.991     2.851     2.665  0.0461 -0.0626  0.9970
              Bcc     0.0825    11.071     3.950     3.693  0.1422  0.9883  0.0554
 
              Baa    -0.0147    -7.834    -2.795    -2.613  0.1549 -0.0551  0.9864
     5 H(1)   Bbb    -0.0001    -0.077    -0.027    -0.026  0.9522 -0.2577 -0.1639
              Bcc     0.0148     7.911     2.823     2.639  0.2632  0.9646  0.0126
 
              Baa    -0.0149    -7.949    -2.837    -2.652 -0.0714 -0.0770  0.9945
     6 H(1)   Bbb    -0.0001    -0.032    -0.012    -0.011  0.9585 -0.2812  0.0471
              Bcc     0.0150     7.982     2.848     2.662  0.2761  0.9565  0.0939
 
              Baa    -0.9633    69.707    24.873    23.252  0.1944  0.8911  0.4101
     7 O(17)  Bbb    -0.9233    66.813    23.840    22.286 -0.0778 -0.4028  0.9120
              Bcc     1.8867  -136.519   -48.714   -45.538  0.9778 -0.2092 -0.0090
 
              Baa    -0.0755   -40.286   -14.375   -13.438  0.0676  0.8565  0.5117
     8 H(1)   Bbb    -0.0226   -12.061    -4.304    -4.023  0.9976 -0.0671 -0.0195
              Bcc     0.0981    52.347    18.679    17.461 -0.0176 -0.5118  0.8589
 

 ---------------------------------------------------------------------------------

 Calling FoFJK, ICntrl=    100147 FMM=F ISym2X=0 I1Cent= 0 IOpClX= 1 NMat=1 NMatS=1 NMatT=0.
 ***** Axes restored to original set *****
 -------------------------------------------------------------------
 Center     Atomic                   Forces (Hartrees/Bohr)
 Number     Number              X              Y              Z
 -------------------------------------------------------------------
      1        6           0.027417975    0.051276266    0.017875231
      2        1           0.003788523   -0.009028984   -0.004271075
      3        1          -0.008563865   -0.001227431   -0.005444789
      4        6          -0.040526246   -0.073397079   -0.022423759
      5        1          -0.008241475    0.021725940   -0.016121677
      6        1           0.023007107    0.003622901   -0.013474540
      7        8          -0.003378315    0.015167099    0.047202701
      8        1           0.006496297   -0.008138712   -0.003342093
 -------------------------------------------------------------------
 Cartesian Forces:  Max     0.073397079 RMS     0.025466063

 GradGradGradGradGradGradGradGradGradGradGradGradGradGradGradGradGradGrad
 Berny optimization.
 Internal  Forces:  Max     0.052021585 RMS     0.016760185
 Search for a saddle point.
 Step number   1 out of a maximum of   38
 All quantities printed in internal units (Hartrees-Bohrs-Radians)
 Swaping is turned off.
 Second derivative matrix not updated -- analytic derivatives used.
     Eigenvalues ---   -0.10281   0.00811   0.01010   0.01781   0.01978
     Eigenvalues ---    0.03139   0.04097   0.06526   0.09515   0.09754
     Eigenvalues ---    0.15203   0.16304   0.29697   0.39818   0.39982
     Eigenvalues ---    0.40158   0.40362   0.526951000.000001000.00000
     Eigenvalues --- 1000.000001000.000001000.000001000.000001000.00000
     Eigenvalues --- 1000.000001000.000001000.00000
 Eigenvectors required to have negative eigenvalues:
                          R8        R9        R3        A6        A4
   1                    0.88762   0.26597  -0.22052  -0.14837  -0.09684
                          R4        A13       A3        D2        A14
   1                   -0.09304   0.09027  -0.08267   0.07828  -0.07489
 RFO step:  Lambda0=1.093720202D-02 Lambda=-3.69258205D-02.
 Linear search not attempted -- option 19 set.
 Maximum step size (   0.030) exceeded in Quadratic search.
    -- Step size scaled by   0.047
 Iteration  1 RMS(Cart)=  0.00318077 RMS(Int)=  0.00002708
 Iteration  2 RMS(Cart)=  0.00002033 RMS(Int)=  0.00001967
 Iteration  3 RMS(Cart)=  0.00000000 RMS(Int)=  0.00001967
 Variable       Old X    -DE/DX   Delta X   Delta X   Delta X     New X
                                 (Linear)    (Quad)   (Total)
    R1        2.02201   0.00971   0.00000   0.00121   0.00121   2.02321
    R2        2.02201   0.00857   0.00000   0.00105   0.00105   2.02306
    R3        2.79184  -0.05202   0.00000  -0.01287  -0.01287   2.77897
    R4        4.69879   0.00524   0.00000  -0.00330  -0.00329   4.69550
    R5        4.61710   0.00335   0.00000   0.00055   0.00055   4.61765
    R6        2.02201   0.01201   0.00000   0.00111   0.00111   2.02312
    R7        2.02201   0.01331   0.00000   0.00120   0.00120   2.02321
    R8        3.77945  -0.04866   0.00000   0.00771   0.00770   3.78716
    R9        4.28726  -0.00321   0.00000   0.00729   0.00729   4.29456
   R10        1.81414   0.01525   0.00000   0.00091   0.00091   1.81505
    A1        2.09241  -0.00098   0.00000  -0.00212  -0.00213   2.09028
    A2        2.09549   0.00146   0.00000   0.00136   0.00136   2.09685
    A3        1.91535   0.00203   0.00000  -0.00239  -0.00240   1.91295
    A4        1.52405  -0.00009   0.00000  -0.00280  -0.00280   1.52125
    A5        2.08942   0.00038   0.00000   0.00134   0.00134   2.09076
    A6        1.91281   0.00759   0.00000  -0.00329  -0.00330   1.90951
    A7        2.15001  -0.00790   0.00000  -0.00402  -0.00402   2.14599
    A8        1.95955   0.01088   0.00000   0.00565   0.00561   1.96516
    A9        1.95955   0.01179   0.00000   0.00630   0.00626   1.96581
   A10        1.91063  -0.00237   0.00000   0.00432   0.00425   1.91488
   A11        2.02140  -0.01901   0.00000  -0.00791  -0.00791   2.01349
   A12        2.45618  -0.01624   0.00000  -0.00823  -0.00824   2.44794
   A13        2.02140  -0.02665   0.00000  -0.00728  -0.00728   2.01412
   A14        1.74077  -0.00446   0.00000  -0.00532  -0.00533   1.73544
    D1       -2.59391  -0.01148   0.00000  -0.01007  -0.01009  -2.60400
    D2       -0.43232   0.00279   0.00000   0.00483   0.00486  -0.42746
    D3        0.43147  -0.00300   0.00000  -0.00444  -0.00447   0.42699
    D4        2.59306   0.01127   0.00000   0.01046   0.01048   2.60354
         Item               Value     Threshold  Converged?
 Maximum Force            0.052022     0.000450     NO 
 RMS     Force            0.016760     0.000300     NO 
 Maximum Displacement     0.008457     0.001800     NO 
 RMS     Displacement     0.003180     0.001200     NO 
 Predicted change in Energy=-1.197425D-03
 GradGradGradGradGradGradGradGradGradGradGradGradGradGradGradGradGradGrad

                          Input orientation:                          
 ---------------------------------------------------------------------
 Center     Atomic      Atomic             Coordinates (Angstroms)
 Number     Number       Type             X           Y           Z
 ---------------------------------------------------------------------
      1          6           0       -0.474949    0.750181    0.593692
      2          1           0        0.057451   -0.178692    0.589967
      3          1           0       -1.545498    0.749169    0.589529
      4          6           0        0.253921    2.018445    0.744760
      5          1           0       -0.325120    2.768889    1.242463
      6          1           0        1.193220    1.896890    1.243962
      7          8           0        0.356482    2.195042   -1.248884
      8          1           0        0.861309    1.384377   -1.351347
 ---------------------------------------------------------------------
                    Distance matrix (angstroms):
                    1          2          3          4          5
     1  C    0.000000
     2  H    1.070639   0.000000
     3  H    1.070558   1.852127   0.000000
     4  C    1.470567   2.211328   2.207502   0.000000
     5  H    2.125684   3.043081   2.448451   1.070590   0.000000
     6  H    2.126165   2.454734   3.040743   1.070636   1.750926
     7  O    2.484751   3.017517   3.014605   2.004077   2.645882
     8  H    2.443556   2.618792   3.156455   2.272581   3.170541
                    6          7          8
     6  H    0.000000
     7  O    2.646376   0.000000
     8  H    2.666169   0.960482   0.000000
 Stoichiometry    C2H5O(2)
 Framework group  C1[X(C2H5O)]
 Deg. of freedom    18
 Full point group                 C1      NOp   1
 Largest Abelian subgroup         C1      NOp   1
 Largest concise Abelian subgroup C1      NOp   1
                         Standard orientation:                         
 ---------------------------------------------------------------------
 Center     Atomic      Atomic             Coordinates (Angstroms)
 Number     Number       Type             X           Y           Z
 ---------------------------------------------------------------------
      1          6           0       -1.060580   -0.533957   -0.026665
      2          1           0       -1.320974   -1.047256    0.876102
      3          1           0       -1.394422   -0.914865   -0.969826
      4          6           0       -0.367904    0.761830    0.034176
      5          1           0       -0.614030    1.398931   -0.790255
      6          1           0       -0.542161    1.279315    0.955101
      7          8           0        1.397217   -0.177158   -0.103580
      8          1           0        1.264758   -0.666097    0.712458
 ---------------------------------------------------------------------
 Rotational constants (GHZ):     24.2445218      8.9989014      7.3090301
 Standard basis: 6-31+G(d,p) (6D, 7F)
 There are    82 symmetry adapted basis functions of A   symmetry.
 Integral buffers will be    262144 words long.
 Raffenetti 2 integral format.
 Two-electron integral symmetry is turned on.
    82 basis functions,   131 primitive gaussians,    82 cartesian basis functions
    13 alpha electrons       12 beta electrons
       nuclear repulsion energy        68.7889190859 Hartrees.
 NAtoms=    8 NActive=    8 NUniq=    8 SFac= 7.50D-01 NAtFMM=   80 NAOKFM=F Big=F
 One-electron integrals computed using PRISM.
 NBasis=    82 RedAO= T  NBF=    82
 NBsUse=    82 1.00D-06 NBFU=    82
 Initial guess read from the read-write file.
 B after Tr=     0.000000    0.000000    0.000000
         Rot=    1.000000    0.000000    0.000000    0.000000 Ang=   0.00 deg.
 Initial guess orbital symmetries:
 Alpha Orbitals:
       Occupied  (A) (A) (A) (A) (A) (A) (A) (A) (A) (A) (A) (A)
                 (A)
       Virtual   (A) (A) (A) (A) (A) (A) (A) (A) (A) (A) (A) (A)
                 (A) (A) (A) (A) (A) (A) (A) (A) (A) (A) (A) (A)
                 (A) (A) (A) (A) (A) (A) (A) (A) (A) (A) (A) (A)
                 (A) (A) (A) (A) (A) (A) (A) (A) (A) (A) (A) (A)
                 (A) (A) (A) (A) (A) (A) (A) (A) (A) (A) (A) (A)
                 (A) (A) (A) (A) (A) (A) (A) (A) (A)
 Beta  Orbitals:
       Occupied  (A) (A) (A) (A) (A) (A) (A) (A) (A) (A) (A) (A)
       Virtual   (A) (A) (A) (A) (A) (A) (A) (A) (A) (A) (A) (A)
                 (A) (A) (A) (A) (A) (A) (A) (A) (A) (A) (A) (A)
                 (A) (A) (A) (A) (A) (A) (A) (A) (A) (A) (A) (A)
                 (A) (A) (A) (A) (A) (A) (A) (A) (A) (A) (A) (A)
                 (A) (A) (A) (A) (A) (A) (A) (A) (A) (A) (A) (A)
                 (A) (A) (A) (A) (A) (A) (A) (A) (A) (A)
 Initial guess <Sx>= 0.0000 <Sy>= 0.0000 <Sz>= 0.5000 <S**2>= 0.8001 S= 0.5247
 Requested convergence on RMS density matrix=1.00D-08 within 128 cycles.
 Requested convergence on MAX density matrix=1.00D-06.
 Requested convergence on             energy=1.00D-06.
 No special actions if energy rises.
 Keep R1 and R2 ints in memory in canonical form, NReq=12588294.
 SCF Done:  E(UM062X) =  -154.228766410     A.U. after   15 cycles
             Convg  =    0.3167D-08             -V/T =  2.0099
 <Sx>= 0.0000 <Sy>= 0.0000 <Sz>= 0.5000 <S**2>= 0.7999 S= 0.5246
 <L.S>= 0.000000000000E+00
 Annihilation of the first spin contaminant:
 S**2 before annihilation     0.7999,   after     0.7504
 Calling FoFJK, ICntrl=      2127 FMM=F ISym2X=0 I1Cent= 0 IOpClX= 1 NMat=1 NMatS=1 NMatT=0.
 ***** Axes restored to original set *****
 -------------------------------------------------------------------
 Center     Atomic                   Forces (Hartrees/Bohr)
 Number     Number              X              Y              Z
 -------------------------------------------------------------------
      1        6           0.026315770    0.049223397    0.017520187
      2        1           0.003614073   -0.008636598   -0.004267677
      3        1          -0.008178191   -0.001171746   -0.005431206
      4        6          -0.039098276   -0.070741064   -0.020278847
      5        1          -0.007808020    0.021007026   -0.016053127
      6        1           0.022139911    0.003597647   -0.013458741
      7        8          -0.003267874    0.014460418    0.045336163
      8        1           0.006282607   -0.007739080   -0.003366753
 -------------------------------------------------------------------
 Cartesian Forces:  Max     0.070741064 RMS     0.024495164

 GradGradGradGradGradGradGradGradGradGradGradGradGradGradGradGradGradGrad
 Berny optimization.
 Internal  Forces:  Max     0.049875182 RMS     0.016119264
 Search for a saddle point.
 Step number   2 out of a maximum of   38
 All quantities printed in internal units (Hartrees-Bohrs-Radians)
 Swaping is turned off.
 Update second derivatives using D2CorX and points    1    2
     Eigenvalues ---   -0.10446   0.00814   0.01011   0.01788   0.01978
     Eigenvalues ---    0.03151   0.04089   0.06537   0.09519   0.09757
     Eigenvalues ---    0.15186   0.16299   0.29752   0.39818   0.39981
     Eigenvalues ---    0.40156   0.40362   0.526941000.000001000.00000
     Eigenvalues --- 1000.000001000.000001000.000001000.000001000.00000
     Eigenvalues --- 1000.000001000.000001000.00000
 Eigenvectors required to have negative eigenvalues:
                          R8        R9        R3        A6        A4
   1                    0.88601   0.26579  -0.22125  -0.15038  -0.09739
                          R4        A13       A3        D2        A14
   1                   -0.09299   0.08874  -0.08427   0.08106  -0.07669
 RFO step:  Lambda0=9.726244686D-03 Lambda=-3.52399928D-02.
 Linear search not attempted -- option 19 set.
 Maximum step size (   0.030) exceeded in Quadratic search.
    -- Step size scaled by   0.048
 Iteration  1 RMS(Cart)=  0.00317556 RMS(Int)=  0.00002780
 Iteration  2 RMS(Cart)=  0.00002096 RMS(Int)=  0.00002005
 Iteration  3 RMS(Cart)=  0.00000000 RMS(Int)=  0.00002005
 Variable       Old X    -DE/DX   Delta X   Delta X   Delta X     New X
                                 (Linear)    (Quad)   (Total)
    R1        2.02321   0.00930   0.00000   0.00119   0.00119   2.02440
    R2        2.02306   0.00820   0.00000   0.00103   0.00103   2.02409
    R3        2.77897  -0.04988   0.00000  -0.01249  -0.01249   2.76647
    R4        4.69550   0.00489   0.00000  -0.00328  -0.00327   4.69223
    R5        4.61765   0.00325   0.00000   0.00071   0.00071   4.61836
    R6        2.02312   0.01149   0.00000   0.00109   0.00109   2.02421
    R7        2.02321   0.01273   0.00000   0.00117   0.00117   2.02438
    R8        3.78716  -0.04662   0.00000   0.00699   0.00698   3.79414
    R9        4.29456  -0.00296   0.00000   0.00702   0.00702   4.30157
   R10        1.81505   0.01458   0.00000   0.00090   0.00090   1.81594
    A1        2.09028  -0.00098   0.00000  -0.00208  -0.00209   2.08819
    A2        2.09685   0.00141   0.00000   0.00135   0.00135   2.09820
    A3        1.91295   0.00196   0.00000  -0.00236  -0.00237   1.91059
    A4        1.52125  -0.00015   0.00000  -0.00275  -0.00275   1.51849
    A5        2.09076   0.00038   0.00000   0.00130   0.00129   2.09205
    A6        1.90951   0.00726   0.00000  -0.00330  -0.00331   1.90620
    A7        2.14599  -0.00771   0.00000  -0.00408  -0.00409   2.14190
    A8        1.96516   0.01041   0.00000   0.00559   0.00555   1.97071
    A9        1.96581   0.01131   0.00000   0.00625   0.00621   1.97202
   A10        1.91488  -0.00234   0.00000   0.00437   0.00430   1.91918
   A11        2.01349  -0.01854   0.00000  -0.00817  -0.00817   2.00532
   A12        2.44794  -0.01585   0.00000  -0.00850  -0.00851   2.43943
   A13        2.01412  -0.02581   0.00000  -0.00742  -0.00741   2.00671
   A14        1.73544  -0.00448   0.00000  -0.00542  -0.00543   1.73001
    D1       -2.60400  -0.01133   0.00000  -0.01040  -0.01042  -2.61442
    D2       -0.42746   0.00279   0.00000   0.00489   0.00492  -0.42254
    D3        0.42699  -0.00300   0.00000  -0.00462  -0.00465   0.42235
    D4        2.60354   0.01112   0.00000   0.01067   0.01069   2.61423
         Item               Value     Threshold  Converged?
 Maximum Force            0.049875     0.000450     NO 
 RMS     Force            0.016119     0.000300     NO 
 Maximum Displacement     0.008358     0.001800     NO 
 RMS     Displacement     0.003174     0.001200     NO 
 Predicted change in Energy=-1.197816D-03
 GradGradGradGradGradGradGradGradGradGradGradGradGradGradGradGradGradGrad

                          Input orientation:                          
 ---------------------------------------------------------------------
 Center     Atomic      Atomic             Coordinates (Angstroms)
 Number     Number       Type             X           Y           Z
 ---------------------------------------------------------------------
      1          6           0       -0.473800    0.752111    0.595676
      2          1           0        0.057835   -0.177900    0.588193
      3          1           0       -1.544867    0.750165    0.587316
      4          6           0        0.251738    2.014329    0.749183
      5          1           0       -0.326245    2.770486    1.240668
      6          1           0        1.195487    1.897119    1.242320
      7          8           0        0.355285    2.194143   -1.247838
      8          1           0        0.861383    1.383846   -1.351375
 ---------------------------------------------------------------------
                    Distance matrix (angstroms):
                    1          2          3          4          5
     1  C    0.000000
     2  H    1.071267   0.000000
     3  H    1.071101   1.852015   0.000000
     4  C    1.463955   2.206668   2.202749   0.000000
     5  H    2.124059   3.044047   2.448184   1.071166   0.000000
     6  H    2.125021   2.455166   3.042051   1.071254   1.754549
     7  O    2.483019   3.014312   3.010555   2.007772   2.643732
     8  H    2.443933   2.616613   3.154379   2.276295   3.170476
                    6          7          8
     6  H    0.000000
     7  O    2.644816   0.000000
     8  H    2.665019   0.960956   0.000000
 Stoichiometry    C2H5O(2)
 Framework group  C1[X(C2H5O)]
 Deg. of freedom    18
 Full point group                 C1      NOp   1
 Largest Abelian subgroup         C1      NOp   1
 Largest concise Abelian subgroup C1      NOp   1
                         Standard orientation:                         
 ---------------------------------------------------------------------
 Center     Atomic      Atomic             Coordinates (Angstroms)
 Number     Number       Type             X           Y           Z
 ---------------------------------------------------------------------
      1          6           0       -1.057814   -0.533849   -0.026643
      2          1           0       -1.314831   -1.050927    0.875679
      3          1           0       -1.387509   -0.918907   -0.970194
      4          6           0       -0.374307    0.759311    0.034349
      5          1           0       -0.613664    1.396943   -0.792409
      6          1           0       -0.541726    1.277934    0.956621
      7          8           0        1.397829   -0.174306   -0.103650
      8          1           0        1.267819   -0.663367    0.713266
 ---------------------------------------------------------------------
 Rotational constants (GHZ):     24.3066563      8.9996811      7.3168269
 Standard basis: 6-31+G(d,p) (6D, 7F)
 There are    82 symmetry adapted basis functions of A   symmetry.
 Integral buffers will be    262144 words long.
 Raffenetti 2 integral format.
 Two-electron integral symmetry is turned on.
    82 basis functions,   131 primitive gaussians,    82 cartesian basis functions
    13 alpha electrons       12 beta electrons
       nuclear repulsion energy        68.8333543595 Hartrees.
 NAtoms=    8 NActive=    8 NUniq=    8 SFac= 7.50D-01 NAtFMM=   80 NAOKFM=F Big=F
 One-electron integrals computed using PRISM.
 NBasis=    82 RedAO= T  NBF=    82
 NBsUse=    82 1.00D-06 NBFU=    82
 Initial guess read from the read-write file.
 B after Tr=     0.000000    0.000000    0.000000
         Rot=    1.000000    0.000000    0.000000    0.000000 Ang=   0.00 deg.
 Initial guess orbital symmetries:
 Alpha Orbitals:
       Occupied  (A) (A) (A) (A) (A) (A) (A) (A) (A) (A) (A) (A)
                 (A)
       Virtual   (A) (A) (A) (A) (A) (A) (A) (A) (A) (A) (A) (A)
                 (A) (A) (A) (A) (A) (A) (A) (A) (A) (A) (A) (A)
                 (A) (A) (A) (A) (A) (A) (A) (A) (A) (A) (A) (A)
                 (A) (A) (A) (A) (A) (A) (A) (A) (A) (A) (A) (A)
                 (A) (A) (A) (A) (A) (A) (A) (A) (A) (A) (A) (A)
                 (A) (A) (A) (A) (A) (A) (A) (A) (A)
 Beta  Orbitals:
       Occupied  (A) (A) (A) (A) (A) (A) (A) (A) (A) (A) (A) (A)
       Virtual   (A) (A) (A) (A) (A) (A) (A) (A) (A) (A) (A) (A)
                 (A) (A) (A) (A) (A) (A) (A) (A) (A) (A) (A) (A)
                 (A) (A) (A) (A) (A) (A) (A) (A) (A) (A) (A) (A)
                 (A) (A) (A) (A) (A) (A) (A) (A) (A) (A) (A) (A)
                 (A) (A) (A) (A) (A) (A) (A) (A) (A) (A) (A) (A)
                 (A) (A) (A) (A) (A) (A) (A) (A) (A) (A)
 Initial guess <Sx>= 0.0000 <Sy>= 0.0000 <Sz>= 0.5000 <S**2>= 0.7997 S= 0.5246
 Requested convergence on RMS density matrix=1.00D-08 within 128 cycles.
 Requested convergence on MAX density matrix=1.00D-06.
 Requested convergence on             energy=1.00D-06.
 No special actions if energy rises.
 Keep R1 and R2 ints in memory in canonical form, NReq=12588294.
 SCF Done:  E(UM062X) =  -154.229963777     A.U. after   15 cycles
             Convg  =    0.3227D-08             -V/T =  2.0099
 <Sx>= 0.0000 <Sy>= 0.0000 <Sz>= 0.5000 <S**2>= 0.7993 S= 0.5244
 <L.S>= 0.000000000000E+00
 Annihilation of the first spin contaminant:
 S**2 before annihilation     0.7993,   after     0.7504
 Calling FoFJK, ICntrl=      2127 FMM=F ISym2X=0 I1Cent= 0 IOpClX= 1 NMat=1 NMatS=1 NMatT=0.
 ***** Axes restored to original set *****
 -------------------------------------------------------------------
 Center     Atomic                   Forces (Hartrees/Bohr)
 Number     Number              X              Y              Z
 -------------------------------------------------------------------
      1        6           0.025187051    0.047120530    0.017119045
      2        1           0.003446217   -0.008253215   -0.004244493
      3        1          -0.007806181   -0.001116713   -0.005402596
      4        6          -0.037641423   -0.068034137   -0.018226384
      5        1          -0.007378899    0.020289435   -0.015965192
      6        1           0.021281066    0.003567325   -0.013419687
      7        8          -0.003155967    0.013776294    0.043524875
      8        1           0.006068137   -0.007349519   -0.003385567
 -------------------------------------------------------------------
 Cartesian Forces:  Max     0.068034137 RMS     0.023521311

 GradGradGradGradGradGradGradGradGradGradGradGradGradGradGradGradGradGrad
 Berny optimization.
 Internal  Forces:  Max     0.047678461 RMS     0.015481952
 Search for a saddle point.
 Step number   3 out of a maximum of   38
 All quantities printed in internal units (Hartrees-Bohrs-Radians)
 Swaping is turned off.
 Update second derivatives using D2CorX and points    1    2    3
     Eigenvalues ---   -0.10473   0.00813   0.01009   0.01803   0.01975
     Eigenvalues ---    0.03156   0.04004   0.06530   0.09528   0.09763
     Eigenvalues ---    0.15171   0.16292   0.29979   0.39818   0.39979
     Eigenvalues ---    0.40153   0.40362   0.526931000.000001000.00000
     Eigenvalues --- 1000.000001000.000001000.000001000.000001000.00000
     Eigenvalues --- 1000.000001000.000001000.00000
 Eigenvectors required to have negative eigenvalues:
                          R8        R9        R3        A6        A4
   1                    0.88574   0.26620  -0.21814  -0.15159  -0.09730
                          R4        A13       A3        D2        A14
   1                   -0.09157   0.08878  -0.08521   0.08424  -0.07721
 RFO step:  Lambda0=8.952861293D-03 Lambda=-3.33646876D-02.
 Linear search not attempted -- option 19 set.
 Maximum step size (   0.030) exceeded in Quadratic search.
    -- Step size scaled by   0.048
 Iteration  1 RMS(Cart)=  0.00316162 RMS(Int)=  0.00002844
 Iteration  2 RMS(Cart)=  0.00002142 RMS(Int)=  0.00002052
 Iteration  3 RMS(Cart)=  0.00000000 RMS(Int)=  0.00002052
 Variable       Old X    -DE/DX   Delta X   Delta X   Delta X     New X
                                 (Linear)    (Quad)   (Total)
    R1        2.02440   0.00891   0.00000   0.00116   0.00116   2.02556
    R2        2.02409   0.00785   0.00000   0.00101   0.00101   2.02509
    R3        2.76647  -0.04768   0.00000  -0.01187  -0.01187   2.75461
    R4        4.69223   0.00456   0.00000  -0.00317  -0.00316   4.68906
    R5        4.61836   0.00315   0.00000   0.00082   0.00082   4.61918
    R6        2.02421   0.01099   0.00000   0.00105   0.00105   2.02526
    R7        2.02438   0.01217   0.00000   0.00113   0.00113   2.02550
    R8        3.79414  -0.04464   0.00000   0.00668   0.00668   3.80082
    R9        4.30157  -0.00273   0.00000   0.00699   0.00699   4.30856
   R10        1.81594   0.01393   0.00000   0.00088   0.00087   1.81682
    A1        2.08819  -0.00098   0.00000  -0.00200  -0.00201   2.08619
    A2        2.09820   0.00135   0.00000   0.00127   0.00126   2.09946
    A3        1.91059   0.00189   0.00000  -0.00227  -0.00228   1.90830
    A4        1.51849  -0.00020   0.00000  -0.00264  -0.00265   1.51585
    A5        2.09205   0.00037   0.00000   0.00126   0.00125   2.09331
    A6        1.90620   0.00694   0.00000  -0.00334  -0.00335   1.90286
    A7        2.14190  -0.00751   0.00000  -0.00415  -0.00416   2.13774
    A8        1.97071   0.00995   0.00000   0.00558   0.00553   1.97624
    A9        1.97202   0.01083   0.00000   0.00617   0.00613   1.97815
   A10        1.91918  -0.00231   0.00000   0.00443   0.00436   1.92354
   A11        2.00532  -0.01805   0.00000  -0.00840  -0.00839   1.99693
   A12        2.43943  -0.01546   0.00000  -0.00876  -0.00876   2.43066
   A13        2.00671  -0.02498   0.00000  -0.00749  -0.00748   1.99923
   A14        1.73001  -0.00447   0.00000  -0.00547  -0.00548   1.72453
    D1       -2.61442  -0.01117   0.00000  -0.01056  -0.01058  -2.62500
    D2       -0.42254   0.00280   0.00000   0.00515   0.00518  -0.41735
    D3        0.42235  -0.00301   0.00000  -0.00485  -0.00488   0.41747
    D4        2.61423   0.01096   0.00000   0.01087   0.01089   2.62512
         Item               Value     Threshold  Converged?
 Maximum Force            0.047678     0.000450     NO 
 RMS     Force            0.015482     0.000300     NO 
 Maximum Displacement     0.008422     0.001800     NO 
 RMS     Displacement     0.003160     0.001200     NO 
 Predicted change in Energy=-1.160028D-03
 GradGradGradGradGradGradGradGradGradGradGradGradGradGradGradGradGradGrad

                          Input orientation:                          
 ---------------------------------------------------------------------
 Center     Atomic      Atomic             Coordinates (Angstroms)
 Number     Number       Type             X           Y           Z
 ---------------------------------------------------------------------
      1          6           0       -0.472739    0.753861    0.597653
      2          1           0        0.058181   -0.177229    0.586502
      3          1           0       -1.544294    0.751047    0.585049
      4          6           0        0.249642    2.010305    0.753640
      5          1           0       -0.327282    2.772200    1.238678
      6          1           0        1.197792    1.897381    1.240592
      7          8           0        0.354129    2.193348   -1.246592
      8          1           0        0.861389    1.383389   -1.351378
 ---------------------------------------------------------------------
                    Distance matrix (angstroms):
                    1          2          3          4          5
     1  C    0.000000
     2  H    1.071882   0.000000
     3  H    1.071633   1.851925   0.000000
     4  C    1.457675   2.202249   2.198263   0.000000
     5  H    2.122678   3.045168   2.448144   1.071721   0.000000
     6  H    2.124072   2.455719   3.043494   1.071850   1.758170
     7  O    2.481345   3.011222   3.006518   2.011306   2.641204
     8  H    2.444366   2.614585   3.152288   2.279991   3.170193
                    6          7          8
     6  H    0.000000
     7  O    2.643000   0.000000
     8  H    2.663769   0.961419   0.000000
 Stoichiometry    C2H5O(2)
 Framework group  C1[X(C2H5O)]
 Deg. of freedom    18
 Full point group                 C1      NOp   1
 Largest Abelian subgroup         C1      NOp   1
 Largest concise Abelian subgroup C1      NOp   1
                         Standard orientation:                         
 ---------------------------------------------------------------------
 Center     Atomic      Atomic             Coordinates (Angstroms)
 Number     Number       Type             X           Y           Z
 ---------------------------------------------------------------------
      1          6           0       -1.055263   -0.533659   -0.026627
      2          1           0       -1.309074   -1.054302    0.875283
      3          1           0       -1.380808   -0.922745   -0.970571
      4          6           0       -0.380409    0.756942    0.034525
      5          1           0       -0.612611    1.395081   -0.794600
      6          1           0       -0.540812    1.276677    0.958109
      7          8           0        1.398327   -0.171681   -0.103702
      8          1           0        1.270717   -0.660960    0.714007
 ---------------------------------------------------------------------
 Rotational constants (GHZ):     24.3650809      9.0006534      7.3243912
 Standard basis: 6-31+G(d,p) (6D, 7F)
 There are    82 symmetry adapted basis functions of A   symmetry.
 Integral buffers will be    262144 words long.
 Raffenetti 2 integral format.
 Two-electron integral symmetry is turned on.
    82 basis functions,   131 primitive gaussians,    82 cartesian basis functions
    13 alpha electrons       12 beta electrons
       nuclear repulsion energy        68.8761277097 Hartrees.
 NAtoms=    8 NActive=    8 NUniq=    8 SFac= 7.50D-01 NAtFMM=   80 NAOKFM=F Big=F
 One-electron integrals computed using PRISM.
 NBasis=    82 RedAO= T  NBF=    82
 NBsUse=    82 1.00D-06 NBFU=    82
 Initial guess read from the read-write file.
 B after Tr=     0.000000    0.000000    0.000000
         Rot=    1.000000    0.000000    0.000000    0.000000 Ang=   0.00 deg.
 Initial guess orbital symmetries:
 Alpha Orbitals:
       Occupied  (A) (A) (A) (A) (A) (A) (A) (A) (A) (A) (A) (A)
                 (A)
       Virtual   (A) (A) (A) (A) (A) (A) (A) (A) (A) (A) (A) (A)
                 (A) (A) (A) (A) (A) (A) (A) (A) (A) (A) (A) (A)
                 (A) (A) (A) (A) (A) (A) (A) (A) (A) (A) (A) (A)
                 (A) (A) (A) (A) (A) (A) (A) (A) (A) (A) (A) (A)
                 (A) (A) (A) (A) (A) (A) (A) (A) (A) (A) (A) (A)
                 (A) (A) (A) (A) (A) (A) (A) (A) (A)
 Beta  Orbitals:
       Occupied  (A) (A) (A) (A) (A) (A) (A) (A) (A) (A) (A) (A)
       Virtual   (A) (A) (A) (A) (A) (A) (A) (A) (A) (A) (A) (A)
                 (A) (A) (A) (A) (A) (A) (A) (A) (A) (A) (A) (A)
                 (A) (A) (A) (A) (A) (A) (A) (A) (A) (A) (A) (A)
                 (A) (A) (A) (A) (A) (A) (A) (A) (A) (A) (A) (A)
                 (A) (A) (A) (A) (A) (A) (A) (A) (A) (A) (A) (A)
                 (A) (A) (A) (A) (A) (A) (A) (A) (A) (A)
 Initial guess <Sx>= 0.0000 <Sy>= 0.0000 <Sz>= 0.5000 <S**2>= 0.7992 S= 0.5243
 Requested convergence on RMS density matrix=1.00D-08 within 128 cycles.
 Requested convergence on MAX density matrix=1.00D-06.
 Requested convergence on             energy=1.00D-06.
 No special actions if energy rises.
 Keep R1 and R2 ints in memory in canonical form, NReq=12588294.
 SCF Done:  E(UM062X) =  -154.231123367     A.U. after   15 cycles
             Convg  =    0.3265D-08             -V/T =  2.0098
 <Sx>= 0.0000 <Sy>= 0.0000 <Sz>= 0.5000 <S**2>= 0.7986 S= 0.5240
 <L.S>= 0.000000000000E+00
 Annihilation of the first spin contaminant:
 S**2 before annihilation     0.7986,   after     0.7503
 Calling FoFJK, ICntrl=      2127 FMM=F ISym2X=0 I1Cent= 0 IOpClX= 1 NMat=1 NMatS=1 NMatT=0.
 ***** Axes restored to original set *****
 -------------------------------------------------------------------
 Center     Atomic                   Forces (Hartrees/Bohr)
 Number     Number              X              Y              Z
 -------------------------------------------------------------------
      1        6           0.024082719    0.045058874    0.016700415
      2        1           0.003283989   -0.007879471   -0.004206579
      3        1          -0.007443875   -0.001060370   -0.005362428
      4        6          -0.036210163   -0.065370222   -0.016272996
      5        1          -0.006960862    0.019575194   -0.015856571
      6        1           0.020434826    0.003530577   -0.013356859
      7        8          -0.003042366    0.013118488    0.041754130
      8        1           0.005855733   -0.006973070   -0.003399112
 -------------------------------------------------------------------
 Cartesian Forces:  Max     0.065370222 RMS     0.022569378

 GradGradGradGradGradGradGradGradGradGradGradGradGradGradGradGradGradGrad
 Berny optimization.
 Internal  Forces:  Max     0.045537949 RMS     0.014859045
 Search for a saddle point.
 Step number   4 out of a maximum of   38
 All quantities printed in internal units (Hartrees-Bohrs-Radians)
 Swaping is turned off.
 Update second derivatives using D2CorX and points    1    2    3    4
     Eigenvalues ---   -0.10486   0.00812   0.01007   0.01816   0.01972
     Eigenvalues ---    0.03162   0.03925   0.06524   0.09534   0.09768
     Eigenvalues ---    0.15153   0.16285   0.30180   0.39818   0.39978
     Eigenvalues ---    0.40151   0.40361   0.526921000.000001000.00000
     Eigenvalues --- 1000.000001000.000001000.000001000.000001000.00000
     Eigenvalues --- 1000.000001000.000001000.00000
 Eigenvectors required to have negative eigenvalues:
                          R8        R9        R3        A6        A4
   1                    0.88554   0.26650  -0.21533  -0.15268  -0.09718
                          R4        A13       D2        A3        A14
   1                   -0.09004   0.08903   0.08712  -0.08605  -0.07752
 RFO step:  Lambda0=8.243743653D-03 Lambda=-3.15770778D-02.
 Linear search not attempted -- option 19 set.
 Maximum step size (   0.030) exceeded in Quadratic search.
    -- Step size scaled by   0.049
 Iteration  1 RMS(Cart)=  0.00315188 RMS(Int)=  0.00002902
 Iteration  2 RMS(Cart)=  0.00002182 RMS(Int)=  0.00002093
 Iteration  3 RMS(Cart)=  0.00000000 RMS(Int)=  0.00002093
 Variable       Old X    -DE/DX   Delta X   Delta X   Delta X     New X
                                 (Linear)    (Quad)   (Total)
    R1        2.02556   0.00852   0.00000   0.00114   0.00114   2.02670
    R2        2.02509   0.00751   0.00000   0.00098   0.00098   2.02608
    R3        2.75461  -0.04554   0.00000  -0.01127  -0.01127   2.74334
    R4        4.68906   0.00426   0.00000  -0.00304  -0.00303   4.68603
    R5        4.61918   0.00305   0.00000   0.00093   0.00093   4.62011
    R6        2.02526   0.01050   0.00000   0.00101   0.00101   2.02627
    R7        2.02550   0.01163   0.00000   0.00109   0.00109   2.02659
    R8        3.80082  -0.04272   0.00000   0.00640   0.00640   3.80722
    R9        4.30856  -0.00251   0.00000   0.00696   0.00696   4.31552
   R10        1.81682   0.01329   0.00000   0.00085   0.00085   1.81767
    A1        2.08619  -0.00097   0.00000  -0.00191  -0.00192   2.08427
    A2        2.09946   0.00129   0.00000   0.00119   0.00119   2.10065
    A3        1.90830   0.00182   0.00000  -0.00218  -0.00219   1.90611
    A4        1.51585  -0.00024   0.00000  -0.00252  -0.00253   1.51332
    A5        2.09331   0.00037   0.00000   0.00122   0.00121   2.09452
    A6        1.90286   0.00663   0.00000  -0.00337  -0.00338   1.89948
    A7        2.13774  -0.00732   0.00000  -0.00422  -0.00423   2.13351
    A8        1.97624   0.00951   0.00000   0.00555   0.00550   1.98174
    A9        1.97815   0.01035   0.00000   0.00608   0.00604   1.98419
   A10        1.92354  -0.00227   0.00000   0.00447   0.00440   1.92794
   A11        1.99693  -0.01756   0.00000  -0.00860  -0.00860   1.98833
   A12        2.43066  -0.01506   0.00000  -0.00899  -0.00900   2.42167
   A13        1.99923  -0.02414   0.00000  -0.00754  -0.00753   1.99169
   A14        1.72453  -0.00445   0.00000  -0.00552  -0.00553   1.71901
    D1       -2.62500  -0.01099   0.00000  -0.01071  -0.01073  -2.63573
    D2       -0.41735   0.00282   0.00000   0.00540   0.00543  -0.41192
    D3        0.41747  -0.00301   0.00000  -0.00507  -0.00510   0.41237
    D4        2.62512   0.01080   0.00000   0.01104   0.01106   2.63618
         Item               Value     Threshold  Converged?
 Maximum Force            0.045538     0.000450     NO 
 RMS     Force            0.014859     0.000300     NO 
 Maximum Displacement     0.008477     0.001800     NO 
 RMS     Displacement     0.003150     0.001200     NO 
 Predicted change in Energy=-1.121641D-03
 GradGradGradGradGradGradGradGradGradGradGradGradGradGradGradGradGradGrad

                          Input orientation:                          
 ---------------------------------------------------------------------
 Center     Atomic      Atomic             Coordinates (Angstroms)
 Number     Number       Type             X           Y           Z
 ---------------------------------------------------------------------
      1          6           0       -0.471760    0.755439    0.599625
      2          1           0        0.058492   -0.176675    0.584902
      3          1           0       -1.543774    0.751823    0.582734
      4          6           0        0.247628    2.006369    0.758126
      5          1           0       -0.328234    2.774012    1.236500
      6          1           0        1.200122    1.897668    1.238787
      7          8           0        0.353016    2.192658   -1.245166
      8          1           0        0.861326    1.383006   -1.351366
 ---------------------------------------------------------------------
                    Distance matrix (angstroms):
                    1          2          3          4          5
     1  C    0.000000
     2  H    1.072484   0.000000
     3  H    1.072153   1.851856   0.000000
     4  C    1.451712   2.198059   2.194031   0.000000
     5  H    2.121520   3.046423   2.448305   1.072257   0.000000
     6  H    2.123300   2.456376   3.045050   1.072425   1.761776
     7  O    2.479739   3.008260   3.002505   2.014693   2.638321
     8  H    2.444857   2.612715   3.150181   2.283673   3.169701
                    6          7          8
     6  H    0.000000
     7  O    2.640953   0.000000
     8  H    2.662434   0.961870   0.000000
 Stoichiometry    C2H5O(2)
 Framework group  C1[X(C2H5O)]
 Deg. of freedom    18
 Full point group                 C1      NOp   1
 Largest Abelian subgroup         C1      NOp   1
 Largest concise Abelian subgroup C1      NOp   1
                         Standard orientation:                         
 ---------------------------------------------------------------------
 Center     Atomic      Atomic             Coordinates (Angstroms)
 Number     Number       Type             X           Y           Z
 ---------------------------------------------------------------------
      1          6           0       -1.052920   -0.533394   -0.026618
      2          1           0       -1.303701   -1.057397    0.874910
      3          1           0       -1.374309   -0.926390   -0.970956
      4          6           0       -0.386230    0.754718    0.034701
      5          1           0       -0.610914    1.393330   -0.796819
      6          1           0       -0.539462    1.275533    0.959562
      7          8           0        1.398727   -0.169269   -0.103735
      8          1           0        1.273464   -0.658863    0.714680
 ---------------------------------------------------------------------
 Rotational constants (GHZ):     24.4200008      9.0017384      7.3316855
 Standard basis: 6-31+G(d,p) (6D, 7F)
 There are    82 symmetry adapted basis functions of A   symmetry.
 Integral buffers will be    262144 words long.
 Raffenetti 2 integral format.
 Two-electron integral symmetry is turned on.
    82 basis functions,   131 primitive gaussians,    82 cartesian basis functions
    13 alpha electrons       12 beta electrons
       nuclear repulsion energy        68.9171660226 Hartrees.
 NAtoms=    8 NActive=    8 NUniq=    8 SFac= 7.50D-01 NAtFMM=   80 NAOKFM=F Big=F
 One-electron integrals computed using PRISM.
 NBasis=    82 RedAO= T  NBF=    82
 NBsUse=    82 1.00D-06 NBFU=    82
 Initial guess read from the read-write file.
 B after Tr=     0.000000    0.000000    0.000000
         Rot=    1.000000    0.000000    0.000000    0.000000 Ang=   0.00 deg.
 Initial guess orbital symmetries:
 Alpha Orbitals:
       Occupied  (A) (A) (A) (A) (A) (A) (A) (A) (A) (A) (A) (A)
                 (A)
       Virtual   (A) (A) (A) (A) (A) (A) (A) (A) (A) (A) (A) (A)
                 (A) (A) (A) (A) (A) (A) (A) (A) (A) (A) (A) (A)
                 (A) (A) (A) (A) (A) (A) (A) (A) (A) (A) (A) (A)
                 (A) (A) (A) (A) (A) (A) (A) (A) (A) (A) (A) (A)
                 (A) (A) (A) (A) (A) (A) (A) (A) (A) (A) (A) (A)
                 (A) (A) (A) (A) (A) (A) (A) (A) (A)
 Beta  Orbitals:
       Occupied  (A) (A) (A) (A) (A) (A) (A) (A) (A) (A) (A) (A)
       Virtual   (A) (A) (A) (A) (A) (A) (A) (A) (A) (A) (A) (A)
                 (A) (A) (A) (A) (A) (A) (A) (A) (A) (A) (A) (A)
                 (A) (A) (A) (A) (A) (A) (A) (A) (A) (A) (A) (A)
                 (A) (A) (A) (A) (A) (A) (A) (A) (A) (A) (A) (A)
                 (A) (A) (A) (A) (A) (A) (A) (A) (A) (A) (A) (A)
                 (A) (A) (A) (A) (A) (A) (A) (A) (A) (A)
 Initial guess <Sx>= 0.0000 <Sy>= 0.0000 <Sz>= 0.5000 <S**2>= 0.7985 S= 0.5240
 Requested convergence on RMS density matrix=1.00D-08 within 128 cycles.
 Requested convergence on MAX density matrix=1.00D-06.
 Requested convergence on             energy=1.00D-06.
 No special actions if energy rises.
 Keep R1 and R2 ints in memory in canonical form, NReq=12588294.
 SCF Done:  E(UM062X) =  -154.232244584     A.U. after   14 cycles
             Convg  =    0.9959D-08             -V/T =  2.0098
 <Sx>= 0.0000 <Sy>= 0.0000 <Sz>= 0.5000 <S**2>= 0.7979 S= 0.5236
 <L.S>= 0.000000000000E+00
 Annihilation of the first spin contaminant:
 S**2 before annihilation     0.7979,   after     0.7503
 Calling FoFJK, ICntrl=      2127 FMM=F ISym2X=0 I1Cent= 0 IOpClX= 1 NMat=1 NMatS=1 NMatT=0.
 ***** Axes restored to original set *****
 -------------------------------------------------------------------
 Center     Atomic                   Forces (Hartrees/Bohr)
 Number     Number              X              Y              Z
 -------------------------------------------------------------------
      1        6           0.023004821    0.043042248    0.016267305
      2        1           0.003127494   -0.007515977   -0.004155236
      3        1          -0.007091636   -0.001003353   -0.005311660
      4        6          -0.034807100   -0.062753785   -0.014419132
      5        1          -0.006554637    0.018865930   -0.015727896
      6        1           0.019602911    0.003488266   -0.013271072
      7        8          -0.002927718    0.012486685    0.040025336
      8        1           0.005645864   -0.006610016   -0.003407645
 -------------------------------------------------------------------
 Cartesian Forces:  Max     0.062753785 RMS     0.021640555

 GradGradGradGradGradGradGradGradGradGradGradGradGradGradGradGradGradGrad
 Berny optimization.
 Internal  Forces:  Max     0.043456222 RMS     0.014251248
 Search for a saddle point.
 Step number   5 out of a maximum of   38
 All quantities printed in internal units (Hartrees-Bohrs-Radians)
 Swaping is turned off.
 Update second derivatives using D2CorX and points    1    2    3    4    5
     Eigenvalues ---   -0.10486   0.00812   0.01005   0.01827   0.01969
     Eigenvalues ---    0.03170   0.03848   0.06519   0.09539   0.09773
     Eigenvalues ---    0.15131   0.16276   0.30351   0.39818   0.39976
     Eigenvalues ---    0.40148   0.40360   0.526911000.000001000.00000
     Eigenvalues --- 1000.000001000.000001000.000001000.000001000.00000
     Eigenvalues --- 1000.000001000.000001000.00000
 Eigenvectors required to have negative eigenvalues:
                          R8        R9        R3        A6        A4
   1                    0.88539   0.26672  -0.21276  -0.15365  -0.09707
                          D2        A13       R4        A3        A14
   1                    0.08973   0.08946  -0.08840  -0.08681  -0.07765
 RFO step:  Lambda0=7.593714305D-03 Lambda=-2.98774342D-02.
 Linear search not attempted -- option 19 set.
 Maximum step size (   0.030) exceeded in Quadratic search.
    -- Step size scaled by   0.049
 Iteration  1 RMS(Cart)=  0.00314556 RMS(Int)=  0.00002952
 Iteration  2 RMS(Cart)=  0.00002218 RMS(Int)=  0.00002129
 Iteration  3 RMS(Cart)=  0.00000000 RMS(Int)=  0.00002129
 Variable       Old X    -DE/DX   Delta X   Delta X   Delta X     New X
                                 (Linear)    (Quad)   (Total)
    R1        2.02670   0.00814   0.00000   0.00111   0.00111   2.02781
    R2        2.02608   0.00718   0.00000   0.00096   0.00096   2.02704
    R3        2.74334  -0.04346   0.00000  -0.01069  -0.01069   2.73265
    R4        4.68603   0.00398   0.00000  -0.00289  -0.00289   4.68314
    R5        4.62011   0.00296   0.00000   0.00104   0.00104   4.62115
    R6        2.02627   0.01002   0.00000   0.00097   0.00097   2.02724
    R7        2.02659   0.01110   0.00000   0.00105   0.00105   2.02764
    R8        3.80722  -0.04085   0.00000   0.00615   0.00615   3.81337
    R9        4.31552  -0.00230   0.00000   0.00694   0.00694   4.32246
   R10        1.81767   0.01268   0.00000   0.00083   0.00083   1.81850
    A1        2.08427  -0.00096   0.00000  -0.00183  -0.00184   2.08243
    A2        2.10065   0.00124   0.00000   0.00112   0.00111   2.10176
    A3        1.90611   0.00176   0.00000  -0.00209  -0.00209   1.90402
    A4        1.51332  -0.00027   0.00000  -0.00240  -0.00241   1.51091
    A5        2.09452   0.00036   0.00000   0.00117   0.00117   2.09569
    A6        1.89948   0.00633   0.00000  -0.00340  -0.00341   1.89607
    A7        2.13351  -0.00712   0.00000  -0.00429  -0.00429   2.12922
    A8        1.98174   0.00907   0.00000   0.00550   0.00546   1.98719
    A9        1.98419   0.00989   0.00000   0.00598   0.00594   1.99013
   A10        1.92794  -0.00224   0.00000   0.00450   0.00442   1.93236
   A11        1.98833  -0.01707   0.00000  -0.00879  -0.00879   1.97954
   A12        2.42167  -0.01465   0.00000  -0.00921  -0.00922   2.41245
   A13        1.99169  -0.02331   0.00000  -0.00758  -0.00757   1.98412
   A14        1.71901  -0.00442   0.00000  -0.00555  -0.00555   1.71345
    D1       -2.63573  -0.01081   0.00000  -0.01084  -0.01086  -2.64659
    D2       -0.41192   0.00283   0.00000   0.00564   0.00567  -0.40625
    D3        0.41237  -0.00302   0.00000  -0.00528  -0.00531   0.40706
    D4        2.63618   0.01062   0.00000   0.01120   0.01122   2.64740
         Item               Value     Threshold  Converged?
 Maximum Force            0.043456     0.000450     NO 
 RMS     Force            0.014251     0.000300     NO 
 Maximum Displacement     0.008524     0.001800     NO 
 RMS     Displacement     0.003143     0.001200     NO 
 Predicted change in Energy=-1.082920D-03
 GradGradGradGradGradGradGradGradGradGradGradGradGradGradGradGradGradGrad

                          Input orientation:                          
 ---------------------------------------------------------------------
 Center     Atomic      Atomic             Coordinates (Angstroms)
 Number     Number       Type             X           Y           Z
 ---------------------------------------------------------------------
      1          6           0       -0.470857    0.756852    0.601592
      2          1           0        0.058770   -0.176232    0.583399
      3          1           0       -1.543300    0.752503    0.580376
      4          6           0        0.245694    2.002521    0.762636
      5          1           0       -0.329103    2.775909    1.234142
      6          1           0        1.202466    1.897975    1.236917
      7          8           0        0.351951    2.192077   -1.243575
      8          1           0        0.861194    1.382695   -1.351346
 ---------------------------------------------------------------------
                    Distance matrix (angstroms):
                    1          2          3          4          5
     1  C    0.000000
     2  H    1.073071   0.000000
     3  H    1.072662   1.851806   0.000000
     4  C    1.446054   2.194090   2.190038   0.000000
     5  H    2.120567   3.047794   2.448644   1.072772   0.000000
     6  H    2.122689   2.457124   3.046701   1.072979   1.765356
     7  O    2.478210   3.005441   2.998524   2.017946   2.635105
     8  H    2.445406   2.611011   3.148061   2.287345   3.169007
                    6          7          8
     6  H    0.000000
     7  O    2.638696   0.000000
     8  H    2.661032   0.962310   0.000000
 Stoichiometry    C2H5O(2)
 Framework group  C1[X(C2H5O)]
 Deg. of freedom    18
 Full point group                 C1      NOp   1
 Largest Abelian subgroup         C1      NOp   1
 Largest concise Abelian subgroup C1      NOp   1
                         Standard orientation:                         
 ---------------------------------------------------------------------
 Center     Atomic      Atomic             Coordinates (Angstroms)
 Number     Number       Type             X           Y           Z
 ---------------------------------------------------------------------
      1          6           0       -1.050777   -0.533063   -0.026616
      2          1           0       -1.298706   -1.060225    0.874557
      3          1           0       -1.368006   -0.929850   -0.971353
      4          6           0       -0.391784    0.752635    0.034878
      5          1           0       -0.608610    1.391677   -0.799059
      6          1           0       -0.537715    1.274488    0.960976
      7          8           0        1.399042   -0.167057   -0.103747
      8          1           0        1.276070   -0.657067    0.715282
 ---------------------------------------------------------------------
 Rotational constants (GHZ):     24.4716006      9.0028604      7.3386730
 Standard basis: 6-31+G(d,p) (6D, 7F)
 There are    82 symmetry adapted basis functions of A   symmetry.
 Integral buffers will be    262144 words long.
 Raffenetti 2 integral format.
 Two-electron integral symmetry is turned on.
[...]
   A11        1.65386  -0.00328   0.00000  -0.01034  -0.01033   1.64353
   A12        2.05914  -0.00331   0.00000  -0.01191  -0.01192   2.04721
   A13        1.75648  -0.00421   0.00000  -0.00609  -0.00610   1.75038
   A14        1.59239  -0.00083   0.00000   0.00000   0.00000   1.59239
    D1       -2.97484  -0.00264   0.00000  -0.00720  -0.00721  -2.98205
    D2       -0.16755   0.00115   0.00000   0.00641   0.00641  -0.16114
    D3        0.18852  -0.00118   0.00000  -0.00587  -0.00587   0.18265
    D4        2.99582   0.00260   0.00000   0.00775   0.00775   3.00356
         Item               Value     Threshold  Converged?
 Maximum Force            0.005876     0.000450     NO 
 RMS     Force            0.002211     0.000300     NO 
 Maximum Displacement     0.011857     0.001800     NO 
 RMS     Displacement     0.005264     0.001200     NO 
 Predicted change in Energy=-1.700394D-04
 Optimization stopped.
    -- Number of steps exceeded,  NStep=  38
    -- Flag reset to prevent archiving.
                           ----------------------------
                           ! Non-Optimized Parameters !
                           ! (Angstroms and Degrees)  !
 --------------------------                            --------------------------
 ! Name  Definition              Value          Derivative Info.                !
 --------------------------------------------------------------------------------
 ! R1    R(1,2)                  1.0844         -DE/DX =    0.0011              !
 ! R2    R(1,3)                  1.0828         -DE/DX =    0.001               !
 ! R3    R(1,4)                  1.3603         -DE/DX =   -0.0059              !
 ! R4    R(1,7)                  2.5387         -DE/DX =    0.0007              !
 ! R5    R(1,8)                  2.519          -DE/DX =    0.001               !
 ! R6    R(4,5)                  1.082          -DE/DX =    0.0013              !
 ! R7    R(4,6)                  1.0828         -DE/DX =    0.0015              !
 ! R8    R(4,7)                  2.1127         -DE/DX =   -0.0053              !
 ! R9    R(4,8)                  2.4364         -DE/DX =    0.0002              !
 ! R10   R(7,8)                  0.9715         -DE/DX =    0.0018              !
 ! A1    A(2,1,3)              117.6214         -DE/DX =   -0.0002              !
 ! A2    A(2,1,4)              121.316          -DE/DX =    0.0002              !
 ! A3    A(2,1,7)              109.4019         -DE/DX =    0.0002              !
 ! A4    A(2,1,8)               87.61           -DE/DX =    0.0003              !
 ! A5    A(3,1,4)              121.0499         -DE/DX =    0.0                 !
 ! A6    A(3,1,7)              103.0475         -DE/DX =    0.001               !
 ! A7    A(3,1,8)              111.4461         -DE/DX =   -0.0018              !
 ! A8    A(1,4,5)              120.421          -DE/DX =    0.0009              !
 ! A9    A(1,4,6)              120.5874         -DE/DX =    0.001               !
 ! A10   A(5,4,6)              116.541          -DE/DX =   -0.0008              !
 ! A11   A(5,4,7)               94.1674         -DE/DX =   -0.0033              !
 ! A12   A(5,4,8)              117.2967         -DE/DX =   -0.0033              !
 ! A13   A(6,4,7)              100.2894         -DE/DX =   -0.0042              !
 ! A14   A(6,4,8)               91.2371         -DE/DX =   -0.0008              !
 ! D1    D(2,1,4,5)           -170.8588         -DE/DX =   -0.0026              !
 ! D2    D(2,1,4,6)             -9.2325         -DE/DX =    0.0011              !
 ! D3    D(3,1,4,5)             10.4652         -DE/DX =   -0.0012              !
 ! D4    D(3,1,4,6)            172.0915         -DE/DX =    0.0026              !
 --------------------------------------------------------------------------------
 GradGradGradGradGradGradGradGradGradGradGradGradGradGradGradGradGradGrad

                          Input orientation:                          
 ---------------------------------------------------------------------
 Center     Atomic      Atomic             Coordinates (Angstroms)
 Number     Number       Type             X           Y           Z
 ---------------------------------------------------------------------
      1          6           0       -0.461469    0.748318    0.670315
      2          1           0        0.058349   -0.202086    0.623987
      3          1           0       -1.532040    0.743668    0.509073
      4          6           0        0.209008    1.910893    0.898026
      5          1           0       -0.334330    2.825580    1.094387
      6          1           0        1.251302    1.896189    1.190714
      7          8           0        0.391501    2.257393   -1.175782
      8          1           0        0.794495    1.404345   -1.406577
 ---------------------------------------------------------------------
                    Distance matrix (angstroms):
                    1          2          3          4          5
     1  C    0.000000
     2  H    1.084262   0.000000
     3  H    1.082656   1.853913   0.000000
     4  C    1.361239   2.135995   2.131889   0.000000
     5  H    2.123916   3.089051   2.472137   1.081863   0.000000
     6  H    2.126501   2.479329   3.088678   1.082709   1.840455
     7  O    2.532378   3.065811   2.971551   2.110461   2.450171
     8  H    2.514219   2.691788   3.085284   2.431168   3.090142
                    6          7          8
     6  H    0.000000
     7  O    2.543625   0.000000
     8  H    2.682630   0.971267   0.000000
 Stoichiometry    C2H5O(2)
 Framework group  C1[X(C2H5O)]
 Deg. of freedom    18
 Full point group                 C1      NOp   1
 Largest Abelian subgroup         C1      NOp   1
 Largest concise Abelian subgroup C1      NOp   1
                         Standard orientation:                         
 ---------------------------------------------------------------------
 Center     Atomic      Atomic             Coordinates (Angstroms)
 Number     Number       Type             X           Y           Z
 ---------------------------------------------------------------------
      1          6           0       -1.077311   -0.495594   -0.032510
      2          1           0       -1.343303   -1.044800    0.863730
      3          1           0       -1.281128   -0.963436   -0.987353
      4          6           0       -0.485070    0.728064    0.037374
      5          1           0       -0.366097    1.329256   -0.854164
      6          1           0       -0.406598    1.247619    0.984034
      7          8           0        1.430644   -0.148811   -0.085804
      8          1           0        1.326262   -0.772973    0.651005
 ---------------------------------------------------------------------
 Rotational constants (GHZ):     25.7382754      8.5727013      7.1567535

 **********************************************************************

            Population analysis using the SCF density.

 **********************************************************************

 Orbital symmetries:
 Alpha Orbitals:
       Occupied  (A) (A) (A) (A) (A) (A) (A) (A) (A) (A) (A) (A)
                 (A)
       Virtual   (A) (A) (A) (A) (A) (A) (A) (A) (A) (A) (A) (A)
                 (A) (A) (A) (A) (A) (A) (A) (A) (A) (A) (A) (A)
                 (A) (A) (A) (A) (A) (A) (A) (A) (A) (A) (A) (A)
                 (A) (A) (A) (A) (A) (A) (A) (A) (A) (A) (A) (A)
                 (A) (A) (A) (A) (A) (A) (A) (A) (A) (A) (A) (A)
                 (A) (A) (A) (A) (A) (A) (A) (A) (A)
 Beta  Orbitals:
       Occupied  (A) (A) (A) (A) (A) (A) (A) (A) (A) (A) (A) (A)
       Virtual   (A) (A) (A) (A) (A) (A) (A) (A) (A) (A) (A) (A)
                 (A) (A) (A) (A) (A) (A) (A) (A) (A) (A) (A) (A)
                 (A) (A) (A) (A) (A) (A) (A) (A) (A) (A) (A) (A)
                 (A) (A) (A) (A) (A) (A) (A) (A) (A) (A) (A) (A)
                 (A) (A) (A) (A) (A) (A) (A) (A) (A) (A) (A) (A)
                 (A) (A) (A) (A) (A) (A) (A) (A) (A) (A)
 The electronic state is 2-A.
 Alpha  occ. eigenvalues --  -19.66375 -10.58451 -10.57701  -1.09417  -0.88021
 Alpha  occ. eigenvalues --   -0.68793  -0.56485  -0.51573  -0.50252  -0.46231
 Alpha  occ. eigenvalues --   -0.43993  -0.38513  -0.30959
 Alpha virt. eigenvalues --    0.02159   0.03215   0.04369   0.05346   0.06389
 Alpha virt. eigenvalues --    0.08678   0.09319   0.12463   0.15813   0.16722
 Alpha virt. eigenvalues --    0.20489   0.22425   0.24340   0.27287   0.28495
 Alpha virt. eigenvalues --    0.32240   0.35383   0.37020   0.37677   0.60563
 Alpha virt. eigenvalues --    0.66490   0.72411   0.73127   0.78352   0.93271
 Alpha virt. eigenvalues --    0.94377   0.95738   1.03798   1.05127   1.07820
 Alpha virt. eigenvalues --    1.14406   1.19492   1.24902   1.28897   1.30836
 Alpha virt. eigenvalues --    1.41840   1.46070   1.55987   1.58143   1.64818
 Alpha virt. eigenvalues --    1.67660   1.85699   1.87038   1.97546   2.03626
 Alpha virt. eigenvalues --    2.05347   2.09920   2.18024   2.24138   2.25914
 Alpha virt. eigenvalues --    2.44226   2.47942   2.50399   2.52271   2.61340
 Alpha virt. eigenvalues --    2.63824   2.69072   2.72204   2.74284   2.76729
 Alpha virt. eigenvalues --    2.99613   3.19784   3.33972   3.46343   3.47047
 Alpha virt. eigenvalues --    3.70363   4.07710   4.32104   4.53690
  Beta  occ. eigenvalues --  -19.64917 -10.58484 -10.57444  -1.03945  -0.87069
  Beta  occ. eigenvalues --   -0.68292  -0.56008  -0.50083  -0.48597  -0.43795
  Beta  occ. eigenvalues --   -0.36439  -0.34807
  Beta virt. eigenvalues --   -0.07343   0.03002   0.03378   0.04620   0.05316
  Beta virt. eigenvalues --    0.06603   0.08837   0.08906   0.13107   0.15535
  Beta virt. eigenvalues --    0.16716   0.20732   0.22611   0.24872   0.27471
  Beta virt. eigenvalues --    0.28758   0.32203   0.35742   0.37285   0.38082
  Beta virt. eigenvalues --    0.60846   0.66785   0.72969   0.75114   0.79156
  Beta virt. eigenvalues --    0.94239   0.95260   0.95804   1.04985   1.06279
  Beta virt. eigenvalues --    1.08160   1.14826   1.20181   1.28955   1.30463
  Beta virt. eigenvalues --    1.32050   1.43002   1.47235   1.56983   1.59319
  Beta virt. eigenvalues --    1.65985   1.69923   1.87555   1.89669   1.98610
  Beta virt. eigenvalues --    2.05435   2.06420   2.10159   2.19174   2.24954
  Beta virt. eigenvalues --    2.26261   2.44947   2.48941   2.52033   2.53464
  Beta virt. eigenvalues --    2.61776   2.64501   2.69475   2.73263   2.74790
  Beta virt. eigenvalues --    2.77194   3.00597   3.20403   3.34757   3.46872
  Beta virt. eigenvalues --    3.47819   3.71236   4.11270   4.34049   4.54304
          Condensed to atoms (all electrons):
              1          2          3          4          5          6
     1  C    5.332102   0.383755   0.376256   0.222657  -0.020220  -0.014997
     2  H    0.383755   0.509567  -0.027381  -0.024265   0.003235  -0.005973
     3  H    0.376256  -0.027381   0.489266  -0.010908  -0.005764   0.003235
     4  C    0.222657  -0.024265  -0.010908   5.359634   0.390910   0.373193
     5  H   -0.020220   0.003235  -0.005764   0.390910   0.484256  -0.025626
     6  H   -0.014997  -0.005973   0.003235   0.373193  -0.025626   0.506855
     7  O   -0.038086  -0.001596  -0.001630   0.017989  -0.015655  -0.015468
     8  H    0.029189  -0.000045  -0.000100  -0.017649   0.001307  -0.000306
              7          8
     1  C   -0.038086   0.029189
     2  H   -0.001596  -0.000045
     3  H   -0.001630  -0.000100
     4  C    0.017989  -0.017649
     5  H   -0.015655   0.001307
     6  H   -0.015468  -0.000306
     7  O    8.281597   0.223622
     8  H    0.223622   0.437363
 Mulliken atomic charges:
              1
     1  C   -0.270657
     2  H    0.162703
     3  H    0.177025
     4  C   -0.311561
     5  H    0.187557
     6  H    0.179088
     7  O   -0.450773
     8  H    0.326618
 Sum of Mulliken atomic charges =   0.00000
 Mulliken charges with hydrogens summed into heavy atoms:
              1
     1  C    0.069071
     4  C    0.055083
     7  O   -0.124154
 Sum of Mulliken charges with hydrogens summed into heavy atoms =   0.00000
          Atomic-Atomic Spin Densities.
              1          2          3          4          5          6
     1  C    0.397252   0.002501   0.001896   0.090286  -0.001103  -0.003207
     2  H    0.002501  -0.020454   0.000410  -0.004154   0.000016   0.000037
     3  H    0.001896   0.000410  -0.019103  -0.003834   0.000050   0.000004
     4  C    0.090286  -0.004154  -0.003834  -0.136842   0.003658   0.005479
     5  H   -0.001103   0.000016   0.000050   0.003658   0.009699  -0.000005
     6  H   -0.003207   0.000037   0.000004   0.005479  -0.000005   0.005944
     7  O   -0.051947  -0.000108  -0.000208  -0.080681  -0.003656  -0.001877
     8  H   -0.000673   0.000131   0.000013   0.002765  -0.000016   0.000084
              7          8
     1  C   -0.051947  -0.000673
     2  H   -0.000108   0.000131
     3  H   -0.000208   0.000013
     4  C   -0.080681   0.002765
     5  H   -0.003656  -0.000016
     6  H   -0.001877   0.000084
     7  O    0.870976   0.007012
     8  H    0.007012  -0.033224
 Mulliken atomic spin densities:
              1
     1  C    0.435006
     2  H   -0.021621
     3  H   -0.020772
     4  C   -0.123323
     5  H    0.008644
     6  H    0.006460
     7  O    0.739513
     8  H   -0.023907
 Sum of Mulliken atomic spin densities =   1.00000
 Electronic spatial extent (au):  <R**2>=            204.0436
 Charge=              0.0000 electrons
 Dipole moment (field-independent basis, Debye):
    X=             -1.9060    Y=             -0.4802    Z=              1.2373  Tot=              2.3225
 Quadrupole moment (field-independent basis, Debye-Ang):
   XX=            -23.1306   YY=            -17.6635   ZZ=            -17.7872
   XY=             -0.3395   XZ=              1.8768   YZ=             -1.3207
 Traceless Quadrupole moment (field-independent basis, Debye-Ang):
   XX=             -3.6035   YY=              1.8636   ZZ=              1.7399
   XY=             -0.3395   XZ=              1.8768   YZ=             -1.3207
 Octapole moment (field-independent basis, Debye-Ang**2):
  XXX=              4.4051  YYY=             -0.0044  ZZZ=              0.8521  XYY=              1.3565
  XXY=             -4.3215  XXZ=              2.5472  XZZ=              0.6312  YZZ=             -0.3731
  YYZ=              0.8970  XYZ=             -1.9341
 Hexadecapole moment (field-independent basis, Debye-Ang**3):
 XXXX=           -173.7929 YYYY=            -69.2564 ZZZZ=            -33.3821 XXXY=             -1.5455
 XXXZ=              3.7198 YYYX=             -1.3075 YYYZ=             -1.9302 ZZZX=              1.8157
 ZZZY=             -1.0197 XXYY=            -37.2230 XXZZ=            -31.2741 YYZZ=            -14.2261
 XXYZ=             -2.8640 YYXZ=              1.3595 ZZXY=              0.2172
 N-N= 6.895759531586D+01 E-N=-7.407460227553D+02  KE= 2.279872228226D+02
                          Isotropic Fermi Contact Couplings
        Atom                 a.u.       MegaHertz       Gauss      10(-4) cm-1
     1  C(13)              0.07150      80.37452      28.67963      26.81005
     2  H(1)              -0.00616     -27.55180      -9.83117      -9.19029
     3  H(1)              -0.00607     -27.12594      -9.67921      -9.04824
     4  C(13)              0.00299       3.36161       1.19951       1.12131
     5  H(1)               0.00322      14.38237       5.13199       4.79744
     6  H(1)               0.00178       7.96132       2.84080       2.65561
     7  O(17)              0.16743    -101.49670     -36.21654     -33.85565
     8  H(1)              -0.01300     -58.11693     -20.73756     -19.38572
 --------------------------------------------------------
       Center         ----  Spin Dipole Couplings  ----
                      3XX-RR        3YY-RR        3ZZ-RR
 --------------------------------------------------------
     1   Atom        0.324585     -0.128378     -0.196207
     2   Atom        0.001411     -0.010946      0.009535
     3   Atom        0.000764     -0.015816      0.015052
     4   Atom       -0.052025      0.039947      0.012078
     5   Atom        0.001184      0.009007     -0.010191
     6   Atom        0.001323      0.006976     -0.008299
     7   Atom        2.677407     -1.287950     -1.389457
     8   Atom       -0.037859     -0.000821      0.038680
 --------------------------------------------------------
                        XY            XZ            YZ
 --------------------------------------------------------
     1   Atom       -0.186650      0.002728     -0.001473
     2   Atom        0.001382     -0.014472     -0.025271
     3   Atom       -0.000407      0.013828      0.022403
     4   Atom        0.014602     -0.005025      0.003362
     5   Atom       -0.005201      0.005680     -0.005119
     6   Atom       -0.003208     -0.005647      0.006468
     7   Atom       -0.569045     -0.014790      0.010049
     8   Atom       -0.000608     -0.008250     -0.123492
 --------------------------------------------------------


 ---------------------------------------------------------------------------------
              Anisotropic Spin Dipole Couplings in Principal Axis System
 ---------------------------------------------------------------------------------

       Atom             a.u.   MegaHertz   Gauss  10(-4) cm-1        Axes

              Baa    -0.1964   -26.359    -9.406    -8.792  0.1325  0.3831  0.9141
     1 C(13)  Bbb    -0.1952   -26.190    -9.345    -8.736  0.3108  0.8597 -0.4054
              Bcc     0.3916    52.549    18.751    17.529  0.9412 -0.3379  0.0052
 
              Baa    -0.0297   -15.836    -5.651    -5.282  0.2387  0.7738  0.5867
     2 H(1)   Bbb    -0.0024    -1.255    -0.448    -0.419  0.8879 -0.4186  0.1909
              Bcc     0.0320    17.092     6.099     5.701 -0.3934 -0.4754  0.7870
 
              Baa    -0.0293   -15.616    -5.572    -5.209  0.2399  0.8342 -0.4965
     3 H(1)   Bbb    -0.0024    -1.270    -0.453    -0.424  0.8970 -0.3861 -0.2153
              Bcc     0.0316    16.886     6.025     5.633  0.3713  0.3937  0.8409
 
              Baa    -0.0547    -7.345    -2.621    -2.450  0.9846 -0.1547  0.0818
     4 C(13)  Bbb     0.0123     1.652     0.589     0.551 -0.0937 -0.0713  0.9930
              Bcc     0.0424     5.693     2.031     1.899  0.1478  0.9854  0.0847
 
              Baa    -0.0129    -6.901    -2.462    -2.302 -0.3243  0.1414  0.9353
     5 H(1)   Bbb    -0.0008    -0.443    -0.158    -0.148  0.8183  0.5380  0.2024
              Bcc     0.0138     7.344     2.620     2.450 -0.4746  0.8310 -0.2901
 
              Baa    -0.0121    -6.459    -2.305    -2.154  0.3225 -0.2548  0.9116
     6 H(1)   Bbb     0.0002     0.129     0.046     0.043  0.8321  0.5353 -0.1447
              Bcc     0.0119     6.330     2.259     2.111 -0.4512  0.8053  0.3847
 
              Baa    -1.3921   100.731    35.943    33.600 -0.0397 -0.3086  0.9504
     7 O(17)  Bbb    -1.3654    98.800    35.254    32.956  0.1336  0.9409  0.3111
              Bcc     2.7575  -199.532   -71.198   -66.557  0.9902 -0.1393 -0.0039
 
              Baa    -0.1066   -56.890   -20.300   -18.976  0.0844  0.7569  0.6481
     8 H(1)   Bbb    -0.0376   -20.038    -7.150    -6.684  0.9959 -0.0852 -0.0302
              Bcc     0.1442    76.928    27.450    25.660 -0.0323 -0.6480  0.7610
 

 ---------------------------------------------------------------------------------



 EXPERIENCE IS A WONDERFUL THING.  IT ENABLES
 YOU TO RECOGNIZE A MISTAKE WHEN YOU MAKE IT AGAIN.
           - BACK OF A SUGAR PACKET
 Error termination request processed by link 9999.
 Error termination via Lnk1e in C:\G09W\l9999.exe at Sun Jan 17 11:54:25 2021.
 Job cpu time:  0 days  0 hours  7 minutes 19.0 seconds.
 File lengths (MBytes):  RWF=     15 Int=      0 D2E=      0 Chk=      2 Scr=      1
