 Entering Link 1 = C:\G09W\l1.exe PID=      7024.
  
 Copyright (c) 1988,1990,1992,1993,1995,1998,2003,2009, Gaussian, Inc.
                  All Rights Reserved.
  
 This is part of the Gaussian(R) 09 program.  It is based on
 the Gaussian(R) 03 system (copyright 2003, Gaussian, Inc.),
 the Gaussian(R) 98 system (copyright 1998, Gaussian, Inc.),
 the Gaussian(R) 94 system (copyright 1995, Gaussian, Inc.),
 the Gaussian 92(TM) system (copyright 1992, Gaussian, Inc.),
 the Gaussian 90(TM) system (copyright 1990, Gaussian, Inc.),
 the Gaussian 88(TM) system (copyright 1988, Gaussian, Inc.),
 the Gaussian 86(TM) system (copyright 1986, Carnegie Mellon
 University), and the Gaussian 82(TM) system (copyright 1983,
 Carnegie Mellon University). Gaussian is a federally registered
 trademark of Gaussian, Inc.
  
 This software contains proprietary and confidential information,
 including trade secrets, belonging to Gaussian, Inc.
  
 This software is provided under written license and may be
 used, copied, transmitted, or stored only in accord with that
 written license.
  
 The following legend is applicable only to US Government
 contracts under FAR:
  
                    RESTRICTED RIGHTS LEGEND
  
 Use, reproduction and disclosure by the US Government is
 subject to restrictions as set forth in subparagraphs (a)
 and (c) of the Commercial Computer Software - Restricted
 Rights clause in FAR 52.227-19.
  
 Gaussian, Inc.
 340 Quinnipiac St., Bldg. 40, Wallingford CT 06492
  
  
 ---------------------------------------------------------------
 Warning -- This program may not be used in any manner that
 competes with the business of Gaussian, Inc. or will provide
 assistance to any competitor of Gaussian, Inc.  The licensee
 of this program is prohibited from giving any competitor of
 Gaussian, Inc. access to this program.  By using this program,
 the user acknowledges that Gaussian, Inc. is engaged in the
 business of creating and licensing software in the field of
 computational chemistry and represents and warrants to the
 licensee that it is not a competitor of Gaussian, Inc. and that
 it will not use this program in any manner prohibited above.
 ---------------------------------------------------------------
  

 Cite this work as:
 Gaussian 09, Revision A.02,
 M. J. Frisch, G. W. Trucks, H. B. Schlegel, G. E. Scuseria, 
 M. A. Robb, J. R. Cheeseman, G. Scalmani, V. Barone, B. Mennucci, 
 G. A. Petersson, H. Nakatsuji, M. Caricato, X. Li, H. P. Hratchian, 
 A. F. Izmaylov, J. Bloino, G. Zheng, J. L. Sonnenberg, M. Hada, 
 M. Ehara, K. Toyota, R. Fukuda, J. Hasegawa, M. Ishida, T. Nakajima, 
 Y. Honda, O. Kitao, H. Nakai, T. Vreven, J. A. Montgomery, Jr., 
 J. E. Peralta, F. Ogliaro, M. Bearpark, J. J. Heyd, E. Brothers, 
 K. N. Kudin, V. N. Staroverov, R. Kobayashi, J. Normand, 
 K. Raghavachari, A. Rendell, J. C. Burant, S. S. Iyengar, J. Tomasi, 
 M. Cossi, N. Rega, J. M. Millam, M. Klene, J. E. Knox, J. B. Cross, 
 V. Bakken, C. Adamo, J. Jaramillo, R. Gomperts, R. E. Stratmann, 
 O. Yazyev, A. J. Austin, R. Cammi, C. Pomelli, J. W. Ochterski, 
 R. L. Martin, K. Morokuma, V. G. Zakrzewski, G. A. Voth, 
 P. Salvador, J. J. Dannenberg, S. Dapprich, A. D. Daniels, 
 O. Farkas, J. B. Foresman, J. V. Ortiz, J. Cioslowski, 
 and D. J. Fox, Gaussian, Inc., Wallingford CT, 2009.
 
 ******************************************
 Gaussian 09:  IA32W-G09RevA.02 11-Jun-2009
                17-Jan-2021 
 ******************************************
 %chk=D:\Documents\rayGit\FQ\quimicaComputacional\p3Eteno\estadoDeTransicion\TSET
 HENEOHRADICALB3LYP.chk
 %nprocshared=4
 Will use up to    4 processors via shared memory.
 %mem=1500mb
 -------------------------------------------------------------------
 # opt=(calcfc,ts,noeigen) freq=noraman 6-31+g(d,p) iop(1/8=3) b3lyp
 -------------------------------------------------------------------
 1/5=1,8=3,10=4,11=1,14=-1,18=20,26=3,38=1/1,3;
 2/9=110,12=2,17=6,18=5,40=1/2;
 3/5=1,6=6,7=111,11=2,16=1,25=1,30=1,71=2,74=-5/1,2,3;
 4//1;
 5/5=2,38=5/2;
 8/6=4,10=90,11=11/1;
 11/6=1,8=1,9=11,15=111,16=1/1,2,10;
 10/6=1,7=6,13=1/2;
 6/7=2,8=2,9=2,10=2,28=1/1;
 7/10=1,18=20,25=1/1,2,3,16;
 1/5=1,8=3,10=4,11=1,14=-1,18=20/3(2);
 2/9=110/2;
 99//99;
 2/9=110/2;
 3/5=1,6=6,7=111,11=2,16=1,25=1,30=1,71=1,74=-5/1,2,3;
 4/5=5,16=3/1;
 5/5=2,38=5/2;
 7//1,2,3,16;
 1/5=1,8=3,11=1,14=-1,18=20/3(-5);
 2/9=110/2;
 6/7=2,8=2,9=2,10=2,19=2,28=1/1;
 99/9=1/99;
 ---------------------------------------------
 Transition state Ethene OH radical with B3LYP
 ---------------------------------------------
 Symbolic Z-matrix:
 Charge =  0 Multiplicity = 2
 C                    -0.47616   0.7481    0.59177 
 H                     0.057    -0.17961   0.59177 
 H                    -1.54616   0.7481    0.59177 
 C                     0.25615   2.02258   0.74029 
 H                    -0.32396   2.76735   1.24396 
 H                     1.19098   1.8967    1.24541 
 O                     0.35777   2.19607  -1.24958 
 H                     0.8612    1.38501  -1.35125 
 

 GradGradGradGradGradGradGradGradGradGradGradGradGradGradGradGradGradGrad
 Berny optimization.
 Initialization pass.
                           ----------------------------
                           !    Initial Parameters    !
                           ! (Angstroms and Degrees)  !
 --------------------------                            --------------------------
 ! Name  Definition              Value          Derivative Info.                !
 --------------------------------------------------------------------------------
 ! R1    R(1,2)                  1.07           calculate D2E/DX2 analytically  !
 ! R2    R(1,3)                  1.07           calculate D2E/DX2 analytically  !
 ! R3    R(1,4)                  1.4774         calculate D2E/DX2 analytically  !
 ! R4    R(1,7)                  2.4865         calculate D2E/DX2 analytically  !
 ! R5    R(1,8)                  2.4433         calculate D2E/DX2 analytically  !
 ! R6    R(4,5)                  1.07           calculate D2E/DX2 analytically  !
 ! R7    R(4,6)                  1.07           calculate D2E/DX2 analytically  !
 ! R8    R(4,7)                  2.0            calculate D2E/DX2 analytically  !
 ! R9    R(4,8)                  2.2687         calculate D2E/DX2 analytically  !
 ! R10   R(7,8)                  0.96           calculate D2E/DX2 analytically  !
 ! A1    A(2,1,3)              119.8865         calculate D2E/DX2 analytically  !
 ! A2    A(2,1,4)              120.0628         calculate D2E/DX2 analytically  !
 ! A3    A(2,1,7)              109.7414         calculate D2E/DX2 analytically  !
 ! A4    A(2,1,8)               87.3215         calculate D2E/DX2 analytically  !
 ! A5    A(3,1,4)              119.7151         calculate D2E/DX2 analytically  !
 ! A6    A(3,1,7)              109.5959         calculate D2E/DX2 analytically  !
 ! A7    A(3,1,8)              123.1866         calculate D2E/DX2 analytically  !
 ! A8    A(1,4,5)              112.2738         calculate D2E/DX2 analytically  !
 ! A9    A(1,4,6)              112.2738         calculate D2E/DX2 analytically  !
 ! A10   A(5,4,6)              109.4712         calculate D2E/DX2 analytically  !
 ! A11   A(5,4,7)              115.8176         calculate D2E/DX2 analytically  !
 ! A12   A(5,4,8)              140.7288         calculate D2E/DX2 analytically  !
 ! A13   A(6,4,7)              115.8176         calculate D2E/DX2 analytically  !
 ! A14   A(6,4,8)               99.7386         calculate D2E/DX2 analytically  !
 ! D1    D(2,1,4,5)           -148.6203         calculate D2E/DX2 analytically  !
 ! D2    D(2,1,4,6)            -24.77           calculate D2E/DX2 analytically  !
 ! D3    D(3,1,4,5)             24.7212         calculate D2E/DX2 analytically  !
 ! D4    D(3,1,4,6)            148.5715         calculate D2E/DX2 analytically  !
 --------------------------------------------------------------------------------
 Trust Radius=3.00D-02 FncErr=1.00D-07 GrdErr=1.00D-06
 Number of steps in this run=  38 maximum allowed number of steps= 100.
 Search for a saddle point of order  1.
 GradGradGradGradGradGradGradGradGradGradGradGradGradGradGradGradGradGrad

                          Input orientation:                          
 ---------------------------------------------------------------------
 Center     Atomic      Atomic             Coordinates (Angstroms)
 Number     Number       Type             X           Y           Z
 ---------------------------------------------------------------------
      1          6           0       -0.476164    0.748099    0.591772
      2          1           0        0.057000   -0.179606    0.591772
      3          1           0       -1.546164    0.748099    0.591772
      4          6           0        0.256154    2.022581    0.740285
      5          1           0       -0.323955    2.767350    1.243962
      6          1           0        1.190980    1.896698    1.245413
      7          8           0        0.357767    2.196070   -1.249583
      8          1           0        0.861198    1.385009   -1.351252
 ---------------------------------------------------------------------
                    Distance matrix (angstroms):
                    1          2          3          4          5
     1  C    0.000000
     2  H    1.070000   0.000000
     3  H    1.070000   1.852234   0.000000
     4  C    1.477379   2.216155   2.212399   0.000000
     5  H    2.127415   3.042208   2.448780   1.070000   0.000000
     6  H    2.127415   2.454424   3.039487   1.070000   1.747303
     7  O    2.486493   3.020742   3.018635   2.000000   2.647428
     8  H    2.443263   2.621086   3.158542   2.268723   3.170267
                    6          7          8
     6  H    0.000000
     7  O    2.647428   0.000000
     8  H    2.667068   0.960000   0.000000
 Stoichiometry    C2H5O(2)
 Framework group  C1[X(C2H5O)]
 Deg. of freedom    18
 Full point group                 C1      NOp   1
 Largest Abelian subgroup         C1      NOp   1
 Largest concise Abelian subgroup C1      NOp   1
                         Standard orientation:                         
 ---------------------------------------------------------------------
 Center     Atomic      Atomic             Coordinates (Angstroms)
 Number     Number       Type             X           Y           Z
 ---------------------------------------------------------------------
      1          6           0       -1.063630   -0.533824   -0.026691
      2          1           0       -1.327523   -1.043244    0.876499
      3          1           0       -1.401677   -0.910367   -0.969474
      4          6           0       -0.361062    0.764390    0.034030
      5          1           0       -0.613513    1.401001   -0.788098
      6          1           0       -0.541844    1.280752    0.953588
      7          8           0        1.396401   -0.180283   -0.103510
      8          1           0        1.261497   -0.669277    0.711527
 ---------------------------------------------------------------------
 Rotational constants (GHZ):     24.1838312      8.9988806      7.3018204
 Standard basis: 6-31+G(d,p) (6D, 7F)
 There are    82 symmetry adapted basis functions of A   symmetry.
 Integral buffers will be    262144 words long.
 Raffenetti 2 integral format.
 Two-electron integral symmetry is turned on.
    82 basis functions,   131 primitive gaussians,    82 cartesian basis functions
    13 alpha electrons       12 beta electrons
       nuclear repulsion energy        68.7463623045 Hartrees.
 NAtoms=    8 NActive=    8 NUniq=    8 SFac= 7.50D-01 NAtFMM=   80 NAOKFM=F Big=F
 One-electron integrals computed using PRISM.
 NBasis=    82 RedAO= T  NBF=    82
 NBsUse=    82 1.00D-06 NBFU=    82
 Harris functional with IExCor=  402 diagonalized for initial guess.
 ExpMin= 4.38D-02 ExpMax= 5.48D+03 ExpMxC= 8.25D+02 IAcc=2 IRadAn=         0 AccDes= 0.00D+00
 HarFok:  IExCor=  402 AccDes= 0.00D+00 IRadAn=         0 IDoV= 1
 ScaDFX=  1.000000  1.000000  1.000000  1.000000
 FoFCou: FMM=F IPFlag=           0 FMFlag=      100000 FMFlg1=           0
         NFxFlg=           0 DoJE=T BraDBF=F KetDBF=T FulRan=T
         Omega=  0.000000  0.000000  1.000000  0.000000  0.000000 ICntrl=     500 IOpCl=  0
         NMat0=    1 NMatS0=    1 NMatT0=    0 NMatD0=    1 NMtDS0=    0 NMtDT0=    0
         I1Cent=           4 NGrid=           0.
 Petite list used in FoFCou.
 Initial guess orbital symmetries:
 Alpha Orbitals:
       Occupied  (A) (A) (A) (A) (A) (A) (A) (A) (A) (A) (A) (A)
                 (A)
       Virtual   (A) (A) (A) (A) (A) (A) (A) (A) (A) (A) (A) (A)
                 (A) (A) (A) (A) (A) (A) (A) (A) (A) (A) (A) (A)
                 (A) (A) (A) (A) (A) (A) (A) (A) (A) (A) (A) (A)
                 (A) (A) (A) (A) (A) (A) (A) (A) (A) (A) (A) (A)
                 (A) (A) (A) (A) (A) (A) (A) (A) (A) (A) (A) (A)
                 (A) (A) (A) (A) (A) (A) (A) (A) (A)
 Beta  Orbitals:
       Occupied  (A) (A) (A) (A) (A) (A) (A) (A) (A) (A) (A) (A)
       Virtual   (A) (A) (A) (A) (A) (A) (A) (A) (A) (A) (A) (A)
                 (A) (A) (A) (A) (A) (A) (A) (A) (A) (A) (A) (A)
                 (A) (A) (A) (A) (A) (A) (A) (A) (A) (A) (A) (A)
                 (A) (A) (A) (A) (A) (A) (A) (A) (A) (A) (A) (A)
                 (A) (A) (A) (A) (A) (A) (A) (A) (A) (A) (A) (A)
                 (A) (A) (A) (A) (A) (A) (A) (A) (A) (A)
 The electronic state of the initial guess is 2-A.
 Initial guess <Sx>= 0.0000 <Sy>= 0.0000 <Sz>= 0.5000 <S**2>= 0.7500 S= 0.5000
 Requested convergence on RMS density matrix=1.00D-08 within 128 cycles.
 Requested convergence on MAX density matrix=1.00D-06.
 Requested convergence on             energy=1.00D-06.
 No special actions if energy rises.
 Keep R1 and R2 ints in memory in canonical form, NReq=12587911.
 SCF Done:  E(UB3LYP) =  -154.325278763     A.U. after   17 cycles
             Convg  =    0.7260D-08             -V/T =  2.0106
 <Sx>= 0.0000 <Sy>= 0.0000 <Sz>= 0.5000 <S**2>= 0.7877 S= 0.5187
 <L.S>= 0.000000000000E+00
 Annihilation of the first spin contaminant:
 S**2 before annihilation     0.7877,   after     0.7502
 Range of M.O.s used for correlation:     1    82
 NBasis=    82 NAE=    13 NBE=    12 NFC=     0 NFV=     0
 NROrb=     82 NOA=    13 NOB=    12 NVA=    69 NVB=    70

 **** Warning!!: The largest alpha MO coefficient is  0.29188876D+02


 **** Warning!!: The largest beta MO coefficient is  0.28495718D+02

 Symmetrizing basis deriv contribution to polar:
 IMax=3 JMax=2 DiffMx= 0.00D+00
 G2DrvN: will do     9 centers at a time, making    1 passes doing MaxLOS=2.
 Calling FoFCou, ICntrl=  3107 FMM=F I1Cent=   0 AccDes= 0.00D+00.
 FoFDir/FoFCou used for L=0 through L=2.
 End of G2Drv Frequency-dependent properties file   721 does not exist.
 End of G2Drv Frequency-dependent properties file   722 does not exist.
          IDoAtm=11111111
          Differentiating once with respect to nuclear coordinates.
          Keep R1 and R2 ints in memory in canonical form, NReq=12405557.
          There are    27 degrees of freedom in the 1st order CPHF.  IDoFFX=5.
     21 vectors produced by pass  0 Test12= 6.43D-11 3.70D-07 XBig12= 2.71D-01 2.62D-01.
 AX will form    21 AO Fock derivatives at one time.
     21 vectors produced by pass  1 Test12= 6.43D-11 3.70D-07 XBig12= 3.33D-02 6.07D-02.
     21 vectors produced by pass  2 Test12= 6.43D-11 3.70D-07 XBig12= 3.28D-04 4.12D-03.
     21 vectors produced by pass  3 Test12= 6.43D-11 3.70D-07 XBig12= 2.82D-06 4.68D-04.
     21 vectors produced by pass  4 Test12= 6.43D-11 3.70D-07 XBig12= 2.13D-08 2.61D-05.
      4 vectors produced by pass  5 Test12= 6.43D-11 3.70D-07 XBig12= 9.37D-11 1.72D-06.
 Inverted reduced A of dimension   109 with in-core refinement.
 End of Minotr Frequency-dependent properties file   721 does not exist.
 End of Minotr Frequency-dependent properties file   722 does not exist.

 **********************************************************************

            Population analysis using the SCF density.

 **********************************************************************

 Orbital symmetries:
 Alpha Orbitals:
       Occupied  (A) (A) (A) (A) (A) (A) (A) (A) (A) (A) (A) (A)
                 (A)
       Virtual   (A) (A) (A) (A) (A) (A) (A) (A) (A) (A) (A) (A)
                 (A) (A) (A) (A) (A) (A) (A) (A) (A) (A) (A) (A)
                 (A) (A) (A) (A) (A) (A) (A) (A) (A) (A) (A) (A)
                 (A) (A) (A) (A) (A) (A) (A) (A) (A) (A) (A) (A)
                 (A) (A) (A) (A) (A) (A) (A) (A) (A) (A) (A) (A)
                 (A) (A) (A) (A) (A) (A) (A) (A) (A)
 Beta  Orbitals:
       Occupied  (A) (A) (A) (A) (A) (A) (A) (A) (A) (A) (A) (A)
       Virtual   (A) (A) (A) (A) (A) (A) (A) (A) (A) (A) (A) (A)
                 (A) (A) (A) (A) (A) (A) (A) (A) (A) (A) (A) (A)
                 (A) (A) (A) (A) (A) (A) (A) (A) (A) (A) (A) (A)
                 (A) (A) (A) (A) (A) (A) (A) (A) (A) (A) (A) (A)
                 (A) (A) (A) (A) (A) (A) (A) (A) (A) (A) (A) (A)
                 (A) (A) (A) (A) (A) (A) (A) (A) (A) (A)
 The electronic state is 2-A.
 Alpha  occ. eigenvalues --  -19.16750 -10.25264 -10.23074  -0.96825  -0.77745
 Alpha  occ. eigenvalues --   -0.62630  -0.49415  -0.43845  -0.43172  -0.39492
 Alpha  occ. eigenvalues --   -0.36957  -0.29659  -0.23922
 Alpha virt. eigenvalues --   -0.04391   0.00823   0.02766   0.03515   0.05062
 Alpha virt. eigenvalues --    0.07571   0.08066   0.10477   0.13290   0.14397
 Alpha virt. eigenvalues --    0.16628   0.20853   0.21089   0.24583   0.25119
 Alpha virt. eigenvalues --    0.26757   0.29260   0.30757   0.35359   0.59183
 Alpha virt. eigenvalues --    0.60804   0.65521   0.66399   0.68053   0.76281
 Alpha virt. eigenvalues --    0.89852   0.90925   0.97894   0.99586   1.01588
 Alpha virt. eigenvalues --    1.03671   1.13073   1.15549   1.21133   1.24827
 Alpha virt. eigenvalues --    1.33754   1.40349   1.51405   1.56389   1.62083
 Alpha virt. eigenvalues --    1.62676   1.74172   1.83311   1.92919   1.93795
 Alpha virt. eigenvalues --    1.96649   2.10398   2.13058   2.20026   2.26786
 Alpha virt. eigenvalues --    2.33915   2.37045   2.46992   2.47319   2.55800
 Alpha virt. eigenvalues --    2.57986   2.67839   2.69993   2.73607   2.80374
 Alpha virt. eigenvalues --    2.90187   3.27588   3.40945   3.42502   3.47232
 Alpha virt. eigenvalues --    3.53770   4.08251   4.27873   4.46717
  Beta  occ. eigenvalues --  -19.15358 -10.25466 -10.22119  -0.93374  -0.76433
  Beta  occ. eigenvalues --   -0.61531  -0.49022  -0.42750  -0.41982  -0.39276
  Beta  occ. eigenvalues --   -0.32548  -0.27754
  Beta virt. eigenvalues --   -0.11007  -0.02165   0.01020   0.02817   0.03682
  Beta virt. eigenvalues --    0.05522   0.07810   0.08037   0.10931   0.13829
  Beta virt. eigenvalues --    0.14498   0.16950   0.21146   0.21961   0.24928
  Beta virt. eigenvalues --    0.25357   0.27260   0.29435   0.30914   0.35561
  Beta virt. eigenvalues --    0.59465   0.61000   0.65864   0.67950   0.70700
  Beta virt. eigenvalues --    0.76605   0.90523   0.91028   0.98566   1.00605
  Beta virt. eigenvalues --    1.01641   1.03889   1.13509   1.18869   1.21887
  Beta virt. eigenvalues --    1.25787   1.34813   1.43082   1.52712   1.56454
  Beta virt. eigenvalues --    1.62552   1.64373   1.75906   1.85316   1.93149
  Beta virt. eigenvalues --    1.96649   1.98425   2.10297   2.14514   2.20017
  Beta virt. eigenvalues --    2.28129   2.34669   2.36985   2.47751   2.48648
  Beta virt. eigenvalues --    2.57575   2.58332   2.67893   2.70802   2.73674
  Beta virt. eigenvalues --    2.80642   2.90326   3.27628   3.41266   3.42654
  Beta virt. eigenvalues --    3.47785   3.54049   4.09867   4.29137   4.47387
          Condensed to atoms (all electrons):
              1          2          3          4          5          6
     1  C    5.386833   0.376640   0.376333   0.181400  -0.030625  -0.022143
     2  H    0.376640   0.528552  -0.030926  -0.024028   0.004262  -0.007477
     3  H    0.376333  -0.030926   0.507175  -0.015687  -0.006954   0.004149
     4  C    0.181400  -0.024028  -0.015687   5.307073   0.392564   0.362894
     5  H   -0.030625   0.004262  -0.006954   0.392564   0.527376  -0.042967
     6  H   -0.022143  -0.007477   0.004149   0.362894  -0.042967   0.556959
     7  O   -0.038865  -0.002081   0.000055   0.047267  -0.011542  -0.013158
     8  H    0.021623   0.000319  -0.000013  -0.002115   0.001798  -0.002044
              7          8
     1  C   -0.038865   0.021623
     2  H   -0.002081   0.000319
     3  H    0.000055  -0.000013
     4  C    0.047267  -0.002115
     5  H   -0.011542   0.001798
     6  H   -0.013158  -0.002044
     7  O    8.270509   0.204975
     8  H    0.204975   0.468212
 Mulliken atomic charges:
              1
     1  C   -0.251197
     2  H    0.154738
     3  H    0.165867
     4  C   -0.249368
     5  H    0.166088
     6  H    0.163788
     7  O   -0.457161
     8  H    0.307244
 Sum of Mulliken atomic charges =   0.00000
 Mulliken charges with hydrogens summed into heavy atoms:
              1
     1  C    0.069408
     4  C    0.080508
     7  O   -0.149916
 Sum of Mulliken charges with hydrogens summed into heavy atoms =   0.00000
          Atomic-Atomic Spin Densities.
              1          2          3          4          5          6
     1  C    0.796842   0.003204   0.002214   0.025429  -0.004170  -0.005770
     2  H    0.003204  -0.031549   0.000794  -0.006159  -0.000026   0.000371
     3  H    0.002214   0.000794  -0.030758  -0.005085   0.000384  -0.000012
     4  C    0.025429  -0.006159  -0.005085  -0.111695   0.004349   0.007780
     5  H   -0.004170  -0.000026   0.000384   0.004349   0.005148   0.000233
     6  H   -0.005770   0.000371  -0.000012   0.007780   0.000233   0.003051
     7  O   -0.058853  -0.000084  -0.000917  -0.084953  -0.001497  -0.002514
     8  H    0.001440   0.000004   0.000028   0.002852  -0.000028   0.000276
              7          8
     1  C   -0.058853   0.001440
     2  H   -0.000084   0.000004
     3  H   -0.000917   0.000028
     4  C   -0.084953   0.002852
     5  H   -0.001497  -0.000028
     6  H   -0.002514   0.000276
     7  O    0.622222   0.003870
     8  H    0.003870  -0.019580
 Mulliken atomic spin densities:
              1
     1  C    0.760336
     2  H   -0.033445
     3  H   -0.033352
     4  C   -0.167482
     5  H    0.004393
     6  H    0.003415
     7  O    0.477273
     8  H   -0.011138
 Sum of Mulliken atomic spin densities =   1.00000
 APT atomic charges:
              1
     1  C   -0.702934
     2  H    0.411928
     3  H    0.435937
     4  C   -0.836491
     5  H    0.453736
     6  H    0.430899
     7  O   -0.634860
     8  H    0.441786
 Sum of APT charges=   0.00000
 APT Atomic charges with hydrogens summed into heavy atoms:
              1
     1  C    0.144930
     2  H    0.000000
     3  H    0.000000
     4  C    0.048143
     5  H    0.000000
     6  H    0.000000
     7  O   -0.193073
     8  H    0.000000
 Sum of APT charges=   0.00000
 Electronic spatial extent (au):  <R**2>=            202.8598
 Charge=              0.0000 electrons
 Dipole moment (field-independent basis, Debye):
    X=             -2.6880    Y=              0.0674    Z=              1.3594  Tot=              3.0129
 Quadrupole moment (field-independent basis, Debye-Ang):
   XX=            -23.2921   YY=            -18.2070   ZZ=            -17.8832
   XY=             -0.6625   XZ=              2.1077   YZ=             -1.3304
 Traceless Quadrupole moment (field-independent basis, Debye-Ang):
   XX=             -3.4980   YY=              1.5871   ZZ=              1.9109
   XY=             -0.6625   XZ=              2.1077   YZ=             -1.3304
 Octapole moment (field-independent basis, Debye-Ang**2):
  XXX=              0.9847  YYY=              1.4142  ZZZ=              1.0442  XYY=             -0.2362
  XXY=             -2.9141  XXZ=              2.0649  XZZ=              0.2252  YZZ=             -0.4696
  YYZ=              0.8895  XYZ=             -1.6286
 Hexadecapole moment (field-independent basis, Debye-Ang**3):
 XXXX=           -173.7038 YYYY=            -74.9574 ZZZZ=            -33.7975 XXXY=             -2.0785
 XXXZ=              4.3425 YYYX=             -3.0835 YYYZ=             -2.0524 ZZZX=              2.0453
 ZZZY=             -1.2295 XXYY=            -37.0598 XXZZ=            -29.7573 YYZZ=            -15.7693
 XXYZ=             -2.4300 YYXZ=              1.3055 ZZXY=             -0.4175
 N-N= 6.874636230450D+01 E-N=-7.404397044455D+02  KE= 2.279518943667D+02
  Exact polarizability:   0.000   0.000   0.000   0.000   0.000   0.000
 Approx polarizability:  76.742   1.730  48.506  -1.619   0.146  34.945
                          Isotropic Fermi Contact Couplings
        Atom                 a.u.       MegaHertz       Gauss      10(-4) cm-1
     1  C(13)              0.07712      86.69753      30.93583      28.91918
     2  H(1)              -0.01016     -45.41646     -16.20572     -15.14930
     3  H(1)              -0.01027     -45.91550     -16.38379     -15.31576
     4  C(13)             -0.00879      -9.87827      -3.52481      -3.29504
     5  H(1)               0.00104       4.63087       1.65241       1.54469
     6  H(1)               0.00064       2.86107       1.02090       0.95435
     7  O(17)              0.09934     -60.22210     -21.48874     -20.08793
     8  H(1)              -0.00764     -34.16431     -12.19068     -11.39599
 --------------------------------------------------------
       Center         ----  Spin Dipole Couplings  ----
                      3XX-RR        3YY-RR        3ZZ-RR
 --------------------------------------------------------
     1   Atom        0.495556     -0.138194     -0.357362
     2   Atom       -0.003236     -0.017453      0.020688
     3   Atom        0.001395     -0.028567      0.027172
     4   Atom       -0.121544      0.074082      0.047463
     5   Atom        0.000465      0.012242     -0.012707
     6   Atom        0.000694      0.011568     -0.012262
     7   Atom        1.922304     -0.923587     -0.998718
     8   Atom       -0.021361     -0.030871      0.052231
 --------------------------------------------------------
                        XY            XZ            YZ
 --------------------------------------------------------
     1   Atom       -0.443504     -0.073518      0.037738
     2   Atom       -0.008344     -0.024560     -0.039218
     3   Atom       -0.008428      0.026513      0.032098
     4   Atom        0.027586      0.008798      0.000525
     5   Atom        0.002144     -0.000664     -0.000955
     6   Atom        0.002574      0.000121      0.004091
     7   Atom       -0.510097      0.027486     -0.027117
     8   Atom       -0.002105     -0.000915     -0.075988
 --------------------------------------------------------


 ---------------------------------------------------------------------------------
              Anisotropic Spin Dipole Couplings in Principal Axis System
 ---------------------------------------------------------------------------------

       Atom             a.u.   MegaHertz   Gauss  10(-4) cm-1        Axes

              Baa    -0.3664   -49.167   -17.544   -16.400  0.4593  0.8878  0.0288
     1 C(13)  Bbb    -0.3636   -48.797   -17.412   -16.277  0.0542 -0.0603  0.9967
              Bcc     0.7300    97.964    34.956    32.677  0.8866 -0.4562 -0.0758
 
              Baa    -0.0510   -27.200    -9.706    -9.073  0.4072  0.7352  0.5419
     2 H(1)   Bbb     0.0003     0.174     0.062     0.058  0.8578 -0.5116  0.0494
              Bcc     0.0507    27.026     9.644     9.015 -0.3135 -0.4447  0.8390
 
              Baa    -0.0506   -26.980    -9.627    -9.000  0.3656  0.8097 -0.4590
     3 H(1)   Bbb    -0.0005    -0.266    -0.095    -0.089  0.8366 -0.5020 -0.2193
              Bcc     0.0511    27.246     9.722     9.088  0.4080  0.3038  0.8609
 
              Baa    -0.1258   -16.880    -6.023    -5.631  0.9894 -0.1364 -0.0498
     4 C(13)  Bbb     0.0478     6.414     2.289     2.139  0.0415 -0.0634  0.9971
              Bcc     0.0780    10.466     3.735     3.491  0.1392  0.9886  0.0571
 
              Baa    -0.0128    -6.813    -2.431    -2.273  0.0445  0.0343  0.9984
     5 H(1)   Bbb     0.0001     0.056     0.020     0.019  0.9835 -0.1767 -0.0378
              Bcc     0.0127     6.757     2.411     2.254  0.1752  0.9837 -0.0416
 
              Baa    -0.0130    -6.910    -2.466    -2.305  0.0227 -0.1669  0.9857
     6 H(1)   Bbb     0.0002     0.085     0.030     0.028  0.9781 -0.2004 -0.0565
              Bcc     0.0128     6.825     2.435     2.277  0.2070  0.9654  0.1587
 
              Baa    -1.0286    74.431    26.559    24.827  0.1313  0.7915  0.5969
     7 O(17)  Bbb    -0.9827    71.106    25.372    23.718 -0.1106 -0.5867  0.8022
              Bcc     2.0113  -145.537   -51.931   -48.546  0.9852 -0.1713  0.0105
 
              Baa    -0.0760   -40.561   -14.473   -13.530  0.0416  0.8595  0.5095
     8 H(1)   Bbb    -0.0213   -11.347    -4.049    -3.785  0.9991 -0.0346 -0.0233
              Bcc     0.0973    51.908    18.522    17.315  0.0024 -0.5100  0.8601
 

 ---------------------------------------------------------------------------------

 Calling FoFJK, ICntrl=    100147 FMM=F ISym2X=0 I1Cent= 0 IOpClX= 1 NMat=1 NMatS=1 NMatT=0.
 ***** Axes restored to original set *****
 -------------------------------------------------------------------
 Center     Atomic                   Forces (Hartrees/Bohr)
 Number     Number              X              Y              Z
 -------------------------------------------------------------------
      1        6           0.027051999    0.051322406    0.016977812
      2        1           0.004230410   -0.010152613   -0.004316579
      3        1          -0.009744159   -0.001465819   -0.005551708
      4        6          -0.040244964   -0.073446126   -0.011161311
      5        1          -0.008144602    0.022309351   -0.015737997
      6        1           0.023407367    0.004088602   -0.012875235
      7        8          -0.004478016    0.017068033    0.036655205
      8        1           0.007921966   -0.009723834   -0.003990187
 -------------------------------------------------------------------
 Cartesian Forces:  Max     0.073446126 RMS     0.024520791

 GradGradGradGradGradGradGradGradGradGradGradGradGradGradGradGradGradGrad
 Berny optimization.
 Internal  Forces:  Max     0.049993612 RMS     0.015497461
 Search for a saddle point.
 Step number   1 out of a maximum of   38
 All quantities printed in internal units (Hartrees-Bohrs-Radians)
 Swaping is turned off.
 Second derivative matrix not updated -- analytic derivatives used.
     Eigenvalues ---   -0.07576   0.00760   0.00919   0.01728   0.01844
     Eigenvalues ---    0.02669   0.03980   0.05799   0.09396   0.09662
     Eigenvalues ---    0.14942   0.16261   0.29289   0.39552   0.39892
     Eigenvalues ---    0.39963   0.40018   0.516371000.000001000.00000
     Eigenvalues --- 1000.000001000.000001000.000001000.000001000.00000
     Eigenvalues --- 1000.000001000.000001000.00000
 Eigenvectors required to have negative eigenvalues:
                          R8        R9        R3        A6        R4
   1                    0.88522   0.27825  -0.18733  -0.15102  -0.11926
                          A4        A13       A3        A14       D2
   1                   -0.10202   0.09373  -0.08661  -0.08479   0.08123
 RFO step:  Lambda0=8.662873362D-03 Lambda=-3.50881339D-02.
 Linear search not attempted -- option 19 set.
 Maximum step size (   0.030) exceeded in Quadratic search.
    -- Step size scaled by   0.046
 Iteration  1 RMS(Cart)=  0.00313856 RMS(Int)=  0.00002775
 Iteration  2 RMS(Cart)=  0.00002057 RMS(Int)=  0.00002028
 Iteration  3 RMS(Cart)=  0.00000000 RMS(Int)=  0.00002028
 Variable       Old X    -DE/DX   Delta X   Delta X   Delta X     New X
                                 (Linear)    (Quad)   (Total)
    R1        2.02201   0.01091   0.00000   0.00127   0.00127   2.02327
    R2        2.02201   0.00975   0.00000   0.00113   0.00113   2.02313
    R3        2.79184  -0.04999   0.00000  -0.01203  -0.01203   2.77982
    R4        4.69879   0.00512   0.00000  -0.00260  -0.00259   4.69620
    R5        4.61710   0.00331   0.00000   0.00145   0.00145   4.61854
    R6        2.02201   0.01254   0.00000   0.00117   0.00117   2.02318
    R7        2.02201   0.01389   0.00000   0.00125   0.00125   2.02326
    R8        3.77945  -0.03801   0.00000   0.00861   0.00861   3.78806
    R9        4.28726  -0.00229   0.00000   0.00772   0.00772   4.29498
   R10        1.81414   0.01639   0.00000   0.00104   0.00104   1.81518
    A1        2.09241  -0.00173   0.00000  -0.00219  -0.00220   2.09022
    A2        2.09549   0.00157   0.00000   0.00141   0.00141   2.09690
    A3        1.91535   0.00178   0.00000  -0.00230  -0.00232   1.91303
    A4        1.52405  -0.00077   0.00000  -0.00269  -0.00270   1.52135
    A5        2.08942   0.00098   0.00000   0.00134   0.00134   2.09076
    A6        1.91281   0.00552   0.00000  -0.00331  -0.00333   1.90948
    A7        2.15001  -0.00674   0.00000  -0.00380  -0.00380   2.14621
    A8        1.95955   0.01158   0.00000   0.00576   0.00572   1.96527
    A9        1.95955   0.01308   0.00000   0.00651   0.00647   1.96601
   A10        1.91063  -0.00288   0.00000   0.00419   0.00412   1.91475
   A11        2.02140  -0.01893   0.00000  -0.00796  -0.00796   2.01344
   A12        2.45618  -0.01548   0.00000  -0.00826  -0.00827   2.44791
   A13        2.02140  -0.02419   0.00000  -0.00716  -0.00716   2.01424
   A14        1.74077  -0.00545   0.00000  -0.00540  -0.00541   1.73535
    D1       -2.59391  -0.01162   0.00000  -0.01007  -0.01009  -2.60400
    D2       -0.43232   0.00349   0.00000   0.00491   0.00494  -0.42738
    D3        0.43147  -0.00360   0.00000  -0.00461  -0.00464   0.42683
    D4        2.59306   0.01151   0.00000   0.01037   0.01038   2.60345
         Item               Value     Threshold  Converged?
 Maximum Force            0.049994     0.000450     NO 
 RMS     Force            0.015497     0.000300     NO 
 Maximum Displacement     0.008708     0.001800     NO 
 RMS     Displacement     0.003136     0.001200     NO 
 Predicted change in Energy=-1.207990D-03
 GradGradGradGradGradGradGradGradGradGradGradGradGradGradGradGradGradGrad

                          Input orientation:                          
 ---------------------------------------------------------------------
 Center     Atomic      Atomic             Coordinates (Angstroms)
 Number     Number       Type             X           Y           Z
 ---------------------------------------------------------------------
      1          6           0       -0.475120    0.749946    0.593685
      2          1           0        0.057207   -0.179005    0.589954
      3          1           0       -1.545708    0.748964    0.589605
      4          6           0        0.254021    2.018557    0.744893
      5          1           0       -0.324942    2.769109    1.242589
      6          1           0        1.193375    1.897141    1.244081
      7          8           0        0.356266    2.194995   -1.249262
      8          1           0        0.861716    1.384595   -1.351402
 ---------------------------------------------------------------------
                    Distance matrix (angstroms):
                    1          2          3          4          5
     1  C    0.000000
     2  H    1.070671   0.000000
     3  H    1.070596   1.852151   0.000000
     4  C    1.471015   2.211792   2.207942   0.000000
     5  H    2.126182   3.043574   2.449008   1.070620   0.000000
     6  H    2.126722   2.455431   3.041254   1.070661   1.750891
     7  O    2.485121   3.017951   3.014953   2.004555   2.646313
     8  H    2.444028   2.619340   3.157091   2.272808   3.170777
                    6          7          8
     6  H    0.000000
     7  O    2.646928   0.000000
     8  H    2.666314   0.960552   0.000000
 Stoichiometry    C2H5O(2)
 Framework group  C1[X(C2H5O)]
 Deg. of freedom    18
 Full point group                 C1      NOp   1
 Largest Abelian subgroup         C1      NOp   1
 Largest concise Abelian subgroup C1      NOp   1
                         Standard orientation:                         
 ---------------------------------------------------------------------
 Center     Atomic      Atomic             Coordinates (Angstroms)
 Number     Number       Type             X           Y           Z
 ---------------------------------------------------------------------
      1          6           0       -1.060722   -0.534183   -0.026628
      2          1           0       -1.321183   -1.047443    0.876178
      3          1           0       -1.394546   -0.915213   -0.969789
      4          6           0       -0.368015    0.762101    0.034131
      5          1           0       -0.614061    1.399156   -0.790399
      6          1           0       -0.542272    1.279837    0.954946
      7          8           0        1.397433   -0.177292   -0.103612
      8          1           0        1.265016   -0.665511    0.712946
 ---------------------------------------------------------------------
 Rotational constants (GHZ):     24.2311092      8.9962237      7.3061976
 Standard basis: 6-31+G(d,p) (6D, 7F)
 There are    82 symmetry adapted basis functions of A   symmetry.
 Integral buffers will be    262144 words long.
 Raffenetti 2 integral format.
 Two-electron integral symmetry is turned on.
    82 basis functions,   131 primitive gaussians,    82 cartesian basis functions
    13 alpha electrons       12 beta electrons
       nuclear repulsion energy        68.7768175117 Hartrees.
 NAtoms=    8 NActive=    8 NUniq=    8 SFac= 7.50D-01 NAtFMM=   80 NAOKFM=F Big=F
 One-electron integrals computed using PRISM.
 NBasis=    82 RedAO= T  NBF=    82
 NBsUse=    82 1.00D-06 NBFU=    82
 Initial guess read from the read-write file.
 B after Tr=     0.000000    0.000000    0.000000
         Rot=    1.000000    0.000000    0.000000    0.000000 Ang=   0.00 deg.
 Initial guess orbital symmetries:
 Alpha Orbitals:
       Occupied  (A) (A) (A) (A) (A) (A) (A) (A) (A) (A) (A) (A)
                 (A)
       Virtual   (A) (A) (A) (A) (A) (A) (A) (A) (A) (A) (A) (A)
                 (A) (A) (A) (A) (A) (A) (A) (A) (A) (A) (A) (A)
                 (A) (A) (A) (A) (A) (A) (A) (A) (A) (A) (A) (A)
                 (A) (A) (A) (A) (A) (A) (A) (A) (A) (A) (A) (A)
                 (A) (A) (A) (A) (A) (A) (A) (A) (A) (A) (A) (A)
                 (A) (A) (A) (A) (A) (A) (A) (A) (A)
 Beta  Orbitals:
       Occupied  (A) (A) (A) (A) (A) (A) (A) (A) (A) (A) (A) (A)
       Virtual   (A) (A) (A) (A) (A) (A) (A) (A) (A) (A) (A) (A)
                 (A) (A) (A) (A) (A) (A) (A) (A) (A) (A) (A) (A)
                 (A) (A) (A) (A) (A) (A) (A) (A) (A) (A) (A) (A)
                 (A) (A) (A) (A) (A) (A) (A) (A) (A) (A) (A) (A)
                 (A) (A) (A) (A) (A) (A) (A) (A) (A) (A) (A) (A)
                 (A) (A) (A) (A) (A) (A) (A) (A) (A) (A)
 Initial guess <Sx>= 0.0000 <Sy>= 0.0000 <Sz>= 0.5000 <S**2>= 0.7876 S= 0.5186
 Requested convergence on RMS density matrix=1.00D-08 within 128 cycles.
 Requested convergence on MAX density matrix=1.00D-06.
 Requested convergence on             energy=1.00D-06.
 No special actions if energy rises.
 Keep R1 and R2 ints in memory in canonical form, NReq=12587911.
 SCF Done:  E(UB3LYP) =  -154.326486337     A.U. after   13 cycles
             Convg  =    0.4182D-08             -V/T =  2.0106
 <Sx>= 0.0000 <Sy>= 0.0000 <Sz>= 0.5000 <S**2>= 0.7873 S= 0.5185
 <L.S>= 0.000000000000E+00
 Annihilation of the first spin contaminant:
 S**2 before annihilation     0.7873,   after     0.7502
 Calling FoFJK, ICntrl=      2127 FMM=F ISym2X=0 I1Cent= 0 IOpClX= 1 NMat=1 NMatS=1 NMatT=0.
 ***** Axes restored to original set *****
 -------------------------------------------------------------------
 Center     Atomic                   Forces (Hartrees/Bohr)
 Number     Number              X              Y              Z
 -------------------------------------------------------------------
      1        6           0.025925156    0.049199775    0.016691781
      2        1           0.004033975   -0.009715382   -0.004296690
      3        1          -0.009310262   -0.001408216   -0.005525180
      4        6          -0.038815393   -0.070768093   -0.009590452
      5        1          -0.007707468    0.021560794   -0.015673879
      6        1           0.022511108    0.004054376   -0.012865250
      7        8          -0.004304733    0.016315395    0.035257481
      8        1           0.007667618   -0.009238650   -0.003997811
 -------------------------------------------------------------------
 Cartesian Forces:  Max     0.070768093 RMS     0.023605245

 GradGradGradGradGradGradGradGradGradGradGradGradGradGradGradGradGradGrad
 Berny optimization.
 Internal  Forces:  Max     0.047896001 RMS     0.014914014
 Search for a saddle point.
 Step number   2 out of a maximum of   38
 All quantities printed in internal units (Hartrees-Bohrs-Radians)
 Swaping is turned off.
 Update second derivatives using D2CorX and points    1    2
     Eigenvalues ---   -0.07539   0.00760   0.00917   0.01731   0.01843
     Eigenvalues ---    0.02671   0.03920   0.05795   0.09400   0.09665
     Eigenvalues ---    0.14937   0.16258   0.29374   0.39552   0.39890
     Eigenvalues ---    0.39962   0.40017   0.516361000.000001000.00000
     Eigenvalues --- 1000.000001000.000001000.000001000.000001000.00000
     Eigenvalues --- 1000.000001000.000001000.00000
 Eigenvectors required to have negative eigenvalues:
                          R8        R9        R3        A6        R4
   1                    0.88529   0.27811  -0.18483  -0.15183  -0.11781
                          A4        A13       A3        A14       D2
   1                   -0.10187   0.09476  -0.08785  -0.08453   0.08321
 RFO step:  Lambda0=8.152930242D-03 Lambda=-3.33358968D-02.
 Linear search not attempted -- option 19 set.
 Maximum step size (   0.030) exceeded in Quadratic search.
    -- Step size scaled by   0.047
 Iteration  1 RMS(Cart)=  0.00312298 RMS(Int)=  0.00002792
 Iteration  2 RMS(Cart)=  0.00002072 RMS(Int)=  0.00002040
 Iteration  3 RMS(Cart)=  0.00000000 RMS(Int)=  0.00002040
 Variable       Old X    -DE/DX   Delta X   Delta X   Delta X     New X
                                 (Linear)    (Quad)   (Total)
    R1        2.02327   0.01045   0.00000   0.00123   0.00123   2.02451
    R2        2.02313   0.00933   0.00000   0.00109   0.00109   2.02423
    R3        2.77982  -0.04790   0.00000  -0.01159  -0.01159   2.76822
    R4        4.69620   0.00484   0.00000  -0.00251  -0.00251   4.69369
    R5        4.61854   0.00323   0.00000   0.00158   0.00158   4.62013
    R6        2.02318   0.01200   0.00000   0.00113   0.00113   2.02430
    R7        2.02326   0.01329   0.00000   0.00120   0.00120   2.02446
    R8        3.78806  -0.03650   0.00000   0.00848   0.00848   3.79654
    R9        4.29498  -0.00208   0.00000   0.00776   0.00776   4.30275
   R10        1.81518   0.01567   0.00000   0.00101   0.00101   1.81619
    A1        2.09022  -0.00170   0.00000  -0.00213  -0.00214   2.08807
    A2        2.09690   0.00151   0.00000   0.00136   0.00136   2.09826
    A3        1.91303   0.00172   0.00000  -0.00230  -0.00231   1.91073
    A4        1.52135  -0.00079   0.00000  -0.00266  -0.00266   1.51869
    A5        2.09076   0.00096   0.00000   0.00131   0.00131   2.09207
    A6        1.90948   0.00528   0.00000  -0.00339  -0.00340   1.90609
    A7        2.14621  -0.00660   0.00000  -0.00388  -0.00388   2.14233
    A8        1.96527   0.01106   0.00000   0.00568   0.00564   1.97091
    A9        1.96601   0.01252   0.00000   0.00638   0.00634   1.97236
   A10        1.91475  -0.00285   0.00000   0.00422   0.00415   1.91890
   A11        2.01344  -0.01844   0.00000  -0.00807  -0.00807   2.00538
   A12        2.44791  -0.01513   0.00000  -0.00842  -0.00843   2.43949
   A13        2.01424  -0.02344   0.00000  -0.00717  -0.00716   2.00708
   A14        1.73535  -0.00541   0.00000  -0.00544  -0.00545   1.72990
    D1       -2.60400  -0.01146   0.00000  -0.01023  -0.01025  -2.61425
    D2       -0.42738   0.00347   0.00000   0.00504   0.00507  -0.42232
    D3        0.42683  -0.00359   0.00000  -0.00474  -0.00477   0.42206
    D4        2.60345   0.01134   0.00000   0.01053   0.01055   2.61399
         Item               Value     Threshold  Converged?
 Maximum Force            0.047896     0.000450     NO 
 RMS     Force            0.014914     0.000300     NO 
 Maximum Displacement     0.008774     0.001800     NO 
 RMS     Displacement     0.003121     0.001200     NO 
 Predicted change in Energy=-1.162073D-03
 GradGradGradGradGradGradGradGradGradGradGradGradGradGradGradGradGradGrad

                          Input orientation:                          
 ---------------------------------------------------------------------
 Center     Atomic      Atomic             Coordinates (Angstroms)
 Number     Number       Type             X           Y           Z
 ---------------------------------------------------------------------
      1          6           0       -0.474124    0.751688    0.595620
      2          1           0        0.057392   -0.178457    0.588177
      3          1           0       -1.545267    0.749780    0.587398
      4          6           0        0.251959    2.014617    0.749536
      5          1           0       -0.325880    2.770905    1.241098
      6          1           0        1.195761    1.897579    1.242706
      7          8           0        0.354765    2.193952   -1.248843
      8          1           0        0.862210    1.384236   -1.351549
 ---------------------------------------------------------------------
                    Distance matrix (angstroms):
                    1          2          3          4          5
     1  C    0.000000
     2  H    1.071324   0.000000
     3  H    1.071176   1.852063   0.000000
     4  C    1.464881   2.207592   2.203660   0.000000
     5  H    2.125054   3.044986   2.449320   1.071216   0.000000
     6  H    2.126101   2.456464   3.043042   1.071297   1.754450
     7  O    2.483792   3.015194   3.011234   2.009042   2.644987
     8  H    2.444866   2.617685   3.155628   2.276915   3.171155
                    6          7          8
     6  H    0.000000
     7  O    2.646305   0.000000
     8  H    2.665508   0.961087   0.000000
 Stoichiometry    C2H5O(2)
 Framework group  C1[X(C2H5O)]
 Deg. of freedom    18
 Full point group                 C1      NOp   1
 Largest Abelian subgroup         C1      NOp   1
 Largest concise Abelian subgroup C1      NOp   1
                         Standard orientation:                         
 ---------------------------------------------------------------------
 Center     Atomic      Atomic             Coordinates (Angstroms)
 Number     Number       Type             X           Y           Z
 ---------------------------------------------------------------------
      1          6           0       -1.057942   -0.534502   -0.026567
      2          1           0       -1.315014   -1.051476    0.875867
      3          1           0       -1.387471   -0.919955   -0.970100
      4          6           0       -0.374800    0.759907    0.034231
      5          1           0       -0.614251    1.397336   -0.792722
      6          1           0       -0.542488    1.278965    0.956259
      7          8           0        1.398401   -0.174429   -0.103705
      8          1           0        1.268470   -0.661870    0.714347
 ---------------------------------------------------------------------
 Rotational constants (GHZ):     24.2760093      8.9935389      7.3103114
 Standard basis: 6-31+G(d,p) (6D, 7F)
 There are    82 symmetry adapted basis functions of A   symmetry.
 Integral buffers will be    262144 words long.
 Raffenetti 2 integral format.
 Two-electron integral symmetry is turned on.
    82 basis functions,   131 primitive gaussians,    82 cartesian basis functions
    13 alpha electrons       12 beta electrons
       nuclear repulsion energy        68.8062690171 Hartrees.
 NAtoms=    8 NActive=    8 NUniq=    8 SFac= 7.50D-01 NAtFMM=   80 NAOKFM=F Big=F
 One-electron integrals computed using PRISM.
 NBasis=    82 RedAO= T  NBF=    82
 NBsUse=    82 1.00D-06 NBFU=    82
 Initial guess read from the read-write file.
 B after Tr=     0.000000    0.000000    0.000000
         Rot=    1.000000    0.000000    0.000000    0.000000 Ang=   0.00 deg.
 Initial guess orbital symmetries:
 Alpha Orbitals:
       Occupied  (A) (A) (A) (A) (A) (A) (A) (A) (A) (A) (A) (A)
                 (A)
       Virtual   (A) (A) (A) (A) (A) (A) (A) (A) (A) (A) (A) (A)
                 (A) (A) (A) (A) (A) (A) (A) (A) (A) (A) (A) (A)
                 (A) (A) (A) (A) (A) (A) (A) (A) (A) (A) (A) (A)
                 (A) (A) (A) (A) (A) (A) (A) (A) (A) (A) (A) (A)
                 (A) (A) (A) (A) (A) (A) (A) (A) (A) (A) (A) (A)
                 (A) (A) (A) (A) (A) (A) (A) (A) (A)
 Beta  Orbitals:
       Occupied  (A) (A) (A) (A) (A) (A) (A) (A) (A) (A) (A) (A)
       Virtual   (A) (A) (A) (A) (A) (A) (A) (A) (A) (A) (A) (A)
                 (A) (A) (A) (A) (A) (A) (A) (A) (A) (A) (A) (A)
                 (A) (A) (A) (A) (A) (A) (A) (A) (A) (A) (A) (A)
                 (A) (A) (A) (A) (A) (A) (A) (A) (A) (A) (A) (A)
                 (A) (A) (A) (A) (A) (A) (A) (A) (A) (A) (A) (A)
                 (A) (A) (A) (A) (A) (A) (A) (A) (A) (A)
 Initial guess <Sx>= 0.0000 <Sy>= 0.0000 <Sz>= 0.5000 <S**2>= 0.7872 S= 0.5184
 Requested convergence on RMS density matrix=1.00D-08 within 128 cycles.
 Requested convergence on MAX density matrix=1.00D-06.
 Requested convergence on             energy=1.00D-06.
 No special actions if energy rises.
 Keep R1 and R2 ints in memory in canonical form, NReq=12587911.
 SCF Done:  E(UB3LYP) =  -154.327647685     A.U. after   13 cycles
             Convg  =    0.3710D-08             -V/T =  2.0106
 <Sx>= 0.0000 <Sy>= 0.0000 <Sz>= 0.5000 <S**2>= 0.7868 S= 0.5182
 <L.S>= 0.000000000000E+00
 Annihilation of the first spin contaminant:
 S**2 before annihilation     0.7868,   after     0.7502
 Calling FoFJK, ICntrl=      2127 FMM=F ISym2X=0 I1Cent= 0 IOpClX= 1 NMat=1 NMatS=1 NMatT=0.
 ***** Axes restored to original set *****
 -------------------------------------------------------------------
 Center     Atomic                   Forces (Hartrees/Bohr)
 Number     Number              X              Y              Z
 -------------------------------------------------------------------
      1        6           0.024796082    0.047074566    0.016379444
      2        1           0.003845661   -0.009291452   -0.004264803
      3        1          -0.008890109   -0.001349681   -0.005486995
      4        6          -0.037388997   -0.068092937   -0.008095474
      5        1          -0.007282988    0.020823141   -0.015590072
      6        1           0.021635142    0.004014840   -0.012833300
      7        8          -0.004133848    0.015594003    0.033892763
      8        1           0.007419058   -0.008772480   -0.004001563
 -------------------------------------------------------------------
 Cartesian Forces:  Max     0.068092937 RMS     0.022698311

 GradGradGradGradGradGradGradGradGradGradGradGradGradGradGradGradGradGrad
 Berny optimization.
 Internal  Forces:  Max     0.045798397 RMS     0.014339030
 Search for a saddle point.
 Step number   3 out of a maximum of   38
 All quantities printed in internal units (Hartrees-Bohrs-Radians)
 Swaping is turned off.
 Update second derivatives using D2CorX and points    1    2    3
     Eigenvalues ---   -0.07463   0.00760   0.00913   0.01738   0.01840
     Eigenvalues ---    0.02678   0.03821   0.05789   0.09405   0.09671
     Eigenvalues ---    0.14932   0.16253   0.29618   0.39551   0.39889
     Eigenvalues ---    0.39960   0.40015   0.516361000.000001000.00000
     Eigenvalues --- 1000.000001000.000001000.000001000.000001000.00000
     Eigenvalues --- 1000.000001000.000001000.00000
 Eigenvectors required to have negative eigenvalues:
                          R8        R9        R3        A6        R4
   1                    0.88601   0.27827  -0.17955  -0.15215  -0.11535
                          A4        A13       A3        D2        A14
   1                   -0.10152   0.09582  -0.08890   0.08567  -0.08407
 RFO step:  Lambda0=7.799116209D-03 Lambda=-3.15539778D-02.
 Linear search not attempted -- option 19 set.
 Maximum step size (   0.030) exceeded in Quadratic search.
    -- Step size scaled by   0.047
 Iteration  1 RMS(Cart)=  0.00310180 RMS(Int)=  0.00002815
 Iteration  2 RMS(Cart)=  0.00002085 RMS(Int)=  0.00002062
 Iteration  3 RMS(Cart)=  0.00000000 RMS(Int)=  0.00002062
 Variable       Old X    -DE/DX   Delta X   Delta X   Delta X     New X
                                 (Linear)    (Quad)   (Total)
    R1        2.02451   0.01000   0.00000   0.00120   0.00120   2.02571
    R2        2.02423   0.00894   0.00000   0.00106   0.00106   2.02529
    R3        2.76822  -0.04580   0.00000  -0.01098  -0.01098   2.75724
    R4        4.69369   0.00459   0.00000  -0.00233  -0.00233   4.69136
    R5        4.62013   0.00315   0.00000   0.00171   0.00171   4.62184
    R6        2.02430   0.01148   0.00000   0.00108   0.00108   2.02538
    R7        2.02446   0.01272   0.00000   0.00115   0.00115   2.02561
    R8        3.79654  -0.03504   0.00000   0.00853   0.00853   3.80507
    R9        4.30275  -0.00188   0.00000   0.00789   0.00789   4.31064
   R10        1.81619   0.01498   0.00000   0.00098   0.00098   1.81717
    A1        2.08807  -0.00167   0.00000  -0.00205  -0.00206   2.08601
    A2        2.09826   0.00145   0.00000   0.00129   0.00129   2.09955
    A3        1.91073   0.00167   0.00000  -0.00228  -0.00229   1.90844
    A4        1.51869  -0.00081   0.00000  -0.00261  -0.00261   1.51608
    A5        2.09207   0.00093   0.00000   0.00126   0.00126   2.09333
    A6        1.90609   0.00504   0.00000  -0.00344  -0.00345   1.90264
    A7        2.14233  -0.00644   0.00000  -0.00392  -0.00393   2.13840
    A8        1.97091   0.01057   0.00000   0.00562   0.00558   1.97648
    A9        1.97236   0.01198   0.00000   0.00627   0.00622   1.97858
   A10        1.91890  -0.00282   0.00000   0.00425   0.00418   1.92308
   A11        2.00538  -0.01794   0.00000  -0.00817  -0.00817   1.99721
   A12        2.43949  -0.01477   0.00000  -0.00857  -0.00857   2.43091
   A13        2.00708  -0.02269   0.00000  -0.00717  -0.00716   1.99992
   A14        1.72990  -0.00536   0.00000  -0.00549  -0.00550   1.72440
    D1       -2.61425  -0.01128   0.00000  -0.01035  -0.01037  -2.62462
    D2       -0.42232   0.00346   0.00000   0.00525   0.00528  -0.41704
    D3        0.42206  -0.00357   0.00000  -0.00493  -0.00497   0.41710
    D4        2.61399   0.01117   0.00000   0.01066   0.01068   2.62468
         Item               Value     Threshold  Converged?
 Maximum Force            0.045798     0.000450     NO 
 RMS     Force            0.014339     0.000300     NO 
 Maximum Displacement     0.008909     0.001800     NO 
 RMS     Displacement     0.003099     0.001200     NO 
 Predicted change in Energy=-1.102971D-03
 GradGradGradGradGradGradGradGradGradGradGradGradGradGradGradGradGradGrad

                          Input orientation:                          
 ---------------------------------------------------------------------
 Center     Atomic      Atomic             Coordinates (Angstroms)
 Number     Number       Type             X           Y           Z
 ---------------------------------------------------------------------
      1          6           0       -0.473200    0.753288    0.597544
      2          1           0        0.057548   -0.177989    0.586432
      3          1           0       -1.544862    0.750521    0.585153
      4          6           0        0.249982    2.010798    0.754251
      5          1           0       -0.326752    2.772777    1.239527
      6          1           0        1.198157    1.898041    1.241317
      7          8           0        0.353266    2.192942   -1.248387
      8          1           0        0.862678    1.383923   -1.351694
 ---------------------------------------------------------------------
                    Distance matrix (angstroms):
                    1          2          3          4          5
     1  C    0.000000
     2  H    1.071958   0.000000
     3  H    1.071738   1.851986   0.000000
     4  C    1.459068   2.203629   2.199626   0.000000
     5  H    2.124129   3.046513   2.449799   1.071787   0.000000
     6  H    2.125638   2.457594   3.044915   1.071907   1.757986
     7  O    2.482561   3.012528   3.007546   2.013554   2.643548
     8  H    2.445771   2.616130   3.154176   2.281090   3.171449
                    6          7          8
     6  H    0.000000
     7  O    2.645644   0.000000
     8  H    2.664690   0.961606   0.000000
 Stoichiometry    C2H5O(2)
 Framework group  C1[X(C2H5O)]
 Deg. of freedom    18
 Full point group                 C1      NOp   1
 Largest Abelian subgroup         C1      NOp   1
 Largest concise Abelian subgroup C1      NOp   1
                         Standard orientation:                         
 ---------------------------------------------------------------------
 Center     Atomic      Atomic             Coordinates (Angstroms)
 Number     Number       Type             X           Y           Z
 ---------------------------------------------------------------------
      1          6           0       -1.055295   -0.534845   -0.026506
      2          1           0       -1.309026   -1.055379    0.875579
      3          1           0       -1.380471   -0.924639   -0.970404
      4          6           0       -0.381450    0.757870    0.034323
      5          1           0       -0.614124    1.395595   -0.795073
      6          1           0       -0.542531    1.278188    0.957527
      7          8           0        1.399346   -0.171697   -0.103784
      8          1           0        1.271854   -0.658334    0.715739
 ---------------------------------------------------------------------
 Rotational constants (GHZ):     24.3157761      8.9904540      7.3136754
 Standard basis: 6-31+G(d,p) (6D, 7F)
 There are    82 symmetry adapted basis functions of A   symmetry.
 Integral buffers will be    262144 words long.
 Raffenetti 2 integral format.
 Two-electron integral symmetry is turned on.
    82 basis functions,   131 primitive gaussians,    82 cartesian basis functions
    13 alpha electrons       12 beta electrons
       nuclear repulsion energy        68.8325918719 Hartrees.
 NAtoms=    8 NActive=    8 NUniq=    8 SFac= 7.50D-01 NAtFMM=   80 NAOKFM=F Big=F
 One-electron integrals computed using PRISM.
 NBasis=    82 RedAO= T  NBF=    82
 NBsUse=    82 1.00D-06 NBFU=    82
 Initial guess read from the read-write file.
 B after Tr=     0.000000    0.000000    0.000000
         Rot=    1.000000    0.000000    0.000000    0.000000 Ang=   0.00 deg.
 Initial guess orbital symmetries:
 Alpha Orbitals:
       Occupied  (A) (A) (A) (A) (A) (A) (A) (A) (A) (A) (A) (A)
                 (A)
       Virtual   (A) (A) (A) (A) (A) (A) (A) (A) (A) (A) (A) (A)
                 (A) (A) (A) (A) (A) (A) (A) (A) (A) (A) (A) (A)
                 (A) (A) (A) (A) (A) (A) (A) (A) (A) (A) (A) (A)
                 (A) (A) (A) (A) (A) (A) (A) (A) (A) (A) (A) (A)
                 (A) (A) (A) (A) (A) (A) (A) (A) (A) (A) (A) (A)
                 (A) (A) (A) (A) (A) (A) (A) (A) (A)
 Beta  Orbitals:
       Occupied  (A) (A) (A) (A) (A) (A) (A) (A) (A) (A) (A) (A)
       Virtual   (A) (A) (A) (A) (A) (A) (A) (A) (A) (A) (A) (A)
                 (A) (A) (A) (A) (A) (A) (A) (A) (A) (A) (A) (A)
                 (A) (A) (A) (A) (A) (A) (A) (A) (A) (A) (A) (A)
                 (A) (A) (A) (A) (A) (A) (A) (A) (A) (A) (A) (A)
                 (A) (A) (A) (A) (A) (A) (A) (A) (A) (A) (A) (A)
                 (A) (A) (A) (A) (A) (A) (A) (A) (A) (A)
 Initial guess <Sx>= 0.0000 <Sy>= 0.0000 <Sz>= 0.5000 <S**2>= 0.7867 S= 0.5182
 Requested convergence on RMS density matrix=1.00D-08 within 128 cycles.
 Requested convergence on MAX density matrix=1.00D-06.
 Requested convergence on             energy=1.00D-06.
 No special actions if energy rises.
 Keep R1 and R2 ints in memory in canonical form, NReq=12587911.
 SCF Done:  E(UB3LYP) =  -154.328749968     A.U. after   13 cycles
             Convg  =    0.3287D-08             -V/T =  2.0105
 <Sx>= 0.0000 <Sy>= 0.0000 <Sz>= 0.5000 <S**2>= 0.7862 S= 0.5179
 <L.S>= 0.000000000000E+00
 Annihilation of the first spin contaminant:
 S**2 before annihilation     0.7862,   after     0.7502
 Calling FoFJK, ICntrl=      2127 FMM=F ISym2X=0 I1Cent= 0 IOpClX= 1 NMat=1 NMatS=1 NMatT=0.
 ***** Axes restored to original set *****
 -------------------------------------------------------------------
 Center     Atomic                   Forces (Hartrees/Bohr)
 Number     Number              X              Y              Z
 -------------------------------------------------------------------
      1        6           0.023697010    0.045006016    0.016056025
      2        1           0.003665808   -0.008879902   -0.004222529
      3        1          -0.008483225   -0.001289841   -0.005438743
      4        6          -0.035994740   -0.065475706   -0.006690382
      5        1          -0.006873441    0.020093709   -0.015486040
      6        1           0.020777897    0.003968087   -0.012779390
      7        8          -0.003965735    0.014902578    0.032562606
      8        1           0.007176426   -0.008324942   -0.004001546
 -------------------------------------------------------------------
 Cartesian Forces:  Max     0.065475706 RMS     0.021815724

 GradGradGradGradGradGradGradGradGradGradGradGradGradGradGradGradGradGrad
 Berny optimization.
 Internal  Forces:  Max     0.043768543 RMS     0.013779953
 Search for a saddle point.
 Step number   4 out of a maximum of   38
 All quantities printed in internal units (Hartrees-Bohrs-Radians)
 Swaping is turned off.
 Update second derivatives using D2CorX and points    1    2    3    4
     Eigenvalues ---   -0.07383   0.00760   0.00909   0.01744   0.01837
     Eigenvalues ---    0.02684   0.03730   0.05784   0.09409   0.09677
     Eigenvalues ---    0.14923   0.16247   0.29832   0.39551   0.39887
     Eigenvalues ---    0.39958   0.40014   0.516351000.000001000.00000
     Eigenvalues --- 1000.000001000.000001000.000001000.000001000.00000
     Eigenvalues --- 1000.000001000.000001000.00000
 Eigenvectors required to have negative eigenvalues:
                          R8        R9        R3        A6        R4
   1                    0.88671   0.27827  -0.17474  -0.15233  -0.11298
                          A4        A13       A3        D2        A14
   1                   -0.10114   0.09700  -0.08987   0.08791  -0.08347
 RFO step:  Lambda0=7.457651177D-03 Lambda=-2.98690477D-02.
 Linear search not attempted -- option 19 set.
 Maximum step size (   0.030) exceeded in Quadratic search.
    -- Step size scaled by   0.047
 Iteration  1 RMS(Cart)=  0.00308098 RMS(Int)=  0.00002832
 Iteration  2 RMS(Cart)=  0.00002094 RMS(Int)=  0.00002080
 Iteration  3 RMS(Cart)=  0.00000000 RMS(Int)=  0.00002080
 Variable       Old X    -DE/DX   Delta X   Delta X   Delta X     New X
                                 (Linear)    (Quad)   (Total)
    R1        2.02571   0.00957   0.00000   0.00116   0.00116   2.02687
    R2        2.02529   0.00855   0.00000   0.00103   0.00103   2.02632
    R3        2.75724  -0.04377   0.00000  -0.01041  -0.01041   2.74682
    R4        4.69136   0.00436   0.00000  -0.00215  -0.00214   4.68922
    R5        4.62184   0.00307   0.00000   0.00184   0.00184   4.62368
    R6        2.02538   0.01097   0.00000   0.00104   0.00104   2.02642
    R7        2.02561   0.01216   0.00000   0.00110   0.00110   2.02671
    R8        3.80507  -0.03362   0.00000   0.00859   0.00858   3.81365
    R9        4.31064  -0.00169   0.00000   0.00801   0.00801   4.31865
   R10        1.81717   0.01430   0.00000   0.00095   0.00095   1.81812
    A1        2.08601  -0.00163   0.00000  -0.00197  -0.00198   2.08403
    A2        2.09955   0.00139   0.00000   0.00123   0.00123   2.10078
    A3        1.90844   0.00162   0.00000  -0.00225  -0.00226   1.90618
    A4        1.51608  -0.00081   0.00000  -0.00255  -0.00255   1.51353
    A5        2.09333   0.00090   0.00000   0.00121   0.00121   2.09454
    A6        1.90264   0.00482   0.00000  -0.00348  -0.00349   1.89915
    A7        2.13840  -0.00629   0.00000  -0.00396  -0.00396   2.13444
    A8        1.97648   0.01009   0.00000   0.00555   0.00550   1.98199
    A9        1.97858   0.01146   0.00000   0.00614   0.00610   1.98468
   A10        1.92308  -0.00279   0.00000   0.00427   0.00420   1.92728
   A11        1.99721  -0.01745   0.00000  -0.00826  -0.00825   1.98896
   A12        2.43091  -0.01440   0.00000  -0.00870  -0.00871   2.42221
   A13        1.99992  -0.02195   0.00000  -0.00716  -0.00716   1.99276
   A14        1.72440  -0.00529   0.00000  -0.00552  -0.00553   1.71887
    D1       -2.62462  -0.01110   0.00000  -0.01045  -0.01047  -2.63509
    D2       -0.41704   0.00345   0.00000   0.00545   0.00548  -0.41156
    D3        0.41710  -0.00356   0.00000  -0.00513  -0.00516   0.41194
    D4        2.62468   0.01099   0.00000   0.01078   0.01079   2.63547
         Item               Value     Threshold  Converged?
 Maximum Force            0.043769     0.000450     NO 
 RMS     Force            0.013780     0.000300     NO 
 Maximum Displacement     0.009030     0.001800     NO 
 RMS     Displacement     0.003078     0.001200     NO 
 Predicted change in Energy=-1.046882D-03
 GradGradGradGradGradGradGradGradGradGradGradGradGradGradGradGradGradGrad

                          Input orientation:                          
 ---------------------------------------------------------------------
 Center     Atomic      Atomic             Coordinates (Angstroms)
 Number     Number       Type             X           Y           Z
 ---------------------------------------------------------------------
      1          6           0       -0.472341    0.754755    0.599457
      2          1           0        0.057678   -0.177595    0.584729
      3          1           0       -1.544490    0.751195    0.582877
      4          6           0        0.248085    2.007093    0.759029
      5          1           0       -0.327561    2.774710    1.237879
      6          1           0        1.200552    1.898519    1.239920
      7          8           0        0.351770    2.191967   -1.247904
      8          1           0        0.863124    1.383656   -1.351846
 ---------------------------------------------------------------------
                    Distance matrix (angstroms):
                    1          2          3          4          5
     1  C    0.000000
     2  H    1.072574   0.000000
     3  H    1.072282   1.851917   0.000000
     4  C    1.453557   2.199886   2.195821   0.000000
     5  H    2.123385   3.048134   2.450419   1.072335   0.000000
     6  H    2.125315   2.458798   3.046852   1.072491   1.761489
     7  O    2.481427   3.009960   3.003895   2.018095   2.642006
     8  H    2.446746   2.614684   3.152739   2.285331   3.171662
                    6          7          8
     6  H    0.000000
     7  O    2.644959   0.000000
     8  H    2.663868   0.962108   0.000000
 Stoichiometry    C2H5O(2)
 Framework group  C1[X(C2H5O)]
 Deg. of freedom    18
 Full point group                 C1      NOp   1
 Largest Abelian subgroup         C1      NOp   1
 Largest concise Abelian subgroup C1      NOp   1
                         Standard orientation:                         
 ---------------------------------------------------------------------
 Center     Atomic      Atomic             Coordinates (Angstroms)
 Number     Number       Type             X           Y           Z
 ---------------------------------------------------------------------
      1          6           0       -1.052770   -0.535215   -0.026447
      2          1           0       -1.303215   -1.059157    0.875315
      3          1           0       -1.373543   -0.929268   -0.970702
      4          6           0       -0.387978    0.755977    0.034407
      5          1           0       -0.613712    1.393918   -0.797445
      6          1           0       -0.542432    1.277493    0.958746
      7          8           0        1.400276   -0.169084   -0.103850
      8          1           0        1.275179   -0.654890    0.717123
 ---------------------------------------------------------------------
 Rotational constants (GHZ):     24.3508232      8.9869349      7.3163028
 Standard basis: 6-31+G(d,p) (6D, 7F)
 There are    82 symmetry adapted basis functions of A   symmetry.
 Integral buffers will be    262144 words long.
 Raffenetti 2 integral format.
 Two-electron integral symmetry is turned on.
    82 basis functions,   131 primitive gaussians,    82 cartesian basis functions
    13 alpha electrons       12 beta electrons
       nuclear repulsion energy        68.8559025244 Hartrees.
 NAtoms=    8 NActive=    8 NUniq=    8 SFac= 7.50D-01 NAtFMM=   80 NAOKFM=F Big=F
 One-electron integrals computed using PRISM.
 NBasis=    82 RedAO= T  NBF=    82
 NBsUse=    82 1.00D-06 NBFU=    82
 Initial guess read from the read-write file.
 B after Tr=     0.000000    0.000000    0.000000
         Rot=    1.000000    0.000000    0.000000    0.000000 Ang=   0.00 deg.
 Initial guess orbital symmetries:
 Alpha Orbitals:
       Occupied  (A) (A) (A) (A) (A) (A) (A) (A) (A) (A) (A) (A)
                 (A)
       Virtual   (A) (A) (A) (A) (A) (A) (A) (A) (A) (A) (A) (A)
                 (A) (A) (A) (A) (A) (A) (A) (A) (A) (A) (A) (A)
                 (A) (A) (A) (A) (A) (A) (A) (A) (A) (A) (A) (A)
                 (A) (A) (A) (A) (A) (A) (A) (A) (A) (A) (A) (A)
                 (A) (A) (A) (A) (A) (A) (A) (A) (A) (A) (A) (A)
                 (A) (A) (A) (A) (A) (A) (A) (A) (A)
 Beta  Orbitals:
       Occupied  (A) (A) (A) (A) (A) (A) (A) (A) (A) (A) (A) (A)
       Virtual   (A) (A) (A) (A) (A) (A) (A) (A) (A) (A) (A) (A)
                 (A) (A) (A) (A) (A) (A) (A) (A) (A) (A) (A) (A)
                 (A) (A) (A) (A) (A) (A) (A) (A) (A) (A) (A) (A)
                 (A) (A) (A) (A) (A) (A) (A) (A) (A) (A) (A) (A)
                 (A) (A) (A) (A) (A) (A) (A) (A) (A) (A) (A) (A)
                 (A) (A) (A) (A) (A) (A) (A) (A) (A) (A)
 Initial guess <Sx>= 0.0000 <Sy>= 0.0000 <Sz>= 0.5000 <S**2>= 0.7861 S= 0.5179
 Requested convergence on RMS density matrix=1.00D-08 within 128 cycles.
 Requested convergence on MAX density matrix=1.00D-06.
 Requested convergence on             energy=1.00D-06.
 No special actions if energy rises.
 Keep R1 and R2 ints in memory in canonical form, NReq=12587911.
 SCF Done:  E(UB3LYP) =  -154.329796202     A.U. after   13 cycles
             Convg  =    0.2962D-08             -V/T =  2.0105
 <Sx>= 0.0000 <Sy>= 0.0000 <Sz>= 0.5000 <S**2>= 0.7856 S= 0.5177
 <L.S>= 0.000000000000E+00
 Annihilation of the first spin contaminant:
 S**2 before annihilation     0.7856,   after     0.7502
 Calling FoFJK, ICntrl=      2127 FMM=F ISym2X=0 I1Cent= 0 IOpClX= 1 NMat=1 NMatS=1 NMatT=0.
 ***** Axes restored to original set *****
 -------------------------------------------------------------------
 Center     Atomic                   Forces (Hartrees/Bohr)
 Number     Number              X              Y              Z
 -------------------------------------------------------------------
      1        6           0.022629209    0.042996500    0.015722492
      2        1           0.003494024   -0.008481049   -0.004170749
      3        1          -0.008089685   -0.001229246   -0.005381207
      4        6          -0.034634088   -0.062919301   -0.005372368
      5        1          -0.006478732    0.019373811   -0.015362651
      6        1           0.019940266    0.003914984   -0.012704580
      7        8          -0.003800831    0.014239963    0.031267098
      8        1           0.006939836   -0.007895663   -0.003998036
 -------------------------------------------------------------------
 Cartesian Forces:  Max     0.062919301 RMS     0.020957953

 GradGradGradGradGradGradGradGradGradGradGradGradGradGradGradGradGradGrad
 Berny optimization.
 Internal  Forces:  Max     0.041806979 RMS     0.013236894
 Search for a saddle point.
 Step number   5 out of a maximum of   38
 All quantities printed in internal units (Hartrees-Bohrs-Radians)
 Swaping is turned off.
 Update second derivatives using D2CorX and points    1    2    3    4    5
     Eigenvalues ---   -0.07299   0.00759   0.00905   0.01751   0.01834
     Eigenvalues ---    0.02690   0.03645   0.05780   0.09412   0.09682
     Eigenvalues ---    0.14910   0.16240   0.30013   0.39551   0.39886
     Eigenvalues ---    0.39957   0.40013   0.516341000.000001000.00000
     Eigenvalues --- 1000.000001000.000001000.000001000.000001000.00000
     Eigenvalues --- 1000.000001000.000001000.00000
 Eigenvectors required to have negative eigenvalues:
                          R8        R9        R3        A6        R4
   1                    0.88737   0.27811  -0.17038  -0.15239  -0.11072
                          A4        A13       A3        D2        A14
   1                   -0.10076   0.09825  -0.09080   0.08994  -0.08272
 RFO step:  Lambda0=7.126096959D-03 Lambda=-2.82769234D-02.
 Linear search not attempted -- option 19 set.
 Maximum step size (   0.030) exceeded in Quadratic search.
    -- Step size scaled by   0.048
 Iteration  1 RMS(Cart)=  0.00306017 RMS(Int)=  0.00002844
 Iteration  2 RMS(Cart)=  0.00002100 RMS(Int)=  0.00002094
 Iteration  3 RMS(Cart)=  0.00000000 RMS(Int)=  0.00002094
 Variable       Old X    -DE/DX   Delta X   Delta X   Delta X     New X
                                 (Linear)    (Quad)   (Total)
    R1        2.02687   0.00915   0.00000   0.00113   0.00113   2.02800
    R2        2.02632   0.00818   0.00000   0.00100   0.00100   2.02732
    R3        2.74682  -0.04181   0.00000  -0.00988  -0.00988   2.73695
    R4        4.68922   0.00414   0.00000  -0.00196  -0.00196   4.68726
    R5        4.62368   0.00300   0.00000   0.00198   0.00198   4.62566
    R6        2.02642   0.01049   0.00000   0.00099   0.00099   2.02741
    R7        2.02671   0.01162   0.00000   0.00106   0.00106   2.02777
    R8        3.81365  -0.03224   0.00000   0.00864   0.00864   3.82229
    R9        4.31865  -0.00151   0.00000   0.00814   0.00814   4.32679
   R10        1.81812   0.01366   0.00000   0.00092   0.00092   1.81904
    A1        2.08403  -0.00160   0.00000  -0.00190  -0.00190   2.08213
    A2        2.10078   0.00133   0.00000   0.00117   0.00116   2.10194
    A3        1.90618   0.00157   0.00000  -0.00222  -0.00223   1.90395
    A4        1.51353  -0.00082   0.00000  -0.00249  -0.00249   1.51104
    A5        2.09454   0.00087   0.00000   0.00116   0.00116   2.09570
    A6        1.89915   0.00460   0.00000  -0.00352  -0.00353   1.89562
    A7        2.13444  -0.00614   0.00000  -0.00399  -0.00399   2.13044
    A8        1.98199   0.00962   0.00000   0.00547   0.00543   1.98742
    A9        1.98468   0.01094   0.00000   0.00601   0.00597   1.99065
   A10        1.92728  -0.00275   0.00000   0.00428   0.00421   1.93149
   A11        1.98896  -0.01695   0.00000  -0.00833  -0.00833   1.98063
   A12        2.42221  -0.01403   0.00000  -0.00882  -0.00883   2.41338
   A13        1.99276  -0.02121   0.00000  -0.00715  -0.00714   1.98562
   A14        1.71887  -0.00522   0.00000  -0.00554  -0.00555   1.71332
    D1       -2.63509  -0.01091   0.00000  -0.01054  -0.01056  -2.64566
    D2       -0.41156   0.00344   0.00000   0.00564   0.00567  -0.40589
    D3        0.41194  -0.00355   0.00000  -0.00531  -0.00534   0.40660
    D4        2.63547   0.01080   0.00000   0.01087   0.01089   2.64636
         Item               Value     Threshold  Converged?
 Maximum Force            0.041807     0.000450     NO 
 RMS     Force            0.013237     0.000300     NO 
 Maximum Displacement     0.009137     0.001800     NO 
 RMS     Displacement     0.003057     0.001200     NO 
 Predicted change in Energy=-9.938297D-04
 GradGradGradGradGradGradGradGradGradGradGradGradGradGradGradGradGradGrad

                          Input orientation:                          
 ---------------------------------------------------------------------
 Center     Atomic      Atomic             Coordinates (Angstroms)
 Number     Number       Type             X           Y           Z
 ---------------------------------------------------------------------
      1          6           0       -0.471545    0.756097    0.601360
      2          1           0        0.057785   -0.177268    0.583077
      3          1           0       -1.544144    0.751810    0.580577
      4          6           0        0.246263    2.003496    0.763864
      5          1           0       -0.328310    2.776691    1.236159
      6          1           0        1.202937    1.899005    1.238520
      7          8           0        0.350281    2.191029   -1.247402
      8          1           0        0.863549    1.383440   -1.352012
 ---------------------------------------------------------------------
                    Distance matrix (angstroms):
                    1          2          3          4          5
     1  C    0.000000
     2  H    1.073171   0.000000
     3  H    1.072810   1.851856   0.000000
     4  C    1.448330   2.196346   2.192230   0.000000
     5  H    2.122802   3.049829   2.451160   1.072860   0.000000
     6  H    2.125112   2.460058   3.048836   1.073052   1.764951
     7  O    2.480392   3.007497   3.000284   2.022666   2.640371
     8  H    2.447794   2.613356   3.151324   2.289638   3.171798
                    6          7          8
     6  H    0.000000
     7  O    2.644259   0.000000
     8  H    2.663052   0.962594   0.000000
 Stoichiometry    C2H5O(2)
 Framework group  C1[X(C2H5O)]
 Deg. of freedom    18
 Full point group                 C1      NOp   1
 Largest Abelian subgroup         C1      NOp   1
 Largest concise Abelian subgroup C1      NOp   1
                         Standard orientation:                         
 ---------------------------------------------------------------------
 Center     Atomic      Atomic             Coordinates (Angstroms)
 Number     Number       Type             X           Y           Z
 ---------------------------------------------------------------------
      1          6           0       -1.050362   -0.535611   -0.026391
      2          1           0       -1.297580   -1.062813    0.875073
      3          1           0       -1.366682   -0.933841   -0.970994
      4          6           0       -0.394395    0.754219    0.034483
      5          1           0       -0.613038    1.392296   -0.799832
      6          1           0       -0.542214    1.276869    0.959917
      7          8           0        1.401199   -0.166579   -0.103902
      8          1           0        1.278457   -0.651530    0.718499
 ---------------------------------------------------------------------
 Rotational constants (GHZ):     24.3815520      8.9829546      7.3182098
 Standard basis: 6-31+G(d,p) (6D, 7F)
 There are    82 symmetry adapted basis functions of A   symmetry.
 Integral buffers will be    262144 words long.
 Raffenetti 2 integral format.
 Two-electron integral symmetry is turned on.
    82 basis functions,   131 primitive gaussians,    82 cartesian basis functions
[...]
   A11        1.71227  -0.00429   0.00000  -0.00732  -0.00731   1.70495
   A12        2.11191  -0.00364   0.00000  -0.00889  -0.00889   2.10302
   A13        1.80757  -0.00436   0.00000  -0.00272  -0.00272   1.80484
   A14        1.55887  -0.00157   0.00000  -0.00324  -0.00324   1.55563
    D1       -2.96684  -0.00347   0.00000  -0.00802  -0.00802  -2.97487
    D2       -0.16780   0.00166   0.00000   0.00760   0.00760  -0.16020
    D3        0.18095  -0.00170   0.00000  -0.00736  -0.00737   0.17358
    D4        2.97999   0.00343   0.00000   0.00825   0.00826   2.98824
         Item               Value     Threshold  Converged?
 Maximum Force            0.006889     0.000450     NO 
 RMS     Force            0.002639     0.000300     NO 
 Maximum Displacement     0.009562     0.001800     NO 
 RMS     Displacement     0.003052     0.001200     NO 
 Predicted change in Energy=-1.283583D-04
 Optimization stopped.
    -- Number of steps exceeded,  NStep=  38
    -- Flag reset to prevent archiving.
                           ----------------------------
                           ! Non-Optimized Parameters !
                           ! (Angstroms and Degrees)  !
 --------------------------                            --------------------------
 ! Name  Definition              Value          Derivative Info.                !
 --------------------------------------------------------------------------------
 ! R1    R(1,2)                  1.0844         -DE/DX =    0.0016              !
 ! R2    R(1,3)                  1.0825         -DE/DX =    0.0014              !
 ! R3    R(1,4)                  1.3642         -DE/DX =   -0.0069              !
 ! R4    R(1,7)                  2.4932         -DE/DX =    0.0011              !
 ! R5    R(1,8)                  2.5406         -DE/DX =    0.0013              !
 ! R6    R(4,5)                  1.0817         -DE/DX =    0.0018              !
 ! R7    R(4,6)                  1.083          -DE/DX =    0.002               !
 ! R8    R(4,7)                  2.207          -DE/DX =   -0.006               !
 ! R9    R(4,8)                  2.4776         -DE/DX =    0.0007              !
 ! R10   R(7,8)                  0.9721         -DE/DX =    0.0023              !
 ! A1    A(2,1,3)              117.3493         -DE/DX =   -0.0003              !
 ! A2    A(2,1,4)              121.4553         -DE/DX =    0.0002              !
 ! A3    A(2,1,7)              106.984          -DE/DX =    0.0005              !
 ! A4    A(2,1,8)               84.8406         -DE/DX =   -0.0001              !
 ! A5    A(3,1,4)              121.1943         -DE/DX =    0.0001              !
 ! A6    A(3,1,7)              101.112          -DE/DX =    0.0006              !
 ! A7    A(3,1,8)              114.3275         -DE/DX =   -0.0017              !
 ! A8    A(1,4,5)              120.5047         -DE/DX =    0.0012              !
 ! A9    A(1,4,6)              120.7803         -DE/DX =    0.0014              !
 ! A10   A(5,4,6)              116.1834         -DE/DX =   -0.001               !
 ! A11   A(5,4,7)               97.6867         -DE/DX =   -0.0043              !
 ! A12   A(5,4,8)              120.4939         -DE/DX =   -0.0036              !
 ! A13   A(6,4,7)              103.41           -DE/DX =   -0.0044              !
 ! A14   A(6,4,8)               89.1311         -DE/DX =   -0.0016              !
 ! D1    D(2,1,4,5)           -170.4473         -DE/DX =   -0.0035              !
 ! D2    D(2,1,4,6)             -9.1789         -DE/DX =    0.0017              !
 ! D3    D(3,1,4,5)              9.9454         -DE/DX =   -0.0017              !
 ! D4    D(3,1,4,6)            171.2138         -DE/DX =    0.0034              !
 --------------------------------------------------------------------------------
 GradGradGradGradGradGradGradGradGradGradGradGradGradGradGradGradGradGrad

                          Input orientation:                          
 ---------------------------------------------------------------------
 Center     Atomic      Atomic             Coordinates (Angstroms)
 Number     Number       Type             X           Y           Z
 ---------------------------------------------------------------------
      1          6           0       -0.461750    0.767055    0.657052
      2          1           0        0.054502   -0.182921    0.576346
      3          1           0       -1.533986    0.765030    0.508984
      4          6           0        0.212284    1.923189    0.927609
      5          1           0       -0.328388    2.829696    1.163824
      6          1           0        1.254418    1.899742    1.220590
      7          8           0        0.295789    2.172040   -1.256612
      8          1           0        0.883947    1.410471   -1.393650
 ---------------------------------------------------------------------
                    Distance matrix (angstroms):
                    1          2          3          4          5
     1  C    0.000000
     2  H    1.084197   0.000000
     3  H    1.082413   1.851065   0.000000
     4  C    1.365346   2.141023   2.136829   0.000000
     5  H    2.128166   3.093153   2.478936   1.081610   0.000000
     6  H    2.132085   2.488440   3.093404   1.082788   1.836658
     7  O    2.491979   2.993960   2.906043   2.199937   2.584689
     8  H    2.535796   2.666039   3.143725   2.470274   3.166170
                    6          7          8
     6  H    0.000000
     7  O    2.670140   0.000000
     8  H    2.685310   0.971955   0.000000
 Stoichiometry    C2H5O(2)
 Framework group  C1[X(C2H5O)]
 Deg. of freedom    18
 Full point group                 C1      NOp   1
 Largest Abelian subgroup         C1      NOp   1
 Largest concise Abelian subgroup C1      NOp   1
                         Standard orientation:                         
 ---------------------------------------------------------------------
 Center     Atomic      Atomic             Coordinates (Angstroms)
 Number     Number       Type             X           Y           Z
 ---------------------------------------------------------------------
      1          6           0       -1.000454   -0.568437   -0.025901
      2          1           0       -1.187534   -1.140766    0.875722
      3          1           0       -1.151262   -1.069173   -0.973602
      4          6           0       -0.584070    0.730720    0.028755
      5          1           0       -0.557028    1.335160   -0.867794
      6          1           0       -0.578105    1.270145    0.967592
      7          8           0        1.446946   -0.104943   -0.099153
      8          1           0        1.405501   -0.529518    0.774182
 ---------------------------------------------------------------------
 Rotational constants (GHZ):     24.2960804      8.5526006      7.0628349

 **********************************************************************

            Population analysis using the SCF density.

 **********************************************************************

 Orbital symmetries:
 Alpha Orbitals:
       Occupied  (A) (A) (A) (A) (A) (A) (A) (A) (A) (A) (A) (A)
                 (A)
       Virtual   (A) (A) (A) (A) (A) (A) (A) (A) (A) (A) (A) (A)
                 (A) (A) (A) (A) (A) (A) (A) (A) (A) (A) (A) (A)
                 (A) (A) (A) (A) (A) (A) (A) (A) (A) (A) (A) (A)
                 (A) (A) (A) (A) (A) (A) (A) (A) (A) (A) (A) (A)
                 (A) (A) (A) (A) (A) (A) (A) (A) (A) (A) (A) (A)
                 (A) (A) (A) (A) (A) (A) (A) (A) (A)
 Beta  Orbitals:
       Occupied  (A) (A) (A) (A) (A) (A) (A) (A) (A) (A) (A) (A)
       Virtual   (A) (A) (A) (A) (A) (A) (A) (A) (A) (A) (A) (A)
                 (A) (A) (A) (A) (A) (A) (A) (A) (A) (A) (A) (A)
                 (A) (A) (A) (A) (A) (A) (A) (A) (A) (A) (A) (A)
                 (A) (A) (A) (A) (A) (A) (A) (A) (A) (A) (A) (A)
                 (A) (A) (A) (A) (A) (A) (A) (A) (A) (A) (A) (A)
                 (A) (A) (A) (A) (A) (A) (A) (A) (A) (A)
 The electronic state is 2-A.
 Alpha  occ. eigenvalues --  -19.17352 -10.23062 -10.22395  -0.97120  -0.78826
 Alpha  occ. eigenvalues --   -0.61108  -0.49627  -0.44640  -0.43326  -0.38413
 Alpha  occ. eigenvalues --   -0.38148  -0.30100  -0.25721
 Alpha virt. eigenvalues --   -0.02575   0.00983   0.02941   0.03633   0.04769
 Alpha virt. eigenvalues --    0.07671   0.08075   0.11178   0.12391   0.14666
 Alpha virt. eigenvalues --    0.17137   0.18909   0.21522   0.23882   0.25295
 Alpha virt. eigenvalues --    0.29893   0.31831   0.32506   0.34392   0.56410
 Alpha virt. eigenvalues --    0.61918   0.67794   0.68599   0.71847   0.86515
 Alpha virt. eigenvalues --    0.87637   0.89078   0.97488   0.99579   1.02205
 Alpha virt. eigenvalues --    1.09457   1.10911   1.16810   1.23415   1.24568
 Alpha virt. eigenvalues --    1.32612   1.39485   1.50364   1.52638   1.59826
 Alpha virt. eigenvalues --    1.60855   1.81305   1.82258   1.91470   1.96829
 Alpha virt. eigenvalues --    1.99414   2.03292   2.10079   2.20198   2.21111
 Alpha virt. eigenvalues --    2.39337   2.41742   2.45642   2.49189   2.58182
 Alpha virt. eigenvalues --    2.61043   2.66405   2.68329   2.71882   2.74921
 Alpha virt. eigenvalues --    2.98809   3.20169   3.33731   3.43170   3.46769
 Alpha virt. eigenvalues --    3.70300   4.04217   4.30480   4.50234
  Beta  occ. eigenvalues --  -19.15373 -10.23048 -10.21909  -0.92035  -0.77810
  Beta  occ. eigenvalues --   -0.60605  -0.49348  -0.44189  -0.41404  -0.38265
  Beta  occ. eigenvalues --   -0.31001  -0.27901
  Beta virt. eigenvalues --   -0.11971  -0.01075   0.01160   0.03000   0.03761
  Beta virt. eigenvalues --    0.05137   0.07793   0.08066   0.11515   0.12937
  Beta virt. eigenvalues --    0.14727   0.17599   0.19073   0.22365   0.24225
  Beta virt. eigenvalues --    0.25754   0.30040   0.32127   0.32623   0.34745
  Beta virt. eigenvalues --    0.56613   0.62086   0.68637   0.70086   0.72312
  Beta virt. eigenvalues --    0.87346   0.88003   0.89122   0.98161   1.00463
  Beta virt. eigenvalues --    1.02510   1.09813   1.11772   1.20594   1.24473
  Beta virt. eigenvalues --    1.25857   1.33969   1.40574   1.50917   1.54197
  Beta virt. eigenvalues --    1.60808   1.63035   1.83763   1.85157   1.91762
  Beta virt. eigenvalues --    1.98817   2.00789   2.03351   2.11704   2.20888
  Beta virt. eigenvalues --    2.21386   2.40249   2.42240   2.46630   2.50101
  Beta virt. eigenvalues --    2.58582   2.61701   2.66526   2.69912   2.72002
  Beta virt. eigenvalues --    2.75083   2.98955   3.20270   3.33867   3.44007
  Beta virt. eigenvalues --    3.46997   3.70504   4.06662   4.31261   4.50710
          Condensed to atoms (all electrons):
              1          2          3          4          5          6
     1  C    5.232589   0.382613   0.373407   0.294821  -0.015834  -0.021912
     2  H    0.382613   0.537088  -0.032726  -0.028836   0.004054  -0.007566
     3  H    0.373407  -0.032726   0.512970  -0.011580  -0.007287   0.004020
     4  C    0.294821  -0.028836  -0.011580   5.237678   0.381135   0.373577
     5  H   -0.015834   0.004054  -0.007287   0.381135   0.513420  -0.032340
     6  H   -0.021912  -0.007566   0.004020   0.373577  -0.032340   0.536662
     7  O   -0.027889  -0.003171  -0.002533   0.019098  -0.011366  -0.011579
     8  H    0.021213   0.000127  -0.000009  -0.005242   0.001068  -0.000739
              7          8
     1  C   -0.027889   0.021213
     2  H   -0.003171   0.000127
     3  H   -0.002533  -0.000009
     4  C    0.019098  -0.005242
     5  H   -0.011366   0.001068
     6  H   -0.011579  -0.000739
     7  O    8.278777   0.208455
     8  H    0.208455   0.464862
 Mulliken atomic charges:
              1
     1  C   -0.239006
     2  H    0.148418
     3  H    0.163739
     4  C   -0.260651
     5  H    0.167149
     6  H    0.159878
     7  O   -0.449791
     8  H    0.310265
 Sum of Mulliken atomic charges =   0.00000
 Mulliken charges with hydrogens summed into heavy atoms:
              1
     1  C    0.073150
     4  C    0.066376
     7  O   -0.139526
 Sum of Mulliken charges with hydrogens summed into heavy atoms =   0.00000
          Atomic-Atomic Spin Densities.
              1          2          3          4          5          6
     1  C    0.337194   0.003252   0.002610   0.082633  -0.002012  -0.003086
     2  H    0.003252  -0.015933   0.000681  -0.004250  -0.000007   0.000269
     3  H    0.002610   0.000681  -0.014707  -0.003598   0.000279  -0.000015
     4  C    0.082633  -0.004250  -0.003598  -0.040228   0.003463   0.004641
     5  H   -0.002012  -0.000007   0.000279   0.003463   0.002688   0.000383
     6  H   -0.003086   0.000269  -0.000015   0.004641   0.000383   0.000306
     7  O   -0.050465  -0.000682  -0.001139  -0.084093  -0.002559  -0.001774
     8  H   -0.000612   0.000112   0.000045   0.003297  -0.000011   0.000155
              7          8
     1  C   -0.050465  -0.000612
     2  H   -0.000682   0.000112
     3  H   -0.001139   0.000045
     4  C   -0.084093   0.003297
     5  H   -0.002559  -0.000011
     6  H   -0.001774   0.000155
     7  O    0.850741   0.005994
     8  H    0.005994  -0.027086
 Mulliken atomic spin densities:
              1
     1  C    0.369514
     2  H   -0.016557
     3  H   -0.015844
     4  C   -0.038134
     5  H    0.002223
     6  H    0.000880
     7  O    0.716023
     8  H   -0.018106
 Sum of Mulliken atomic spin densities =   1.00000
 Electronic spatial extent (au):  <R**2>=            206.6216
 Charge=              0.0000 electrons
 Dipole moment (field-independent basis, Debye):
    X=             -2.0771    Y=             -0.2468    Z=              1.4322  Tot=              2.5350
 Quadrupole moment (field-independent basis, Debye-Ang):
   XX=            -23.2155   YY=            -18.2341   ZZ=            -17.4399
   XY=             -0.3862   XZ=              2.3487   YZ=             -1.0727
 Traceless Quadrupole moment (field-independent basis, Debye-Ang):
   XX=             -3.5857   YY=              1.3957   ZZ=              2.1900
   XY=             -0.3862   XZ=              2.3487   YZ=             -1.0727
 Octapole moment (field-independent basis, Debye-Ang**2):
  XXX=              4.8811  YYY=              0.6028  ZZZ=              1.1380  XYY=             -0.4107
  XXY=             -3.0520  XXZ=              3.3996  XZZ=              1.2248  YZZ=             -0.3740
  YYZ=              0.5310  XYZ=             -1.6377
 Hexadecapole moment (field-independent basis, Debye-Ang**3):
 XXXX=           -175.2988 YYYY=            -73.8241 ZZZZ=            -34.0271 XXXY=             -1.8963
 XXXZ=              5.5353 YYYX=             -0.5802 YYYZ=             -1.3360 ZZZX=              2.4335
 ZZZY=             -1.0245 XXYY=            -39.4376 XXZZ=            -30.8140 YYZZ=            -15.2262
 XXYZ=             -2.5061 YYXZ=              1.0832 ZZXY=             -0.2035
 N-N= 6.843162961183D+01 E-N=-7.392841133115D+02  KE= 2.279315147986D+02
                          Isotropic Fermi Contact Couplings
        Atom                 a.u.       MegaHertz       Gauss      10(-4) cm-1
     1  C(13)              0.03651      41.04673      14.64649      13.69171
     2  H(1)              -0.00504     -22.54218      -8.04361      -7.51926
     3  H(1)              -0.00485     -21.67843      -7.73540      -7.23114
     4  C(13)              0.01828      20.54632       7.33144       6.85352
     5  H(1)               0.00092       4.10557       1.46497       1.36947
     6  H(1)               0.00012       0.54391       0.19408       0.18143
     7  O(17)              0.13591     -82.38987     -29.39875     -27.48230
     8  H(1)              -0.01112     -49.72103     -17.74170     -16.58515
 --------------------------------------------------------
       Center         ----  Spin Dipole Couplings  ----
                      3XX-RR        3YY-RR        3ZZ-RR
 --------------------------------------------------------
     1   Atom        0.353755     -0.162166     -0.191590
     2   Atom        0.002914     -0.009851      0.006936
     3   Atom        0.002960     -0.013807      0.010847
     4   Atom        0.000119      0.019121     -0.019240
     5   Atom        0.000523      0.006693     -0.007217
     6   Atom        0.000440      0.004834     -0.005274
     7   Atom        2.761731     -1.357514     -1.404217
     8   Atom       -0.034419     -0.056317      0.090735
 --------------------------------------------------------
                        XY            XZ            YZ
 --------------------------------------------------------
     1   Atom       -0.116839     -0.000674      0.000014
     2   Atom        0.002887     -0.011053     -0.023567
     3   Atom        0.002470      0.011370      0.021528
     4   Atom       -0.025499     -0.004911      0.002501
     5   Atom       -0.006400      0.005170     -0.008059
     6   Atom       -0.004671     -0.005227      0.008901
     7   Atom       -0.347813     -0.028558      0.003199
     8   Atom       -0.006536      0.004745     -0.093561
 --------------------------------------------------------


 ---------------------------------------------------------------------------------
              Anisotropic Spin Dipole Couplings in Principal Axis System
 ---------------------------------------------------------------------------------

       Atom             a.u.   MegaHertz   Gauss  10(-4) cm-1        Axes

              Baa    -0.1916   -25.710    -9.174    -8.576  0.0076  0.0297  0.9995
     1 C(13)  Bbb    -0.1874   -25.146    -8.973    -8.388  0.2109  0.9770 -0.0307
              Bcc     0.3790    50.856    18.147    16.964  0.9775 -0.2110 -0.0012
 
              Baa    -0.0271   -14.435    -5.151    -4.815  0.1432  0.7909  0.5949
     2 H(1)   Bbb    -0.0011    -0.583    -0.208    -0.194  0.9079 -0.3443  0.2392
              Bcc     0.0281    15.018     5.359     5.009 -0.3940 -0.5059  0.7674
 
              Baa    -0.0268   -14.274    -5.093    -4.761  0.1296  0.8431 -0.5219
     3 H(1)   Bbb    -0.0015    -0.786    -0.281    -0.262  0.9053 -0.3153 -0.2845
              Bcc     0.0282    15.061     5.374     5.024  0.4045  0.4356  0.8041
 
              Baa    -0.0214    -2.874    -1.026    -0.959  0.5004  0.2638  0.8246
     4 C(13)  Bbb    -0.0158    -2.124    -0.758    -0.709  0.6502  0.5144 -0.5591
              Bcc     0.0372     4.999     1.784     1.667 -0.5717  0.8160  0.0858
 
              Baa    -0.0114    -6.066    -2.164    -2.023 -0.2206  0.3312  0.9174
     5 H(1)   Bbb    -0.0035    -1.865    -0.665    -0.622  0.8436  0.5370  0.0090
              Bcc     0.0149     7.931     2.830     2.645 -0.4896  0.7759 -0.3978
 
              Baa    -0.0110    -5.848    -2.087    -1.951  0.2267 -0.4264  0.8757
     6 H(1)   Bbb    -0.0025    -1.342    -0.479    -0.448  0.8583  0.5125  0.0273
              Bcc     0.0135     7.191     2.566     2.399 -0.4604  0.7454  0.4821
 
              Baa    -1.4044   101.625    36.262    33.898  0.0030 -0.0455  0.9990
     7 O(17)  Bbb    -1.3866   100.336    35.802    33.469  0.0838  0.9955  0.0451
              Bcc     2.7911  -201.961   -72.065   -67.367  0.9965 -0.0835 -0.0068
 
              Baa    -0.1020   -54.423   -19.419   -18.153  0.0564  0.8987  0.4349
     8 H(1)   Bbb    -0.0345   -18.408    -6.568    -6.140  0.9975 -0.0325 -0.0621
              Bcc     0.1365    72.831    25.988    24.294  0.0417 -0.4373  0.8983
 

 ---------------------------------------------------------------------------------



 TOM, TOM, THE BURGLAR'S SON
 STOLE A MACHINE AND AWAY HE RUN
 THE JOB WAS NEAT, BUT TOM GOT BEAT
 BY THE TIME HE GOT HOME IT WAS OBSOLETE.
 Error termination request processed by link 9999.
 Error termination via Lnk1e in C:\G09W\l9999.exe at Sun Jan 17 12:32:43 2021.
 Job cpu time:  0 days  0 hours  4 minutes 41.0 seconds.
 File lengths (MBytes):  RWF=     15 Int=      0 D2E=      0 Chk=      2 Scr=      1
