 Entering Link 1 = C:\G09W\l1.exe PID=      6036.
  
 Copyright (c) 1988,1990,1992,1993,1995,1998,2003,2009, Gaussian, Inc.
                  All Rights Reserved.
  
 This is part of the Gaussian(R) 09 program.  It is based on
 the Gaussian(R) 03 system (copyright 2003, Gaussian, Inc.),
 the Gaussian(R) 98 system (copyright 1998, Gaussian, Inc.),
 the Gaussian(R) 94 system (copyright 1995, Gaussian, Inc.),
 the Gaussian 92(TM) system (copyright 1992, Gaussian, Inc.),
 the Gaussian 90(TM) system (copyright 1990, Gaussian, Inc.),
 the Gaussian 88(TM) system (copyright 1988, Gaussian, Inc.),
 the Gaussian 86(TM) system (copyright 1986, Carnegie Mellon
 University), and the Gaussian 82(TM) system (copyright 1983,
 Carnegie Mellon University). Gaussian is a federally registered
 trademark of Gaussian, Inc.
  
 This software contains proprietary and confidential information,
 including trade secrets, belonging to Gaussian, Inc.
  
 This software is provided under written license and may be
 used, copied, transmitted, or stored only in accord with that
 written license.
  
 The following legend is applicable only to US Government
 contracts under FAR:
  
                    RESTRICTED RIGHTS LEGEND
  
 Use, reproduction and disclosure by the US Government is
 subject to restrictions as set forth in subparagraphs (a)
 and (c) of the Commercial Computer Software - Restricted
 Rights clause in FAR 52.227-19.
  
 Gaussian, Inc.
 340 Quinnipiac St., Bldg. 40, Wallingford CT 06492
  
  
 ---------------------------------------------------------------
 Warning -- This program may not be used in any manner that
 competes with the business of Gaussian, Inc. or will provide
 assistance to any competitor of Gaussian, Inc.  The licensee
 of this program is prohibited from giving any competitor of
 Gaussian, Inc. access to this program.  By using this program,
 the user acknowledges that Gaussian, Inc. is engaged in the
 business of creating and licensing software in the field of
 computational chemistry and represents and warrants to the
 licensee that it is not a competitor of Gaussian, Inc. and that
 it will not use this program in any manner prohibited above.
 ---------------------------------------------------------------
  

 Cite this work as:
 Gaussian 09, Revision A.02,
 M. J. Frisch, G. W. Trucks, H. B. Schlegel, G. E. Scuseria, 
 M. A. Robb, J. R. Cheeseman, G. Scalmani, V. Barone, B. Mennucci, 
 G. A. Petersson, H. Nakatsuji, M. Caricato, X. Li, H. P. Hratchian, 
 A. F. Izmaylov, J. Bloino, G. Zheng, J. L. Sonnenberg, M. Hada, 
 M. Ehara, K. Toyota, R. Fukuda, J. Hasegawa, M. Ishida, T. Nakajima, 
 Y. Honda, O. Kitao, H. Nakai, T. Vreven, J. A. Montgomery, Jr., 
 J. E. Peralta, F. Ogliaro, M. Bearpark, J. J. Heyd, E. Brothers, 
 K. N. Kudin, V. N. Staroverov, R. Kobayashi, J. Normand, 
 K. Raghavachari, A. Rendell, J. C. Burant, S. S. Iyengar, J. Tomasi, 
 M. Cossi, N. Rega, J. M. Millam, M. Klene, J. E. Knox, J. B. Cross, 
 V. Bakken, C. Adamo, J. Jaramillo, R. Gomperts, R. E. Stratmann, 
 O. Yazyev, A. J. Austin, R. Cammi, C. Pomelli, J. W. Ochterski, 
 R. L. Martin, K. Morokuma, V. G. Zakrzewski, G. A. Voth, 
 P. Salvador, J. J. Dannenberg, S. Dapprich, A. D. Daniels, 
 O. Farkas, J. B. Foresman, J. V. Ortiz, J. Cioslowski, 
 and D. J. Fox, Gaussian, Inc., Wallingford CT, 2009.
 
 ******************************************
 Gaussian 09:  IA32W-G09RevA.02 11-Jun-2009
                17-Jan-2021 
 ******************************************
 %chk=D:\Documents\rayGit\FQ\quimicaComputacional\p3Eteno\estadoDeTransicion\TSET
 HENEOHRADICALM052X.chk
 %nprocshared=4
 Will use up to    4 processors via shared memory.
 %mem=1500mb
 ----------------------------------------------------------------------
 # opt=(readfc,ts,noeigen) geom=check guess=check freq=noraman 6-31+g(d
 ,p) iop(1/8=3) m052x
 ----------------------------------------------------------------------
 1/5=1,8=3,10=3,11=1,14=-1,18=20,26=3,29=2,38=1/1,3;
 2/9=110,12=2,40=1/2;
 3/5=1,6=6,7=111,11=2,14=-4,16=1,25=1,30=1,71=1,74=-38,116=-2/1,2,3;
 4/5=1/1;
 5/5=2,38=6/2;
 6/7=2,8=2,9=2,10=2,28=1/1;
 7//1,2,3,16;
 1/5=1,8=3,11=1,14=-1,18=20/3(2);
 2/9=110/2;
 99//99;
 2/9=110/2;
 3/5=1,6=6,7=111,11=2,14=-2,16=1,25=1,30=1,71=1,74=-38/1,2,3;
 4/5=5,16=3/1;
 5/5=2,38=5/2;
 7//1,2,3,16;
 1/5=1,8=3,11=1,14=-1,18=20/3(-5);
 2/9=110/2;
 6/7=2,8=2,9=2,10=2,19=2,28=1/1;
 99/9=1/99;
 -------------------------------------------------
 Transition state Ethene OH radical with M052X TWO
 -------------------------------------------------
 Redundant internal coordinates taken from checkpoint file:
 D:\Documents\rayGit\FQ\quimicaComputacional\p3Eteno\estadoDeTransicion\TSETHENEOHRADICALM052X.chk
 Charge =  0 Multiplicity = 2
 C,0,-0.4593437051,0.7524050275,0.6675100569
 H,0,0.0620448811,-0.1938386273,0.6162241841
 H,0,-1.5275501011,0.7483159937,0.5091145144
 C,0,0.2088301193,1.9136680378,0.9073951015
 H,0,-0.3365003038,2.8221173995,1.1122165058
 H,0,1.2474712399,1.8960579987,1.2030649988
 O,0,0.3884072582,2.2512512394,-1.2057889513
 H,0,0.7934570014,1.3943234207,-1.4055943301
 Recover connectivity data from disk.

 GradGradGradGradGradGradGradGradGradGradGradGradGradGradGradGradGradGrad
 Berny optimization.
 Initialization pass.
 Force constant matrix read from checkpoint file:
 D:\Documents\rayGit\FQ\quimicaComputacional\p3Eteno\estadoDeTransicion\TSETHENEO
 HRADICALM052X.chk
                           ----------------------------
                           !    Initial Parameters    !
                           ! (Angstroms and Degrees)  !
 --------------------------                            --------------------------
 ! Name  Definition              Value          Derivative Info.                !
 --------------------------------------------------------------------------------
 ! R1    R(1,2)                  1.0816         D2E/DX2 =    0.402              !
 ! R2    R(1,3)                  1.0799         D2E/DX2 =    0.4052             !
 ! R3    R(1,4)                  1.3611         D2E/DX2 =    0.2754             !
 ! R4    R(1,7)                  2.5445         D2E/DX2 =    0.0215             !
 ! R5    R(1,8)                  2.5059         D2E/DX2 =    0.0182             !
 ! R6    R(4,5)                  1.0792         D2E/DX2 =    0.4032             !
 ! R7    R(4,6)                  1.08           D2E/DX2 =    0.4014             !
 ! R8    R(4,7)                  2.1475         D2E/DX2 =   -0.0625             !
 ! R9    R(4,8)                  2.4416         D2E/DX2 =    0.0417             !
 ! R10   R(7,8)                  0.9687         D2E/DX2 =    0.4746             !
 ! A1    A(2,1,3)              117.8118         D2E/DX2 =    0.0597             !
 ! A2    A(2,1,4)              121.207          D2E/DX2 =    0.0601             !
 ! A3    A(2,1,7)              108.6522         D2E/DX2 =    0.0116             !
 ! A4    A(2,1,8)               86.7828         D2E/DX2 =    0.0106             !
 ! A5    A(3,1,4)              120.9763         D2E/DX2 =    0.0656             !
 ! A6    A(3,1,7)              102.9329         D2E/DX2 =    0.0139             !
 ! A7    A(3,1,8)              111.9725         D2E/DX2 =    0.0112             !
 ! A8    A(1,4,5)              120.2384         D2E/DX2 =    0.1243             !
 ! A9    A(1,4,6)              120.4264         D2E/DX2 =    0.1206             !
 ! A10   A(5,4,6)              116.5973         D2E/DX2 =    0.0643             !
 ! A11   A(5,4,7)               95.5485         D2E/DX2 =    0.0222             !
 ! A12   A(5,4,8)              118.6756         D2E/DX2 =    0.0138             !
 ! A13   A(6,4,7)              101.042          D2E/DX2 =    0.028              !
 ! A14   A(6,4,8)               91.4671         D2E/DX2 =    0.0168             !
 ! D1    D(2,1,4,5)           -170.1875         D2E/DX2 =    0.0137             !
 ! D2    D(2,1,4,6)             -9.5655         D2E/DX2 =    0.0121             !
 ! D3    D(3,1,4,5)             10.6257         D2E/DX2 =    0.0096             !
 ! D4    D(3,1,4,6)            171.2477         D2E/DX2 =    0.0127             !
 --------------------------------------------------------------------------------
 Trust Radius=3.00D-02 FncErr=1.00D-07 GrdErr=1.00D-06
 Number of steps in this run=  38 maximum allowed number of steps= 100.
 Search for a saddle point of order  1.
 GradGradGradGradGradGradGradGradGradGradGradGradGradGradGradGradGradGrad

                          Input orientation:                          
 ---------------------------------------------------------------------
 Center     Atomic      Atomic             Coordinates (Angstroms)
 Number     Number       Type             X           Y           Z
 ---------------------------------------------------------------------
      1          6           0       -0.459344    0.752405    0.667510
      2          1           0        0.062045   -0.193839    0.616224
      3          1           0       -1.527550    0.748316    0.509115
      4          6           0        0.208830    1.913668    0.907395
      5          1           0       -0.336500    2.822117    1.112217
      6          1           0        1.247471    1.896058    1.203065
      7          8           0        0.388407    2.251251   -1.205789
      8          1           0        0.793457    1.394323   -1.405594
 ---------------------------------------------------------------------
                    Distance matrix (angstroms):
                    1          2          3          4          5
     1  C    0.000000
     2  H    1.081598   0.000000
     3  H    1.079894   1.850930   0.000000
     4  C    1.361078   2.132583   2.128776   0.000000
     5  H    2.120510   3.082343   2.466371   1.079174   0.000000
     6  H    2.123200   2.473315   3.082146   1.080049   1.837064
     7  O    2.544498   3.066710   2.978355   2.147500   2.494900
     8  H    2.505859   2.673008   3.077419   2.441603   3.107213
                    6          7          8
     6  H    0.000000
     7  O    2.582001   0.000000
     8  H    2.694990   0.968665   0.000000
 Stoichiometry    C2H5O(2)
 Framework group  C1[X(C2H5O)]
 Deg. of freedom    18
 Full point group                 C1      NOp   1
 Largest Abelian subgroup         C1      NOp   1
 Largest concise Abelian subgroup C1      NOp   1
                         Standard orientation:                         
 ---------------------------------------------------------------------
 Center     Atomic      Atomic             Coordinates (Angstroms)
 Number     Number       Type             X           Y           Z
 ---------------------------------------------------------------------
      1          6           0       -1.066641   -0.512827   -0.032725
      2          1           0       -1.314527   -1.066652    0.862643
      3          1           0       -1.260580   -0.982521   -0.985586
      4          6           0       -0.513238    0.728736    0.036552
      5          1           0       -0.417503    1.331511   -0.853456
      6          1           0       -0.452078    1.248378    0.981400
      7          8           0        1.449097   -0.135021   -0.085592
      8          1           0        1.331182   -0.746007    0.656772
 ---------------------------------------------------------------------
 Rotational constants (GHZ):     25.4720139      8.4487681      7.0489259
 Standard basis: 6-31+G(d,p) (6D, 7F)
 There are    82 symmetry adapted basis functions of A   symmetry.
 Integral buffers will be    262144 words long.
 Raffenetti 2 integral format.
 Two-electron integral symmetry is turned on.
    82 basis functions,   131 primitive gaussians,    82 cartesian basis functions
    13 alpha electrons       12 beta electrons
       nuclear repulsion energy        68.6961084726 Hartrees.
 NAtoms=    8 NActive=    8 NUniq=    8 SFac= 7.50D-01 NAtFMM=   80 NAOKFM=F Big=F
 One-electron integrals computed using PRISM.
 NBasis=    82 RedAO= T  NBF=    82
 NBsUse=    82 1.00D-06 NBFU=    82
 Initial guess read from the checkpoint file:  D:\Documents\rayGit\FQ\quimicaComp
 utacional\p3Eteno\estadoDeTransicion\TSETHENEOHRADICALM052X.chk
 B after Tr=     0.000000    0.000000    0.000000
         Rot=    1.000000    0.000000    0.000000    0.000000 Ang=   0.00 deg.
 Initial guess orbital symmetries:
 Alpha Orbitals:
       Occupied  (A) (A) (A) (A) (A) (A) (A) (A) (A) (A) (A) (A)
                 (A)
       Virtual   (A) (A) (A) (A) (A) (A) (A) (A) (A) (A) (A) (A)
                 (A) (A) (A) (A) (A) (A) (A) (A) (A) (A) (A) (A)
                 (A) (A) (A) (A) (A) (A) (A) (A) (A) (A) (A) (A)
                 (A) (A) (A) (A) (A) (A) (A) (A) (A) (A) (A) (A)
                 (A) (A) (A) (A) (A) (A) (A) (A) (A) (A) (A) (A)
                 (A) (A) (A) (A) (A) (A) (A) (A) (A)
 Beta  Orbitals:
       Occupied  (A) (A) (A) (A) (A) (A) (A) (A) (A) (A) (A) (A)
       Virtual   (A) (A) (A) (A) (A) (A) (A) (A) (A) (A) (A) (A)
                 (A) (A) (A) (A) (A) (A) (A) (A) (A) (A) (A) (A)
                 (A) (A) (A) (A) (A) (A) (A) (A) (A) (A) (A) (A)
                 (A) (A) (A) (A) (A) (A) (A) (A) (A) (A) (A) (A)
                 (A) (A) (A) (A) (A) (A) (A) (A) (A) (A) (A) (A)
                 (A) (A) (A) (A) (A) (A) (A) (A) (A) (A)
 Initial guess <Sx>= 0.0000 <Sy>= 0.0000 <Sz>= 0.5000 <S**2>= 0.7829 S= 0.5163
 Requested convergence on RMS density matrix=1.00D-08 within 128 cycles.
 Requested convergence on MAX density matrix=1.00D-06.
 Requested convergence on             energy=1.00D-06.
 No special actions if energy rises.
 Keep R1 and R2 ints in memory in canonical form, NReq=12588294.
 SCF Done:  E(UM052X) =  -154.301589665     A.U. after    1 cycles
             Convg  =    0.7412D-09             -V/T =  2.0095
 <Sx>= 0.0000 <Sy>= 0.0000 <Sz>= 0.5000 <S**2>= 0.7829 S= 0.5163
 <L.S>= 0.000000000000E+00
 Annihilation of the first spin contaminant:
 S**2 before annihilation     0.7829,   after     0.7502

 **********************************************************************

            Population analysis using the SCF density.

 **********************************************************************

 Orbital symmetries:
 Alpha Orbitals:
       Occupied  (A) (A) (A) (A) (A) (A) (A) (A) (A) (A) (A) (A)
                 (A)
       Virtual   (A) (A) (A) (A) (A) (A) (A) (A) (A) (A) (A) (A)
                 (A) (A) (A) (A) (A) (A) (A) (A) (A) (A) (A) (A)
                 (A) (A) (A) (A) (A) (A) (A) (A) (A) (A) (A) (A)
                 (A) (A) (A) (A) (A) (A) (A) (A) (A) (A) (A) (A)
                 (A) (A) (A) (A) (A) (A) (A) (A) (A) (A) (A) (A)
                 (A) (A) (A) (A) (A) (A) (A) (A) (A)
 Beta  Orbitals:
       Occupied  (A) (A) (A) (A) (A) (A) (A) (A) (A) (A) (A) (A)
       Virtual   (A) (A) (A) (A) (A) (A) (A) (A) (A) (A) (A) (A)
                 (A) (A) (A) (A) (A) (A) (A) (A) (A) (A) (A) (A)
                 (A) (A) (A) (A) (A) (A) (A) (A) (A) (A) (A) (A)
                 (A) (A) (A) (A) (A) (A) (A) (A) (A) (A) (A) (A)
                 (A) (A) (A) (A) (A) (A) (A) (A) (A) (A) (A) (A)
                 (A) (A) (A) (A) (A) (A) (A) (A) (A) (A)
 The electronic state is 2-A.
 Alpha  occ. eigenvalues --  -19.70928 -10.61168 -10.60510  -1.09533  -0.89140
 Alpha  occ. eigenvalues --   -0.69683  -0.57305  -0.52210  -0.51082  -0.47091
 Alpha  occ. eigenvalues --   -0.44750  -0.38903  -0.31716
 Alpha virt. eigenvalues --    0.03144   0.05550   0.07420   0.08118   0.09087
 Alpha virt. eigenvalues --    0.12017   0.12553   0.15642   0.17690   0.19348
 Alpha virt. eigenvalues --    0.22558   0.24627   0.26201   0.29472   0.31063
 Alpha virt. eigenvalues --    0.35400   0.37350   0.38859   0.39890   0.61940
 Alpha virt. eigenvalues --    0.67873   0.73855   0.75189   0.80035   0.93905
 Alpha virt. eigenvalues --    0.96610   0.98394   1.05814   1.08360   1.11197
 Alpha virt. eigenvalues --    1.17151   1.20250   1.26036   1.30199   1.31957
 Alpha virt. eigenvalues --    1.43402   1.48924   1.58387   1.60861   1.66059
 Alpha virt. eigenvalues --    1.68396   1.87604   1.88681   2.01760   2.06935
 Alpha virt. eigenvalues --    2.07594   2.13199   2.19652   2.27225   2.29424
 Alpha virt. eigenvalues --    2.46713   2.50684   2.52239   2.55226   2.64521
 Alpha virt. eigenvalues --    2.66515   2.72216   2.74643   2.76946   2.79616
 Alpha virt. eigenvalues --    3.02473   3.24831   3.40740   3.49045   3.53142
 Alpha virt. eigenvalues --    3.78806   4.06783   4.35003   4.56022
  Beta  occ. eigenvalues --  -19.69176 -10.61261 -10.60078  -1.04036  -0.88033
  Beta  occ. eigenvalues --   -0.69174  -0.56960  -0.50839  -0.49429  -0.44616
  Beta  occ. eigenvalues --   -0.36793  -0.35221
  Beta virt. eigenvalues --   -0.06164   0.04581   0.05899   0.07631   0.08567
  Beta virt. eigenvalues --    0.10066   0.12196   0.12808   0.16523   0.18376
  Beta virt. eigenvalues --    0.19587   0.23127   0.24965   0.27342   0.30056
  Beta virt. eigenvalues --    0.31672   0.35456   0.37777   0.39303   0.40351
  Beta virt. eigenvalues --    0.62186   0.68096   0.75094   0.77000   0.80622
  Beta virt. eigenvalues --    0.94871   0.97352   0.98460   1.07285   1.09695
  Beta virt. eigenvalues --    1.11470   1.17638   1.21058   1.30143   1.32063
  Beta virt. eigenvalues --    1.33349   1.44598   1.50127   1.59682   1.61806
  Beta virt. eigenvalues --    1.67183   1.71374   1.90542   1.91982   2.01966
  Beta virt. eigenvalues --    2.08775   2.08958   2.13408   2.21253   2.27838
  Beta virt. eigenvalues --    2.29500   2.47448   2.51658   2.54161   2.56022
  Beta virt. eigenvalues --    2.64680   2.66963   2.72515   2.76208   2.77187
  Beta virt. eigenvalues --    2.79726   3.02786   3.25741   3.41711   3.50449
  Beta virt. eigenvalues --    3.53985   3.79774   4.11350   4.35980   4.56384
          Condensed to atoms (all electrons):
              1          2          3          4          5          6
     1  C    5.280210   0.388495   0.378667   0.274118  -0.015806  -0.015822
     2  H    0.388495   0.513029  -0.028635  -0.028245   0.003455  -0.006412
     3  H    0.378667  -0.028635   0.492694  -0.012652  -0.006263   0.003441
     4  C    0.274118  -0.028245  -0.012652   5.281042   0.386043   0.373619
     5  H   -0.015806   0.003455  -0.006263   0.386043   0.490114  -0.026930
     6  H   -0.015822  -0.006412   0.003441   0.373619  -0.026930   0.511058
     7  O   -0.037033  -0.001776  -0.001191   0.028053  -0.013479  -0.012918
     8  H    0.027956   0.000073  -0.000191  -0.015464   0.001252  -0.000497
              7          8
     1  C   -0.037033   0.027956
     2  H   -0.001776   0.000073
     3  H   -0.001191  -0.000191
     4  C    0.028053  -0.015464
     5  H   -0.013479   0.001252
     6  H   -0.012918  -0.000497
     7  O    8.262853   0.221428
     8  H    0.221428   0.442433
 Mulliken atomic charges:
              1
     1  C   -0.280786
     2  H    0.160017
     3  H    0.174131
     4  C   -0.286514
     5  H    0.181616
     6  H    0.174462
     7  O   -0.445937
     8  H    0.323011
 Sum of Mulliken atomic charges =   0.00000
 Mulliken charges with hydrogens summed into heavy atoms:
              1
     1  C    0.053362
     4  C    0.069564
     7  O   -0.122926
 Sum of Mulliken charges with hydrogens summed into heavy atoms =   0.00000
          Atomic-Atomic Spin Densities.
              1          2          3          4          5          6
     1  C    0.420164  -0.000891  -0.000799   0.070187  -0.001208  -0.002594
     2  H   -0.000891  -0.017912   0.000082  -0.001005   0.000017   0.000076
     3  H   -0.000799   0.000082  -0.017135  -0.001343   0.000113   0.000006
     4  C    0.070187  -0.001005  -0.001343  -0.159391   0.003542   0.004945
     5  H   -0.001208   0.000017   0.000113   0.003542   0.009879   0.000319
     6  H   -0.002594   0.000076   0.000006   0.004945   0.000319   0.006496
     7  O   -0.047537  -0.000199  -0.000346  -0.072173  -0.002809  -0.001491
     8  H   -0.000370   0.000115   0.000028   0.002168  -0.000011   0.000078
              7          8
     1  C   -0.047537  -0.000370
     2  H   -0.000199   0.000115
     3  H   -0.000346   0.000028
     4  C   -0.072173   0.002168
     5  H   -0.002809  -0.000011
     6  H   -0.001491   0.000078
     7  O    0.880630   0.005534
     8  H    0.005534  -0.031603
 Mulliken atomic spin densities:
              1
     1  C    0.436952
     2  H   -0.019715
     3  H   -0.019393
     4  C   -0.153070
     5  H    0.009843
     6  H    0.007835
     7  O    0.761609
     8  H   -0.024060
 Sum of Mulliken atomic spin densities =   1.00000
 Electronic spatial extent (au):  <R**2>=            205.8211
 Charge=              0.0000 electrons
 Dipole moment (field-independent basis, Debye):
    X=             -1.9385    Y=             -0.5067    Z=              1.2654  Tot=              2.3698
 Quadrupole moment (field-independent basis, Debye-Ang):
   XX=            -23.1644   YY=            -17.5543   ZZ=            -17.6380
   XY=             -0.4381   XZ=              1.9341   YZ=             -1.3010
 Traceless Quadrupole moment (field-independent basis, Debye-Ang):
   XX=             -3.7121   YY=              1.8979   ZZ=              1.8142
   XY=             -0.4381   XZ=              1.9341   YZ=             -1.3010
 Octapole moment (field-independent basis, Debye-Ang**2):
  XXX=              4.5194  YYY=              0.0664  ZZZ=              0.9073  XYY=              1.0367
  XXY=             -4.3044  XXZ=              2.6357  XZZ=              0.5400  YZZ=             -0.3755
  YYZ=              0.8619  XYZ=             -1.9155
 Hexadecapole moment (field-independent basis, Debye-Ang**3):
 XXXX=           -175.4446 YYYY=            -69.2759 ZZZZ=            -32.8858 XXXY=             -1.7620
 XXXZ=              3.9503 YYYX=             -1.3133 YYYZ=             -1.9012 ZZZX=              1.9099
 ZZZY=             -0.9951 XXYY=            -37.4993 XXZZ=            -31.3259 YYZZ=            -13.9898
 XXYZ=             -2.8545 YYXZ=              1.3247 ZZXY=              0.1586
 N-N= 6.869610847261D+01 E-N=-7.399807122092D+02  KE= 2.279368898765D+02
                          Isotropic Fermi Contact Couplings
        Atom                 a.u.       MegaHertz       Gauss      10(-4) cm-1
     1  C(13)              0.06790      76.32841      27.23587      25.46042
     2  H(1)              -0.00591     -26.41799      -9.42659      -8.81209
     3  H(1)              -0.00595     -26.60494      -9.49330      -8.87445
     4  C(13)             -0.00392      -4.40591      -1.57214      -1.46965
     5  H(1)               0.00342      15.28862       5.45536       5.09973
     6  H(1)               0.00219       9.77059       3.48639       3.25912
     7  O(17)              0.13622     -82.57428     -29.46455     -27.54381
     8  H(1)              -0.01413     -63.16755     -22.53975     -21.07043
 --------------------------------------------------------
       Center         ----  Spin Dipole Couplings  ----
                      3XX-RR        3YY-RR        3ZZ-RR
 --------------------------------------------------------
     1   Atom        0.363873     -0.146490     -0.217383
     2   Atom        0.002743     -0.012103      0.009360
     3   Atom        0.002408     -0.017078      0.014669
     4   Atom       -0.086923      0.056188      0.030735
     5   Atom        0.001024      0.009910     -0.010934
     6   Atom        0.001195      0.008224     -0.009419
     7   Atom        2.800322     -1.337267     -1.463055
     8   Atom       -0.037025     -0.005176      0.042200
 --------------------------------------------------------
                        XY            XZ            YZ
 --------------------------------------------------------
     1   Atom       -0.196315      0.000978     -0.000430
     2   Atom        0.000411     -0.013699     -0.024945
     3   Atom       -0.001017      0.013402      0.021882
     4   Atom        0.029131     -0.005227      0.003455
     5   Atom       -0.005147      0.006557     -0.003385
     6   Atom       -0.003018     -0.006478      0.004944
     7   Atom       -0.649993      0.034401     -0.021419
     8   Atom        0.000887     -0.009800     -0.123589
 --------------------------------------------------------


 ---------------------------------------------------------------------------------
              Anisotropic Spin Dipole Couplings in Principal Axis System
 ---------------------------------------------------------------------------------

       Atom             a.u.   MegaHertz   Gauss  10(-4) cm-1        Axes

              Baa    -0.2174   -29.171   -10.409    -9.730  0.0056  0.0216  0.9997
     1 C(13)  Bbb    -0.2133   -28.618   -10.212    -9.546  0.3220  0.9465 -0.0223
              Bcc     0.4307    57.789    20.621    19.276  0.9467 -0.3220  0.0016
 
              Baa    -0.0302   -16.124    -5.753    -5.378  0.2290  0.7858  0.5745
     2 H(1)   Bbb    -0.0006    -0.306    -0.109    -0.102  0.8901 -0.4079  0.2032
              Bcc     0.0308    16.430     5.862     5.480 -0.3940 -0.4648  0.7929
 
              Baa    -0.0299   -15.939    -5.687    -5.317  0.2274  0.8452 -0.4836
     3 H(1)   Bbb    -0.0008    -0.407    -0.145    -0.136  0.8940 -0.3781 -0.2403
              Bcc     0.0306    16.346     5.833     5.452  0.3860  0.3777  0.8416
 
              Baa    -0.0929   -12.466    -4.448    -4.158  0.9802 -0.1926  0.0468
     4 C(13)  Bbb     0.0308     4.136     1.476     1.380 -0.0606 -0.0661  0.9960
              Bcc     0.0621     8.330     2.972     2.778  0.1887  0.9790  0.0765
 
              Baa    -0.0139    -7.404    -2.642    -2.470 -0.3887  0.0468  0.9202
     5 H(1)   Bbb     0.0002     0.086     0.031     0.029  0.7929  0.5257  0.3082
              Bcc     0.0137     7.318     2.611     2.441 -0.4693  0.8494 -0.2415
 
              Baa    -0.0130    -6.933    -2.474    -2.313  0.3821 -0.1578  0.9105
     6 H(1)   Bbb     0.0012     0.655     0.234     0.219  0.8124  0.5269 -0.2496
              Bcc     0.0118     6.278     2.240     2.094 -0.4404  0.8351  0.3296
 
              Baa    -1.4709   106.432    37.978    35.502  0.0569  0.4220  0.9048
     7 O(17)  Bbb    -1.4295   103.435    36.908    34.502  0.1408  0.8938 -0.4258
              Bcc     2.9003  -209.867   -74.886   -70.004  0.9884 -0.1517  0.0085
 
              Baa    -0.1078   -57.498   -20.517   -19.179  0.0786  0.7668  0.6371
     8 H(1)   Bbb    -0.0369   -19.714    -7.035    -6.576  0.9959 -0.0891 -0.0157
              Bcc     0.1447    77.213    27.551    25.755 -0.0447 -0.6357  0.7707
 

 ---------------------------------------------------------------------------------

 Calling FoFJK, ICntrl=      2127 FMM=F ISym2X=0 I1Cent= 0 IOpClX= 1 NMat=1 NMatS=1 NMatT=0.
 ***** Axes restored to original set *****
 -------------------------------------------------------------------
 Center     Atomic                   Forces (Hartrees/Bohr)
 Number     Number              X              Y              Z
 -------------------------------------------------------------------
      1        6           0.003164680    0.005845697    0.003999636
      2        1           0.000379986   -0.000888543   -0.000836136
      3        1          -0.000624149    0.000015515   -0.001625208
      4        6          -0.006606398   -0.010591265    0.004696030
      5        1           0.000178511    0.002888194   -0.005646057
      6        1           0.002788844    0.001320541   -0.004523768
      7        8          -0.000060617    0.002021679    0.005846632
      8        1           0.000779143   -0.000611818   -0.001911129
 -------------------------------------------------------------------
 Cartesian Forces:  Max     0.010591265 RMS     0.003850681

 GradGradGradGradGradGradGradGradGradGradGradGradGradGradGradGradGradGrad
 Berny optimization.
 Internal  Forces:  Max     0.006720367 RMS     0.002504551
 Search for a saddle point.
 Step number   1 out of a maximum of   38
 All quantities printed in internal units (Hartrees-Bohrs-Radians)
 Swaping is turned off.
 Second derivative matrix not updated -- first step.
     Eigenvalues ---   -0.09155   0.00550   0.00778   0.01752   0.01955
     Eigenvalues ---    0.02835   0.03371   0.06427   0.09645   0.09871
     Eigenvalues ---    0.14484   0.16363   0.30440   0.40094   0.40270
     Eigenvalues ---    0.40512   0.40590   0.523371000.000001000.00000
     Eigenvalues --- 1000.000001000.000001000.000001000.000001000.00000
     Eigenvalues --- 1000.000001000.000001000.00000
 Eigenvectors required to have negative eigenvalues:
                          R8        R9        R3        A6        A13
   1                    0.87051   0.24272  -0.21047  -0.15873   0.14116
                          A4        R5        A12       A11       A3
   1                   -0.13478  -0.11801   0.10892   0.09970  -0.09363
 RFO step:  Lambda0=3.010153538D-04 Lambda=-2.82753922D-03.
 Linear search not attempted -- option 19 set.
 Maximum step size (   0.030) exceeded in Quadratic search.
    -- Step size scaled by   0.075
 Iteration  1 RMS(Cart)=  0.00465203 RMS(Int)=  0.00002926
 Iteration  2 RMS(Cart)=  0.00002385 RMS(Int)=  0.00001126
 Iteration  3 RMS(Cart)=  0.00000000 RMS(Int)=  0.00001126
 Variable       Old X    -DE/DX   Delta X   Delta X   Delta X     New X
                                 (Linear)    (Quad)   (Total)
    R1        2.04392   0.00100   0.00000   0.00026   0.00026   2.04418
    R2        2.04070   0.00086   0.00000   0.00027   0.00027   2.04098
    R3        2.57206  -0.00672   0.00000  -0.00193  -0.00193   2.57014
    R4        4.80840   0.00092   0.00000   0.01171   0.01170   4.82011
    R5        4.73539   0.00106   0.00000   0.00859   0.00860   4.74398
    R6        2.03934   0.00126   0.00000   0.00021   0.00021   2.03955
    R7        2.04100   0.00143   0.00000   0.00023   0.00023   2.04123
    R8        4.05819  -0.00597   0.00000   0.00649   0.00650   4.06469
    R9        4.61396   0.00026   0.00000   0.01025   0.01024   4.62420
   R10        1.83051   0.00183   0.00000   0.00033   0.00033   1.83085
    A1        2.05620  -0.00014   0.00000  -0.00034  -0.00034   2.05586
    A2        2.11546   0.00015   0.00000   0.00019   0.00019   2.11565
    A3        1.89634   0.00014   0.00000   0.00229   0.00228   1.89862
    A4        1.51465   0.00034   0.00000   0.00373   0.00375   1.51840
    A5        2.11144  -0.00003   0.00000   0.00014   0.00014   2.11157
    A6        1.79652   0.00105   0.00000  -0.00176  -0.00176   1.79476
    A7        1.95429  -0.00211   0.00000  -0.00639  -0.00640   1.94789
    A8        2.09856   0.00108   0.00000   0.00150   0.00147   2.10003
    A9        2.10184   0.00115   0.00000   0.00139   0.00136   2.10319
   A10        2.03501  -0.00088   0.00000   0.00119   0.00116   2.03616
   A11        1.66764  -0.00375   0.00000  -0.01003  -0.01002   1.65762
   A12        2.07128  -0.00379   0.00000  -0.01142  -0.01142   2.05986
   A13        1.76352  -0.00479   0.00000  -0.00586  -0.00586   1.75766
   A14        1.59640  -0.00096   0.00000  -0.00069  -0.00069   1.59572
    D1       -2.97033  -0.00309   0.00000  -0.00741  -0.00742  -2.97775
    D2       -0.16695   0.00138   0.00000   0.00678   0.00678  -0.16017
    D3        0.18545  -0.00142   0.00000  -0.00623  -0.00623   0.17922
    D4        2.98884   0.00305   0.00000   0.00797   0.00797   2.99681
         Item               Value     Threshold  Converged?
 Maximum Force            0.006720     0.000450     NO 
 RMS     Force            0.002505     0.000300     NO 
 Maximum Displacement     0.010609     0.001800     NO 
 RMS     Displacement     0.004664     0.001200     NO 
 Predicted change in Energy=-1.830034D-04
 GradGradGradGradGradGradGradGradGradGradGradGradGradGradGradGradGradGrad

                          Input orientation:                          
 ---------------------------------------------------------------------
 Center     Atomic      Atomic             Coordinates (Angstroms)
 Number     Number       Type             X           Y           Z
 ---------------------------------------------------------------------
      1          6           0       -0.459408    0.751035    0.670065
      2          1           0        0.061685   -0.195639    0.620840
      3          1           0       -1.527187    0.747149    0.507843
      4          6           0        0.208040    1.911405    0.910505
      5          1           0       -0.336258    2.822525    1.106603
      6          1           0        1.247775    1.895421    1.202856
      7          8           0        0.392921    2.256136   -1.204565
      8          1           0        0.789249    1.396267   -1.410003
 ---------------------------------------------------------------------
                    Distance matrix (angstroms):
                    1          2          3          4          5
     1  C    0.000000
     2  H    1.081735   0.000000
     3  H    1.080038   1.850981   0.000000
     4  C    1.360058   2.131891   2.128060   0.000000
     5  H    2.120567   3.082797   2.466579   1.079284   0.000000
     6  H    2.123196   2.473476   3.082529   1.080172   1.837919
     7  O    2.550692   3.074576   2.982649   2.150939   2.488774
     8  H    2.510409   2.681014   3.076583   2.447024   3.103914
                    6          7          8
     6  H    0.000000
     7  O    2.580032   0.000000
     8  H    2.699339   0.968842   0.000000
 Stoichiometry    C2H5O(2)
 Framework group  C1[X(C2H5O)]
 Deg. of freedom    18
 Full point group                 C1      NOp   1
 Largest Abelian subgroup         C1      NOp   1
 Largest concise Abelian subgroup C1      NOp   1
                         Standard orientation:                         
 ---------------------------------------------------------------------
 Center     Atomic      Atomic             Coordinates (Angstroms)
 Number     Number       Type             X           Y           Z
 ---------------------------------------------------------------------
      1          6           0       -1.070453   -0.510754   -0.032948
      2          1           0       -1.322180   -1.063199    0.862367
      3          1           0       -1.262391   -0.981530   -0.985844
      4          6           0       -0.514237    0.728429    0.036381
      5          1           0       -0.407715    1.328503   -0.854360
      6          1           0       -0.447687    1.247470    0.981336
      7          8           0        1.451937   -0.135348   -0.084407
      8          1           0        1.332615   -0.754513    0.651155
 ---------------------------------------------------------------------
 Rotational constants (GHZ):     25.5299656      8.4135368      7.0271534
 Standard basis: 6-31+G(d,p) (6D, 7F)
 There are    82 symmetry adapted basis functions of A   symmetry.
 Integral buffers will be    262144 words long.
 Raffenetti 2 integral format.
 Two-electron integral symmetry is turned on.
    82 basis functions,   131 primitive gaussians,    82 cartesian basis functions
    13 alpha electrons       12 beta electrons
       nuclear repulsion energy        68.6559751766 Hartrees.
 NAtoms=    8 NActive=    8 NUniq=    8 SFac= 7.50D-01 NAtFMM=   80 NAOKFM=F Big=F
 One-electron integrals computed using PRISM.
 NBasis=    82 RedAO= T  NBF=    82
 NBsUse=    82 1.00D-06 NBFU=    82
 Initial guess read from the read-write file.
 B after Tr=     0.000000    0.000000    0.000000
         Rot=    1.000000    0.000000    0.000000    0.000000 Ang=   0.00 deg.
 Initial guess orbital symmetries:
 Alpha Orbitals:
       Occupied  (A) (A) (A) (A) (A) (A) (A) (A) (A) (A) (A) (A)
                 (A)
       Virtual   (A) (A) (A) (A) (A) (A) (A) (A) (A) (A) (A) (A)
                 (A) (A) (A) (A) (A) (A) (A) (A) (A) (A) (A) (A)
                 (A) (A) (A) (A) (A) (A) (A) (A) (A) (A) (A) (A)
                 (A) (A) (A) (A) (A) (A) (A) (A) (A) (A) (A) (A)
                 (A) (A) (A) (A) (A) (A) (A) (A) (A) (A) (A) (A)
                 (A) (A) (A) (A) (A) (A) (A) (A) (A)
 Beta  Orbitals:
       Occupied  (A) (A) (A) (A) (A) (A) (A) (A) (A) (A) (A) (A)
       Virtual   (A) (A) (A) (A) (A) (A) (A) (A) (A) (A) (A) (A)
                 (A) (A) (A) (A) (A) (A) (A) (A) (A) (A) (A) (A)
                 (A) (A) (A) (A) (A) (A) (A) (A) (A) (A) (A) (A)
                 (A) (A) (A) (A) (A) (A) (A) (A) (A) (A) (A) (A)
                 (A) (A) (A) (A) (A) (A) (A) (A) (A) (A) (A) (A)
                 (A) (A) (A) (A) (A) (A) (A) (A) (A) (A)
 Initial guess <Sx>= 0.0000 <Sy>= 0.0000 <Sz>= 0.5000 <S**2>= 0.7829 S= 0.5163
 Requested convergence on RMS density matrix=1.00D-08 within 128 cycles.
 Requested convergence on MAX density matrix=1.00D-06.
 Requested convergence on             energy=1.00D-06.
 No special actions if energy rises.
 Keep R1 and R2 ints in memory in canonical form, NReq=12588294.
 SCF Done:  E(UM052X) =  -154.301772853     A.U. after   15 cycles
             Convg  =    0.5201D-08             -V/T =  2.0095
 <Sx>= 0.0000 <Sy>= 0.0000 <Sz>= 0.5000 <S**2>= 0.7825 S= 0.5161
 <L.S>= 0.000000000000E+00
 Annihilation of the first spin contaminant:
 S**2 before annihilation     0.7825,   after     0.7502
 Calling FoFJK, ICntrl=      2127 FMM=F ISym2X=0 I1Cent= 0 IOpClX= 1 NMat=1 NMatS=1 NMatT=0.
 ***** Axes restored to original set *****
 -------------------------------------------------------------------
 Center     Atomic                   Forces (Hartrees/Bohr)
 Number     Number              X              Y              Z
 -------------------------------------------------------------------
      1        6           0.002924602    0.005399837    0.003745891
      2        1           0.000349456   -0.000825065   -0.000766561
      3        1          -0.000569931    0.000014336   -0.001520245
      4        6          -0.006163890   -0.009825345    0.004506751
      5        1           0.000210938    0.002657094   -0.005290320
      6        1           0.002572626    0.001248649   -0.004225747
      7        8          -0.000038077    0.001895941    0.005375970
      8        1           0.000714276   -0.000565447   -0.001825740
 -------------------------------------------------------------------
 Cartesian Forces:  Max     0.009825345 RMS     0.003584681

 GradGradGradGradGradGradGradGradGradGradGradGradGradGradGradGradGradGrad
 Berny optimization.
 Internal  Forces:  Max     0.006238700 RMS     0.002327414
 Search for a saddle point.
 Step number   2 out of a maximum of   38
 All quantities printed in internal units (Hartrees-Bohrs-Radians)
 Swaping is turned off.
 Update second derivatives using D2CorX and points    1    2
     Eigenvalues ---   -0.09164   0.00546   0.00778   0.01750   0.01954
     Eigenvalues ---    0.02829   0.03388   0.06417   0.09640   0.09871
     Eigenvalues ---    0.14462   0.16357   0.30417   0.40094   0.40270
     Eigenvalues ---    0.40512   0.40590   0.523371000.000001000.00000
     Eigenvalues --- 1000.000001000.000001000.000001000.000001000.00000
     Eigenvalues --- 1000.000001000.000001000.00000
 Eigenvectors required to have negative eigenvalues:
                          R8        R9        R3        A6        A13
   1                    0.87006   0.24526  -0.21088  -0.15953   0.14131
                          A4        R5        A12       A11       A3
   1                   -0.13543  -0.11721   0.10856   0.09718  -0.09156
 RFO step:  Lambda0=2.531487701D-04 Lambda=-2.54743335D-03.
 Linear search not attempted -- option 19 set.
 Maximum step size (   0.030) exceeded in Quadratic search.
    -- Step size scaled by   0.077
 Iteration  1 RMS(Cart)=  0.00482214 RMS(Int)=  0.00003085
 Iteration  2 RMS(Cart)=  0.00002513 RMS(Int)=  0.00001107
 Iteration  3 RMS(Cart)=  0.00000000 RMS(Int)=  0.00001107
 Variable       Old X    -DE/DX   Delta X   Delta X   Delta X     New X
                                 (Linear)    (Quad)   (Total)
    R1        2.04418   0.00092   0.00000   0.00025   0.00025   2.04443
    R2        2.04098   0.00079   0.00000   0.00026   0.00026   2.04124
    R3        2.57014  -0.00624   0.00000  -0.00180  -0.00180   2.56834
    R4        4.82011   0.00087   0.00000   0.01225   0.01224   4.83235
    R5        4.74398   0.00101   0.00000   0.00888   0.00888   4.75287
    R6        2.03955   0.00117   0.00000   0.00020   0.00020   2.03975
    R7        2.04123   0.00132   0.00000   0.00022   0.00022   2.04145
    R8        4.06469  -0.00549   0.00000   0.00629   0.00630   4.07098
    R9        4.62420   0.00026   0.00000   0.01020   0.01020   4.63440
   R10        1.83085   0.00171   0.00000   0.00035   0.00036   1.83120
    A1        2.05586  -0.00013   0.00000  -0.00032  -0.00032   2.05555
    A2        2.11565   0.00014   0.00000   0.00018   0.00018   2.11583
    A3        1.89862   0.00012   0.00000   0.00245   0.00244   1.90106
    A4        1.51840   0.00035   0.00000   0.00402   0.00403   1.52243
    A5        2.11157  -0.00003   0.00000   0.00013   0.00012   2.11170
    A6        1.79476   0.00098   0.00000  -0.00160  -0.00159   1.79317
    A7        1.94789  -0.00199   0.00000  -0.00646  -0.00647   1.94142
    A8        2.10003   0.00099   0.00000   0.00141   0.00138   2.10141
    A9        2.10319   0.00105   0.00000   0.00129   0.00126   2.10445
   A10        2.03616  -0.00083   0.00000   0.00107   0.00104   2.03720
   A11        1.65762  -0.00348   0.00000  -0.00996  -0.00995   1.64767
   A12        2.05986  -0.00355   0.00000  -0.01141  -0.01142   2.04844
   A13        1.75766  -0.00447   0.00000  -0.00579  -0.00580   1.75186
   A14        1.59572  -0.00088   0.00000  -0.00040  -0.00040   1.59532
    D1       -2.97775  -0.00288   0.00000  -0.00711  -0.00711  -2.98487
    D2       -0.16017   0.00129   0.00000   0.00660   0.00660  -0.15357
    D3        0.17922  -0.00133   0.00000  -0.00603  -0.00604   0.17319
    D4        2.99681   0.00284   0.00000   0.00768   0.00768   3.00449
         Item               Value     Threshold  Converged?
 Maximum Force            0.006239     0.000450     NO 
 RMS     Force            0.002327     0.000300     NO 
 Maximum Displacement     0.010811     0.001800     NO 
 RMS     Displacement     0.004835     0.001200     NO 
 Predicted change in Energy=-1.701354D-04
 GradGradGradGradGradGradGradGradGradGradGradGradGradGradGradGradGradGrad

                          Input orientation:                          
 ---------------------------------------------------------------------
 Center     Atomic      Atomic             Coordinates (Angstroms)
 Number     Number       Type             X           Y           Z
 ---------------------------------------------------------------------
      1          6           0       -0.459493    0.749592    0.672649
      2          1           0        0.061294   -0.197515    0.625714
      3          1           0       -1.526832    0.745886    0.506646
      4          6           0        0.207261    1.909169    0.913452
      5          1           0       -0.336000    2.822855    1.100882
      6          1           0        1.248006    1.894758    1.202705
      7          8           0        0.397774    2.261222   -1.203301
      8          1           0        0.784806    1.398332   -1.414604
 ---------------------------------------------------------------------
                    Distance matrix (angstroms):
                    1          2          3          4          5
     1  C    0.000000
     2  H    1.081866   0.000000
     3  H    1.080177   1.851034   0.000000
     4  C    1.359105   2.131248   2.127392   0.000000
     5  H    2.120625   3.083222   2.466779   1.079390   0.000000
     6  H    2.123186   2.473623   3.082877   1.080290   1.838697
     7  O    2.557171   3.082840   2.987351   2.154271   2.482562
     8  H    2.515109   2.689441   3.075802   2.452419   3.100507
                    6          7          8
     6  H    0.000000
     7  O    2.577995   0.000000
     8  H    2.703942   0.969032   0.000000
 Stoichiometry    C2H5O(2)
 Framework group  C1[X(C2H5O)]
 Deg. of freedom    18
 Full point group                 C1      NOp   1
 Largest Abelian subgroup         C1      NOp   1
 Largest concise Abelian subgroup C1      NOp   1
                         Standard orientation:                         
 ---------------------------------------------------------------------
 Center     Atomic      Atomic             Coordinates (Angstroms)
 Number     Number       Type             X           Y           Z
 ---------------------------------------------------------------------
      1          6           0       -1.074493   -0.508556   -0.033154
      2          1           0       -1.330297   -1.059448    0.862121
      3          1           0       -1.264637   -0.980366   -0.986057
      4          6           0       -0.515012    0.728108    0.036184
      5          1           0       -0.397757    1.325366   -0.855229
      6          1           0       -0.443147    1.246542    0.981217
      7          8           0        1.454861   -0.135743   -0.083167
      8          1           0        1.333984   -0.763466    0.645102
 ---------------------------------------------------------------------
 Rotational constants (GHZ):     25.5916610      8.3773441      7.0047408
 Standard basis: 6-31+G(d,p) (6D, 7F)
 There are    82 symmetry adapted basis functions of A   symmetry.
 Integral buffers will be    262144 words long.
 Raffenetti 2 integral format.
 Two-electron integral symmetry is turned on.
    82 basis functions,   131 primitive gaussians,    82 cartesian basis functions
    13 alpha electrons       12 beta electrons
       nuclear repulsion energy        68.6144844437 Hartrees.
 NAtoms=    8 NActive=    8 NUniq=    8 SFac= 7.50D-01 NAtFMM=   80 NAOKFM=F Big=F
 One-electron integrals computed using PRISM.
 NBasis=    82 RedAO= T  NBF=    82
 NBsUse=    82 1.00D-06 NBFU=    82
 Initial guess read from the read-write file.
 B after Tr=     0.000000    0.000000    0.000000
         Rot=    1.000000    0.000000    0.000000    0.000000 Ang=   0.00 deg.
 Initial guess orbital symmetries:
 Alpha Orbitals:
       Occupied  (A) (A) (A) (A) (A) (A) (A) (A) (A) (A) (A) (A)
                 (A)
       Virtual   (A) (A) (A) (A) (A) (A) (A) (A) (A) (A) (A) (A)
                 (A) (A) (A) (A) (A) (A) (A) (A) (A) (A) (A) (A)
                 (A) (A) (A) (A) (A) (A) (A) (A) (A) (A) (A) (A)
                 (A) (A) (A) (A) (A) (A) (A) (A) (A) (A) (A) (A)
                 (A) (A) (A) (A) (A) (A) (A) (A) (A) (A) (A) (A)
                 (A) (A) (A) (A) (A) (A) (A) (A) (A)
 Beta  Orbitals:
       Occupied  (A) (A) (A) (A) (A) (A) (A) (A) (A) (A) (A) (A)
       Virtual   (A) (A) (A) (A) (A) (A) (A) (A) (A) (A) (A) (A)
                 (A) (A) (A) (A) (A) (A) (A) (A) (A) (A) (A) (A)
                 (A) (A) (A) (A) (A) (A) (A) (A) (A) (A) (A) (A)
                 (A) (A) (A) (A) (A) (A) (A) (A) (A) (A) (A) (A)
                 (A) (A) (A) (A) (A) (A) (A) (A) (A) (A) (A) (A)
                 (A) (A) (A) (A) (A) (A) (A) (A) (A) (A)
 Initial guess <Sx>= 0.0000 <Sy>= 0.0000 <Sz>= 0.5000 <S**2>= 0.7824 S= 0.5161
 Requested convergence on RMS density matrix=1.00D-08 within 128 cycles.
 Requested convergence on MAX density matrix=1.00D-06.
 Requested convergence on             energy=1.00D-06.
 No special actions if energy rises.
 Keep R1 and R2 ints in memory in canonical form, NReq=12588294.
 SCF Done:  E(UM052X) =  -154.301943165     A.U. after   15 cycles
             Convg  =    0.6000D-08             -V/T =  2.0094
 <Sx>= 0.0000 <Sy>= 0.0000 <Sz>= 0.5000 <S**2>= 0.7821 S= 0.5159
 <L.S>= 0.000000000000E+00
 Annihilation of the first spin contaminant:
 S**2 before annihilation     0.7821,   after     0.7502
 Calling FoFJK, ICntrl=      2127 FMM=F ISym2X=0 I1Cent= 0 IOpClX= 1 NMat=1 NMatS=1 NMatT=0.
 ***** Axes restored to original set *****
 -------------------------------------------------------------------
 Center     Atomic                   Forces (Hartrees/Bohr)
 Number     Number              X              Y              Z
 -------------------------------------------------------------------
      1        6           0.002699734    0.004983925    0.003500561
      2        1           0.000320781   -0.000764457   -0.000701267
      3        1          -0.000519305    0.000012525   -0.001418685
      4        6          -0.005739646   -0.009098298    0.004306219
      5        1           0.000236116    0.002437274   -0.004941886
      6        1           0.002367800    0.001177679   -0.003936221
      7        8          -0.000009540    0.001768053    0.004930400
      8        1           0.000644059   -0.000516701   -0.001739120
 -------------------------------------------------------------------
 Cartesian Forces:  Max     0.009098298 RMS     0.003330143

 GradGradGradGradGradGradGradGradGradGradGradGradGradGradGradGradGradGrad
 Berny optimization.
 Internal  Forces:  Max     0.005786292 RMS     0.002159121
 Search for a saddle point.
 Step number   3 out of a maximum of   38
 All quantities printed in internal units (Hartrees-Bohrs-Radians)
 Swaping is turned off.
 Update second derivatives using D2CorX and points    1    2    3
     Eigenvalues ---   -0.09171   0.00538   0.00778   0.01744   0.01951
     Eigenvalues ---    0.02816   0.03413   0.06404   0.09634   0.09871
     Eigenvalues ---    0.14442   0.16350   0.30386   0.40094   0.40270
     Eigenvalues ---    0.40512   0.40590   0.523381000.000001000.00000
     Eigenvalues --- 1000.000001000.000001000.000001000.000001000.00000
     Eigenvalues --- 1000.000001000.000001000.00000
 Eigenvectors required to have negative eigenvalues:
                          R8        R9        R3        A6        A13
   1                    0.86945   0.24793  -0.21138  -0.16009   0.14140
                          A4        R5        A12       A11       A3
   1                   -0.13620  -0.11695   0.10846   0.09484  -0.08951
 RFO step:  Lambda0=2.121750422D-04 Lambda=-2.29943274D-03.
 Linear search not attempted -- option 19 set.
 Maximum step size (   0.030) exceeded in Quadratic search.
    -- Step size scaled by   0.078
 Iteration  1 RMS(Cart)=  0.00506096 RMS(Int)=  0.00003435
 Iteration  2 RMS(Cart)=  0.00002773 RMS(Int)=  0.00001136
 Iteration  3 RMS(Cart)=  0.00000000 RMS(Int)=  0.00001136
 Variable       Old X    -DE/DX   Delta X   Delta X   Delta X     New X
                                 (Linear)    (Quad)   (Total)
    R1        2.04443   0.00085   0.00000   0.00023   0.00023   2.04466
    R2        2.04124   0.00073   0.00000   0.00025   0.00025   2.04149
    R3        2.56834  -0.00579   0.00000  -0.00167  -0.00167   2.56667
    R4        4.83235   0.00083   0.00000   0.01290   0.01289   4.84524
    R5        4.75287   0.00095   0.00000   0.00893   0.00894   4.76181
    R6        2.03975   0.00108   0.00000   0.00019   0.00019   2.03994
    R7        2.04145   0.00122   0.00000   0.00021   0.00021   2.04166
    R8        4.07098  -0.00504   0.00000   0.00608   0.00609   4.07707
    R9        4.63440   0.00025   0.00000   0.01020   0.01019   4.64459
   R10        1.83120   0.00159   0.00000   0.00037   0.00038   1.83159
    A1        2.05555  -0.00012   0.00000  -0.00029  -0.00029   2.05525
    A2        2.11583   0.00013   0.00000   0.00017   0.00017   2.11600
    A3        1.90106   0.00010   0.00000   0.00260   0.00259   1.90365
    A4        1.52243   0.00036   0.00000   0.00433   0.00435   1.52678
    A5        2.11170  -0.00003   0.00000   0.00012   0.00011   2.11181
    A6        1.79317   0.00093   0.00000  -0.00138  -0.00137   1.79180
    A7        1.94142  -0.00187   0.00000  -0.00663  -0.00664   1.93477
    A8        2.10141   0.00090   0.00000   0.00132   0.00129   2.10271
    A9        2.10445   0.00096   0.00000   0.00118   0.00115   2.10560
   A10        2.03720  -0.00079   0.00000   0.00095   0.00093   2.03813
   A11        1.64767  -0.00323   0.00000  -0.00985  -0.00983   1.63783
   A12        2.04844  -0.00333   0.00000  -0.01140  -0.01141   2.03703
   A13        1.75186  -0.00417   0.00000  -0.00576  -0.00577   1.74609
   A14        1.59532  -0.00080   0.00000   0.00005   0.00005   1.59537
    D1       -2.98487  -0.00268   0.00000  -0.00674  -0.00675  -2.99161
    D2       -0.15357   0.00121   0.00000   0.00640   0.00640  -0.14717
    D3        0.17319  -0.00124   0.00000  -0.00581  -0.00582   0.16737
    D4        3.00449   0.00264   0.00000   0.00733   0.00733   3.01182
         Item               Value     Threshold  Converged?
 Maximum Force            0.005786     0.000450     NO 
 RMS     Force            0.002159     0.000300     NO 
 Maximum Displacement     0.010986     0.001800     NO 
 RMS     Displacement     0.005075     0.001200     NO 
 Predicted change in Energy=-1.575131D-04
 GradGradGradGradGradGradGradGradGradGradGradGradGradGradGradGradGradGrad

                          Input orientation:                          
 ---------------------------------------------------------------------
 Center     Atomic      Atomic             Coordinates (Angstroms)
 Number     Number       Type             X           Y           Z
 ---------------------------------------------------------------------
      1          6           0       -0.459574    0.748079    0.675243
      2          1           0        0.060916   -0.199453    0.630861
      3          1           0       -1.526458    0.744504    0.505483
      4          6           0        0.206492    1.906977    0.916237
      5          1           0       -0.335754    2.823105    1.095068
      6          1           0        1.248148    1.894090    1.202678
      7          8           0        0.403162    2.266568   -1.201970
      8          1           0        0.779884    1.400430   -1.419458
 ---------------------------------------------------------------------
                    Distance matrix (angstroms):
                    1          2          3          4          5
     1  C    0.000000
     2  H    1.081988   0.000000
     3  H    1.080311   1.851089   0.000000
     4  C    1.358221   2.130653   2.126776   0.000000
     5  H    2.120688   3.083618   2.466976   1.079492   0.000000
     6  H    2.123168   2.473746   3.083191   1.080399   1.839401
     7  O    2.563991   3.091548   2.992576   2.157495   2.476310
     8  H    2.519840   2.698213   3.074874   2.457812   3.097014
                    6          7          8
     6  H    0.000000
     7  O    2.575864   0.000000
     8  H    2.708980   0.969235   0.000000
 Stoichiometry    C2H5O(2)
 Framework group  C1[X(C2H5O)]
 Deg. of freedom    18
 Full point group                 C1      NOp   1
 Largest Abelian subgroup         C1      NOp   1
 Largest concise Abelian subgroup C1      NOp   1
                         Standard orientation:                         
 ---------------------------------------------------------------------
 Center     Atomic      Atomic             Coordinates (Angstroms)
 Number     Number       Type             X           Y           Z
 ---------------------------------------------------------------------
      1          6           0       -1.078783   -0.506222   -0.033343
      2          1           0       -1.338900   -1.055374    0.861905
      3          1           0       -1.267398   -0.978993   -0.986225
      4          6           0       -0.515549    0.727768    0.035964
      5          1           0       -0.387658    1.322112   -0.856057
      6          1           0       -0.438437    1.245579    0.981049
      7          8           0        1.457901   -0.136178   -0.081837
      8          1           0        1.335182   -0.773175    0.638296
 ---------------------------------------------------------------------
 Rotational constants (GHZ):     25.6576752      8.3400049      6.9815050
 Standard basis: 6-31+G(d,p) (6D, 7F)
 There are    82 symmetry adapted basis functions of A   symmetry.
 Integral buffers will be    262144 words long.
 Raffenetti 2 integral format.
 Two-electron integral symmetry is turned on.
    82 basis functions,   131 primitive gaussians,    82 cartesian basis functions
    13 alpha electrons       12 beta electrons
       nuclear repulsion energy        68.5713496504 Hartrees.
 NAtoms=    8 NActive=    8 NUniq=    8 SFac= 7.50D-01 NAtFMM=   80 NAOKFM=F Big=F
 One-electron integrals computed using PRISM.
 NBasis=    82 RedAO= T  NBF=    82
 NBsUse=    82 1.00D-06 NBFU=    82
 Initial guess read from the read-write file.
 B after Tr=     0.000000    0.000000    0.000000
         Rot=    1.000000    0.000000    0.000000    0.000000 Ang=   0.00 deg.
 Initial guess orbital symmetries:
 Alpha Orbitals:
       Occupied  (A) (A) (A) (A) (A) (A) (A) (A) (A) (A) (A) (A)
                 (A)
       Virtual   (A) (A) (A) (A) (A) (A) (A) (A) (A) (A) (A) (A)
                 (A) (A) (A) (A) (A) (A) (A) (A) (A) (A) (A) (A)
                 (A) (A) (A) (A) (A) (A) (A) (A) (A) (A) (A) (A)
                 (A) (A) (A) (A) (A) (A) (A) (A) (A) (A) (A) (A)
                 (A) (A) (A) (A) (A) (A) (A) (A) (A) (A) (A) (A)
                 (A) (A) (A) (A) (A) (A) (A) (A) (A)
 Beta  Orbitals:
       Occupied  (A) (A) (A) (A) (A) (A) (A) (A) (A) (A) (A) (A)
       Virtual   (A) (A) (A) (A) (A) (A) (A) (A) (A) (A) (A) (A)
                 (A) (A) (A) (A) (A) (A) (A) (A) (A) (A) (A) (A)
                 (A) (A) (A) (A) (A) (A) (A) (A) (A) (A) (A) (A)
                 (A) (A) (A) (A) (A) (A) (A) (A) (A) (A) (A) (A)
                 (A) (A) (A) (A) (A) (A) (A) (A) (A) (A) (A) (A)
                 (A) (A) (A) (A) (A) (A) (A) (A) (A) (A)
 Initial guess <Sx>= 0.0000 <Sy>= 0.0000 <Sz>= 0.5000 <S**2>= 0.7820 S= 0.5159
 Requested convergence on RMS density matrix=1.00D-08 within 128 cycles.
 Requested convergence on MAX density matrix=1.00D-06.
 Requested convergence on             energy=1.00D-06.
 No special actions if energy rises.
 Keep R1 and R2 ints in memory in canonical form, NReq=12588294.
 SCF Done:  E(UM052X) =  -154.302100856     A.U. after   15 cycles
             Convg  =    0.7405D-08             -V/T =  2.0094
 <Sx>= 0.0000 <Sy>= 0.0000 <Sz>= 0.5000 <S**2>= 0.7817 S= 0.5157
 <L.S>= 0.000000000000E+00
 Annihilation of the first spin contaminant:
 S**2 before annihilation     0.7817,   after     0.7502
 Calling FoFJK, ICntrl=      2127 FMM=F ISym2X=0 I1Cent= 0 IOpClX= 1 NMat=1 NMatS=1 NMatT=0.
 ***** Axes restored to original set *****
 -------------------------------------------------------------------
 Center     Atomic                   Forces (Hartrees/Bohr)
 Number     Number              X              Y              Z
 -------------------------------------------------------------------
      1        6           0.002492005    0.004602367    0.003265886
      2        1           0.000293980   -0.000706894   -0.000640908
      3        1          -0.000472521    0.000010153   -0.001321469
      4        6          -0.005336369   -0.008415586    0.004098594
      5        1           0.000254251    0.002229213   -0.004603292
      6        1           0.002175426    0.001108250   -0.003657307
      7        8           0.000028555    0.001636107    0.004510456
      8        1           0.000564673   -0.000463610   -0.001651960
 -------------------------------------------------------------------
 Cartesian Forces:  Max     0.008415586 RMS     0.003088739

 GradGradGradGradGradGradGradGradGradGradGradGradGradGradGradGradGradGrad
 Berny optimization.
 Internal  Forces:  Max     0.005367974 RMS     0.002001076
 Search for a saddle point.
 Step number   4 out of a maximum of   38
 All quantities printed in internal units (Hartrees-Bohrs-Radians)
 Swaping is turned off.
 Update second derivatives using D2CorX and points    1    2    3    4
     Eigenvalues ---   -0.09176   0.00522   0.00778   0.01732   0.01944
     Eigenvalues ---    0.02791   0.03453   0.06390   0.09627   0.09872
     Eigenvalues ---    0.14424   0.16344   0.30348   0.40094   0.40270
     Eigenvalues ---    0.40512   0.40590   0.523381000.000001000.00000
     Eigenvalues --- 1000.000001000.000001000.000001000.000001000.00000
     Eigenvalues --- 1000.000001000.000001000.00000
 Eigenvectors required to have negative eigenvalues:
                          R8        R9        R3        A6        A13
   1                    0.86867   0.25077  -0.21195  -0.16043   0.14147
                          A4        R5        A12       A11       A3
   1                   -0.13716  -0.11732   0.10871   0.09265  -0.08744
 RFO step:  Lambda0=1.775469211D-04 Lambda=-2.09427387D-03.
 Linear search not attempted -- option 19 set.
 Maximum step size (   0.030) exceeded in Quadratic search.
    -- Step size scaled by   0.078
 Iteration  1 RMS(Cart)=  0.00541462 RMS(Int)=  0.00004156
 Iteration  2 RMS(Cart)=  0.00003292 RMS(Int)=  0.00001274
 Iteration  3 RMS(Cart)=  0.00000000 RMS(Int)=  0.00001274
 Variable       Old X    -DE/DX   Delta X   Delta X   Delta X     New X
                                 (Linear)    (Quad)   (Total)
    R1        2.04466   0.00078   0.00000   0.00022   0.00022   2.04488
    R2        2.04149   0.00068   0.00000   0.00024   0.00024   2.04173
    R3        2.56667  -0.00537   0.00000  -0.00152  -0.00152   2.56515
    R4        4.84524   0.00080   0.00000   0.01372   0.01370   4.85895
    R5        4.76181   0.00089   0.00000   0.00865   0.00866   4.77047
    R6        2.03994   0.00100   0.00000   0.00018   0.00018   2.04013
    R7        2.04166   0.00112   0.00000   0.00019   0.00019   2.04184
    R8        4.07707  -0.00462   0.00000   0.00587   0.00588   4.08296
    R9        4.64459   0.00026   0.00000   0.01024   0.01023   4.65482
   R10        1.83159   0.00146   0.00000   0.00040   0.00041   1.83200
    A1        2.05525  -0.00011   0.00000  -0.00026  -0.00026   2.05499
    A2        2.11600   0.00012   0.00000   0.00014   0.00014   2.11614
    A3        1.90365   0.00007   0.00000   0.00274   0.00272   1.90638
    A4        1.52678   0.00036   0.00000   0.00470   0.00473   1.53151
    A5        2.11181  -0.00003   0.00000   0.00011   0.00011   2.11192
    A6        1.79180   0.00088   0.00000  -0.00105  -0.00104   1.79076
    A7        1.93477  -0.00177   0.00000  -0.00697  -0.00698   1.92780
    A8        2.10271   0.00081   0.00000   0.00122   0.00120   2.10391
    A9        2.10560   0.00087   0.00000   0.00106   0.00103   2.10664
   A10        2.03813  -0.00074   0.00000   0.00084   0.00082   2.03894
   A11        1.63783  -0.00297   0.00000  -0.00966  -0.00964   1.62819
   A12        2.03703  -0.00311   0.00000  -0.01138  -0.01140   2.02563
   A13        1.74609  -0.00389   0.00000  -0.00576  -0.00577   1.74032
   A14        1.59537  -0.00071   0.00000   0.00075   0.00075   1.59612
    D1       -2.99161  -0.00248   0.00000  -0.00628  -0.00629  -2.99790
    D2       -0.14717   0.00112   0.00000   0.00615   0.00615  -0.14101
    D3        0.16737  -0.00116   0.00000  -0.00555  -0.00556   0.16181
    D4        3.01182   0.00244   0.00000   0.00688   0.00689   3.01870
         Item               Value     Threshold  Converged?
 Maximum Force            0.005368     0.000450     NO 
 RMS     Force            0.002001     0.000300     NO 
 Maximum Displacement     0.011760     0.001800     NO 
 RMS     Displacement     0.005431     0.001200     NO 
 Predicted change in Energy=-1.451405D-04
 GradGradGradGradGradGradGradGradGradGradGradGradGradGradGradGradGradGrad

                          Input orientation:                          
 ---------------------------------------------------------------------
 Center     Atomic      Atomic             Coordinates (Angstroms)
 Number     Number       Type             X           Y           Z
 ---------------------------------------------------------------------
      1          6           0       -0.459617    0.746495    0.677814
      2          1           0        0.060616   -0.201439    0.636308
      3          1           0       -1.526026    0.742967    0.504297
      4          6           0        0.205735    1.904854    0.918849
      5          1           0       -0.335562    2.823277    1.089181
      6          1           0        1.248170    1.893449    1.202875
      7          8           0        0.409385    2.272257   -1.200531
      8          1           0        0.774115    1.402441   -1.424651
 ---------------------------------------------------------------------
                    Distance matrix (angstroms):
                    1          2          3          4          5
     1  C    0.000000
     2  H    1.082102   0.000000
     3  H    1.080439   1.851151   0.000000
     4  C    1.357418   2.130108   2.126224   0.000000
     5  H    2.120762   3.083984   2.467181   1.079590   0.000000
     6  H    2.123141   2.473832   3.083470   1.080497   1.840031
     7  O    2.571243   3.100772   2.998496   2.160609   2.470091
     8  H    2.524424   2.707224   3.073498   2.463223   3.093462
                    6          7          8
     6  H    0.000000
     7  O    2.573600   0.000000
     8  H    2.714722   0.969452   0.000000
 Stoichiometry    C2H5O(2)
 Framework group  C1[X(C2H5O)]
 Deg. of freedom    18
 Full point group                 C1      NOp   1
 Largest Abelian subgroup         C1      NOp   1
 Largest concise Abelian subgroup C1      NOp   1
                         Standard orientation:                         
 ---------------------------------------------------------------------
 Center     Atomic      Atomic             Coordinates (Angstroms)
 Number     Number       Type             X           Y           Z
 ---------------------------------------------------------------------
      1          6           0       -1.083364   -0.503729   -0.033513
      2          1           0       -1.348036   -1.050938    0.861728
      3          1           0       -1.270804   -0.977355   -0.986348
      4          6           0       -0.515816    0.727401    0.035724
      5          1           0       -0.377455    1.318758   -0.856838
      6          1           0       -0.433519    1.244561    0.980841
      7          8           0        1.461106   -0.136620   -0.080362
      8          1           0        1.336043   -0.784096    0.630251
 ---------------------------------------------------------------------
 Rotational constants (GHZ):     25.7288261      8.3012370      6.9571682
 Standard basis: 6-31+G(d,p) (6D, 7F)
 There are    82 symmetry adapted basis functions of A   symmetry.
 Integral buffers will be    262144 words long.
 Raffenetti 2 integral format.
 Two-electron integral symmetry is turned on.
    82 basis functions,   131 primitive gaussians,    82 cartesian basis functions
    13 alpha electrons       12 beta electrons
       nuclear repulsion energy        68.5261000311 Hartrees.
 NAtoms=    8 NActive=    8 NUniq=    8 SFac= 7.50D-01 NAtFMM=   80 NAOKFM=F Big=F
 One-electron integrals computed using PRISM.
 NBasis=    82 RedAO= T  NBF=    82
 NBsUse=    82 1.00D-06 NBFU=    82
 Initial guess read from the read-write file.
 B after Tr=     0.000000    0.000000    0.000000
         Rot=    1.000000    0.000000    0.000000    0.000000 Ang=   0.00 deg.
 Initial guess orbital symmetries:
 Alpha Orbitals:
       Occupied  (A) (A) (A) (A) (A) (A) (A) (A) (A) (A) (A) (A)
                 (A)
       Virtual   (A) (A) (A) (A) (A) (A) (A) (A) (A) (A) (A) (A)
                 (A) (A) (A) (A) (A) (A) (A) (A) (A) (A) (A) (A)
                 (A) (A) (A) (A) (A) (A) (A) (A) (A) (A) (A) (A)
                 (A) (A) (A) (A) (A) (A) (A) (A) (A) (A) (A) (A)
                 (A) (A) (A) (A) (A) (A) (A) (A) (A) (A) (A) (A)
                 (A) (A) (A) (A) (A) (A) (A) (A) (A)
 Beta  Orbitals:
       Occupied  (A) (A) (A) (A) (A) (A) (A) (A) (A) (A) (A) (A)
       Virtual   (A) (A) (A) (A) (A) (A) (A) (A) (A) (A) (A) (A)
                 (A) (A) (A) (A) (A) (A) (A) (A) (A) (A) (A) (A)
                 (A) (A) (A) (A) (A) (A) (A) (A) (A) (A) (A) (A)
                 (A) (A) (A) (A) (A) (A) (A) (A) (A) (A) (A) (A)
                 (A) (A) (A) (A) (A) (A) (A) (A) (A) (A) (A) (A)
                 (A) (A) (A) (A) (A) (A) (A) (A) (A) (A)
 Initial guess <Sx>= 0.0000 <Sy>= 0.0000 <Sz>= 0.5000 <S**2>= 0.7817 S= 0.5157
 Requested convergence on RMS density matrix=1.00D-08 within 128 cycles.
 Requested convergence on MAX density matrix=1.00D-06.
 Requested convergence on             energy=1.00D-06.
 No special actions if energy rises.
 Keep R1 and R2 ints in memory in canonical form, NReq=12588294.
 SCF Done:  E(UM052X) =  -154.302246186     A.U. after   16 cycles
             Convg  =    0.1371D-08             -V/T =  2.0094
 <Sx>= 0.0000 <Sy>= 0.0000 <Sz>= 0.5000 <S**2>= 0.7814 S= 0.5156
 <L.S>= 0.000000000000E+00
 Annihilation of the first spin contaminant:
 S**2 before annihilation     0.7814,   after     0.7502
 Calling FoFJK, ICntrl=      2127 FMM=F ISym2X=0 I1Cent= 0 IOpClX= 1 NMat=1 NMatS=1 NMatT=0.
 ***** Axes restored to original set *****
 -------------------------------------------------------------------
 Center     Atomic                   Forces (Hartrees/Bohr)
 Number     Number              X              Y              Z
 -------------------------------------------------------------------
      1        6           0.002305833    0.004264595    0.003045750
      2        1           0.000269169   -0.000652777   -0.000586617
      3        1          -0.000430100    0.000007245   -0.001230054
      4        6          -0.004960134   -0.007788507    0.003888882
      5        1           0.000265660    0.002034048   -0.004278718
      6        1           0.001997487    0.001041424   -0.003392396
      7        8           0.000080729    0.001494772    0.004117638
      8        1           0.000471357   -0.000400799   -0.001564485
 -------------------------------------------------------------------
 Cartesian Forces:  Max     0.007788507 RMS     0.002863802

 GradGradGradGradGradGradGradGradGradGradGradGradGradGradGradGradGradGrad
 Berny optimization.
 Internal  Forces:  Max     0.004993548 RMS     0.001855645
 Search for a saddle point.
 Step number   5 out of a maximum of   38
 All quantities printed in internal units (Hartrees-Bohrs-Radians)
 Swaping is turned off.
 Update second derivatives using D2CorX and points    1    2    3    4    5
     Eigenvalues ---   -0.09177   0.00489   0.00778   0.01712   0.01935
     Eigenvalues ---    0.02756   0.03508   0.06369   0.09617   0.09872
     Eigenvalues ---    0.14407   0.16337   0.30295   0.40094   0.40270
     Eigenvalues ---    0.40513   0.40590   0.523321000.000001000.00000
     Eigenvalues --- 1000.000001000.000001000.000001000.000001000.00000
     Eigenvalues --- 1000.000001000.000001000.00000
 Eigenvectors required to have negative eigenvalues:
                          R8        R9        R3        A6        A13
   1                    0.86769   0.25405  -0.21260  -0.16052   0.14141
                          A4        R5        A12       A11       A3
   1                   -0.13830  -0.11833   0.10918   0.09042  -0.08525
 RFO step:  Lambda0=1.483986599D-04 Lambda=-1.94783685D-03.
 Linear search not attempted -- option 19 set.
 Maximum step size (   0.030) exceeded in Quadratic search.
    -- Step size scaled by   0.076
 Iteration  1 RMS(Cart)=  0.00593710 RMS(Int)=  0.00005528
 Iteration  2 RMS(Cart)=  0.00004271 RMS(Int)=  0.00001625
 Iteration  3 RMS(Cart)=  0.00000000 RMS(Int)=  0.00001625
 Variable       Old X    -DE/DX   Delta X   Delta X   Delta X     New X
                                 (Linear)    (Quad)   (Total)
    R1        2.04488   0.00072   0.00000   0.00020   0.00020   2.04507
    R2        2.04173   0.00062   0.00000   0.00023   0.00023   2.04196
    R3        2.56515  -0.00499   0.00000  -0.00134  -0.00134   2.56381
    R4        4.85895   0.00077   0.00000   0.01473   0.01471   4.87366
    R5        4.77047   0.00082   0.00000   0.00795   0.00796   4.77843
    R6        2.04013   0.00092   0.00000   0.00017   0.00017   2.04030
    R7        2.04184   0.00103   0.00000   0.00016   0.00016   2.04200
    R8        4.08296  -0.00424   0.00000   0.00561   0.00563   4.08859
    R9        4.65482   0.00027   0.00000   0.01030   0.01028   4.66510
   R10        1.83200   0.00132   0.00000   0.00041   0.00044   1.83243
    A1        2.05499  -0.00010   0.00000  -0.00022  -0.00022   2.05478
    A2        2.11614   0.00011   0.00000   0.00010   0.00011   2.11624
    A3        1.90638   0.00003   0.00000   0.00286   0.00283   1.90921
    A4        1.53151   0.00037   0.00000   0.00515   0.00519   1.53669
    A5        2.11192  -0.00003   0.00000   0.00011   0.00010   2.11202
    A6        1.79076   0.00085   0.00000  -0.00059  -0.00057   1.79019
    A7        1.92780  -0.00169   0.00000  -0.00749  -0.00751   1.92029
    A8        2.10391   0.00073   0.00000   0.00111   0.00109   2.10500
    A9        2.10664   0.00079   0.00000   0.00091   0.00089   2.10752
   A10        2.03894  -0.00069   0.00000   0.00074   0.00072   2.03966
   A11        1.62819  -0.00273   0.00000  -0.00935  -0.00933   1.61886
   A12        2.02563  -0.00292   0.00000  -0.01134  -0.01136   2.01427
   A13        1.74032  -0.00365   0.00000  -0.00581  -0.00582   1.73449
   A14        1.59612  -0.00061   0.00000   0.00178   0.00179   1.59791
    D1       -2.99790  -0.00230   0.00000  -0.00569  -0.00569  -3.00359
    D2       -0.14101   0.00104   0.00000   0.00583   0.00583  -0.13519
    D3        0.16181  -0.00108   0.00000  -0.00522  -0.00522   0.15659
    D4        3.01870   0.00226   0.00000   0.00629   0.00630   3.02500
         Item               Value     Threshold  Converged?
 Maximum Force            0.004994     0.000450     NO 
 RMS     Force            0.001856     0.000300     NO 
 Maximum Displacement     0.014079     0.001800     NO 
 RMS     Displacement     0.005958     0.001200     NO 
 Predicted change in Energy=-1.331412D-04
 GradGradGradGradGradGradGradGradGradGradGradGradGradGradGradGradGradGrad

                          Input orientation:                          
 ---------------------------------------------------------------------
 Center     Atomic      Atomic             Coordinates (Angstroms)
 Number     Number       Type             X           Y           Z
 ---------------------------------------------------------------------
      1          6           0       -0.459578    0.744840    0.680319
      2          1           0        0.060471   -0.203451    0.642081
      3          1           0       -1.525487    0.741232    0.503020
      4          6           0        0.204990    1.902838    0.921266
      5          1           0       -0.335475    2.823366    1.083249
      6          1           0        1.248035    1.892875    1.203422
      7          8           0        0.416835    2.278371   -1.198927
      8          1           0        0.767025    1.404230   -1.430288
 ---------------------------------------------------------------------
                    Distance matrix (angstroms):
                    1          2          3          4          5
     1  C    0.000000
     2  H    1.082206   0.000000
     3  H    1.080560   1.851223   0.000000
     4  C    1.356711   2.129620   2.125749   0.000000
     5  H    2.120854   3.084319   2.467402   1.079682   0.000000
     6  H    2.123102   2.473862   3.083710   1.080580   1.840587
     7  O    2.579027   3.110586   3.005334   2.163590   2.464004
     8  H    2.528638   2.716353   3.071296   2.468663   3.089874
                    6          7          8
     6  H    0.000000
     7  O    2.571144   0.000000
     8  H    2.721503   0.969683   0.000000
 Stoichiometry    C2H5O(2)
 Framework group  C1[X(C2H5O)]
 Deg. of freedom    18
 Full point group                 C1      NOp   1
 Largest Abelian subgroup         C1      NOp   1
 Largest concise Abelian subgroup C1      NOp   1
                         Standard orientation:                         
 ---------------------------------------------------------------------
 Center     Atomic      Atomic             Coordinates (Angstroms)
 Number     Number       Type             X           Y           Z
 ---------------------------------------------------------------------
      1          6           0       -1.088282   -0.501050   -0.033655
      2          1           0       -1.357748   -1.046083    0.861609
      3          1           0       -1.275037   -0.975375   -0.986414
      4          6           0       -0.515760    0.726999    0.035462
      5          1           0       -0.367211    1.315330   -0.857574
      6          1           0       -0.428342    1.243468    0.980593
      7          8           0        1.464529   -0.137032   -0.078671
      8          1           0        1.336357   -0.796782    0.620318
 ---------------------------------------------------------------------
 Rotational constants (GHZ):     25.8061987      8.2607689      6.9314413
 Standard basis: 6-31+G(d,p) (6D, 7F)
 There are    82 symmetry adapted basis functions of A   symmetry.
 Integral buffers will be    262144 words long.
 Raffenetti 2 integral format.
 Two-electron integral symmetry is turned on.
    82 basis functions,   131 primitive gaussians,    82 cartesian basis functions
    13 alpha electrons       12 beta electrons
       nuclear repulsion energy        68.4782972322 Hartrees.
 NAtoms=    8 NActive=    8 NUniq=    8 SFac= 7.50D-01 NAtFMM=   80 NAOKFM=F Big=F
 One-electron integrals computed using PRISM.
 NBasis=    82 RedAO= T  NBF=    82
 NBsUse=    82 1.00D-06 NBFU=    82
 Initial guess read from the read-write file.
 B after Tr=     0.000000    0.000000    0.000000
         Rot=    1.000000    0.000000    0.000000    0.000000 Ang=   0.00 deg.
 Initial guess orbital symmetries:
 Alpha Orbitals:
       Occupied  (A) (A) (A) (A) (A) (A) (A) (A) (A) (A) (A) (A)
                 (A)
       Virtual   (A) (A) (A) (A) (A) (A) (A) (A) (A) (A) (A) (A)
                 (A) (A) (A) (A) (A) (A) (A) (A) (A) (A) (A) (A)
                 (A) (A) (A) (A) (A) (A) (A) (A) (A) (A) (A) (A)
                 (A) (A) (A) (A) (A) (A) (A) (A) (A) (A) (A) (A)
                 (A) (A) (A) (A) (A) (A) (A) (A) (A) (A) (A) (A)
                 (A) (A) (A) (A) (A) (A) (A) (A) (A)
 Beta  Orbitals:
       Occupied  (A) (A) (A) (A) (A) (A) (A) (A) (A) (A) (A) (A)
       Virtual   (A) (A) (A) (A) (A) (A) (A) (A) (A) (A) (A) (A)
                 (A) (A) (A) (A) (A) (A) (A) (A) (A) (A) (A) (A)
                 (A) (A) (A) (A) (A) (A) (A) (A) (A) (A) (A) (A)
                 (A) (A) (A) (A) (A) (A) (A) (A) (A) (A) (A) (A)
                 (A) (A) (A) (A) (A) (A) (A) (A) (A) (A) (A) (A)
                 (A) (A) (A) (A) (A) (A) (A) (A) (A) (A)
 Initial guess <Sx>= 0.0000 <Sy>= 0.0000 <Sz>= 0.5000 <S**2>= 0.7814 S= 0.5156
 Requested convergence on RMS density matrix=1.00D-08 within 128 cycles.
 Requested convergence on MAX density matrix=1.00D-06.
 Requested convergence on             energy=1.00D-06.
 No special actions if energy rises.
 Keep R1 and R2 ints in memory in canonical form, NReq=12588294.
 SCF Done:  E(UM052X) =  -154.302379493     A.U. after   16 cycles
             Convg  =    0.1824D-08             -V/T =  2.0094
 <Sx>= 0.0000 <Sy>= 0.0000 <Sz>= 0.5000 <S**2>= 0.7812 S= 0.5155
 <L.S>= 0.000000000000E+00
 Annihilation of the first spin contaminant:
 S**2 before annihilation     0.7812,   after     0.7502
 Calling FoFJK, ICntrl=      2127 FMM=F ISym2X=0 I1Cent= 0 IOpClX= 1 NMat=1 NMatS=1 NMatT=0.
 ***** Axes restored to original set *****
 -------------------------------------------------------------------
 Center     Atomic                   Forces (Hartrees/Bohr)
 Number     Number              X              Y              Z
 -------------------------------------------------------------------
      1        6           0.002146714    0.003982232    0.002844872
[...]
     4   6     0.00   0.00  -0.15     0.06  -0.14   0.00    -0.03   0.06   0.00
     5   1     0.26  -0.39   0.14     0.25  -0.38   0.17     0.18  -0.36   0.28
     6   1    -0.26   0.39   0.13     0.25  -0.39  -0.16     0.18  -0.37  -0.27
     7   8     0.00   0.00   0.00     0.01   0.00   0.00     0.00   0.00   0.00
     8   1     0.00   0.00   0.01     0.02   0.01   0.00     0.00   0.00   0.00
                    13                     14                     15
                     A                      A                      A
 Frequencies --  1650.2234              3190.2845              3221.5521
 Red. masses --     2.1360                 1.0541                 1.0592
 Frc consts  --     3.4272                 6.3208                 6.4765
 IR Inten    --    47.9287                11.5582                10.8675
  Atom  AN      X      Y      Z        X      Y      Z        X      Y      Z
     1   6    -0.11   0.19   0.00     0.03  -0.06   0.00    -0.01   0.01   0.00
     2   1     0.14  -0.26   0.34    -0.19   0.31   0.61     0.02  -0.03  -0.05
     3   1     0.15  -0.26  -0.33    -0.17   0.30  -0.60     0.02  -0.03   0.05
     4   6     0.09  -0.21   0.00     0.00   0.00   0.00     0.03  -0.06   0.00
     5   1    -0.11   0.31  -0.37    -0.02   0.03   0.06    -0.15   0.33   0.59
     6   1    -0.12   0.32   0.36    -0.01   0.03  -0.06    -0.14   0.33  -0.61
     7   8     0.01   0.00   0.00     0.00   0.00   0.00     0.00   0.00   0.00
     8   1     0.02   0.01   0.00     0.00   0.00   0.00     0.00   0.00   0.00
                    16                     17                     18
                     A                      A                      A
 Frequencies --  3281.7399              3319.5186              3808.8833
 Red. masses --     1.1187                 1.1197                 1.0675
 Frc consts  --     7.0987                 7.2693                 9.1248
 IR Inten    --     2.6037                 2.9700                29.3450
  Atom  AN      X      Y      Z        X      Y      Z        X      Y      Z
     1   6     0.00   0.00   0.10     0.00   0.00   0.03     0.00   0.00   0.00
     2   1     0.18  -0.30  -0.56     0.06  -0.10  -0.19     0.00   0.00   0.00
     3   1    -0.17   0.30  -0.58    -0.06   0.10  -0.20     0.00   0.00   0.00
     4   6     0.00   0.00  -0.03     0.00   0.00   0.10     0.00   0.00   0.00
     5   1    -0.05   0.11   0.20     0.16  -0.32  -0.57     0.00   0.00   0.00
     6   1     0.05  -0.10   0.19    -0.14   0.31  -0.56     0.00   0.00   0.00
     7   8     0.00   0.00   0.00     0.00   0.00   0.00    -0.01   0.06   0.01
     8   1     0.00   0.00   0.00     0.00   0.00   0.00     0.21  -0.97  -0.11

 -------------------
 - Thermochemistry -
 -------------------
 Temperature   298.150 Kelvin.  Pressure   1.00000 Atm.
 Atom     1 has atomic number  6 and mass  12.00000
 Atom     2 has atomic number  1 and mass   1.00783
 Atom     3 has atomic number  1 and mass   1.00783
 Atom     4 has atomic number  6 and mass  12.00000
 Atom     5 has atomic number  1 and mass   1.00783
 Atom     6 has atomic number  1 and mass   1.00783
 Atom     7 has atomic number  8 and mass  15.99491
 Atom     8 has atomic number  1 and mass   1.00783
 Molecular mass:    45.03404 amu.
 Principal axes and moments of inertia in atomic units:
                           1         2         3
     Eigenvalues --    64.83395 234.75515 274.91353
           X            0.99989  -0.01454   0.00170
           Y            0.01453   0.99988   0.00555
           Z           -0.00178  -0.00552   0.99998
 This molecule is an asymmetric top.
 Rotational symmetry number  1.
 Rotational temperatures (Kelvin)      1.33593     0.36895     0.31506
 Rotational constants (GHZ):          27.83636     7.68776     6.56476
    1 imaginary frequencies ignored.
 Zero-point vibrational energy     166477.9 (Joules/Mol)
                                   39.78917 (Kcal/Mol)
 Warning -- explicit consideration of   3 degrees of freedom as
           vibrations may cause significant error
 Vibrational temperatures:    237.70   281.33   518.38   984.52  1209.79
          (Kelvin)           1385.31  1460.92  1482.75  1805.59  1949.41
                             2152.28  2374.30  4590.10  4635.09  4721.69
                             4776.04  5480.13
 
 Zero-point correction=                           0.063408 (Hartree/Particle)
 Thermal correction to Energy=                    0.068102
 Thermal correction to Enthalpy=                  0.069046
 Thermal correction to Gibbs Free Energy=         0.036591
 Sum of electronic and zero-point Energies=           -154.240022
 Sum of electronic and thermal Energies=              -154.235327
 Sum of electronic and thermal Enthalpies=            -154.234383
 Sum of electronic and thermal Free Energies=         -154.266839
 
                     E (Thermal)             CV                S
                      KCal/Mol        Cal/Mol-Kelvin    Cal/Mol-Kelvin
 Total                   42.735             14.233             68.308
 Electronic               0.000              0.000              1.377
 Translational            0.889              2.981             37.340
 Rotational               0.889              2.981             22.952
 Vibrational             40.957              8.271              6.639
 Vibration     1          0.624              1.885              2.489
 Vibration     2          0.636              1.846              2.175
 Vibration     3          0.735              1.554              1.121
                       Q            Log10(Q)             Ln(Q)
 Total Bot       0.147709D-16        -16.830594        -38.753874
 Total V=0       0.216289D+13         12.335035         28.402467
 Vib (Bot)       0.268508D-28        -28.571043        -65.787259
 Vib (Bot)    1  0.122172D+01          0.086972          0.200259
 Vib (Bot)    2  0.102147D+01          0.009224          0.021238
 Vib (Bot)    3  0.508632D+00         -0.293596         -0.676030
 Vib (V=0)       0.393174D+01          0.594585          1.369082
 Vib (V=0)    1  0.182008D+01          0.260089          0.598878
 Vib (V=0)    2  0.163727D+01          0.214121          0.493033
 Vib (V=0)    3  0.121324D+01          0.083946          0.193292
 Electronic      0.200000D+01          0.301030          0.693147
 Translational   0.118786D+08          7.074767         16.290252
 Rotational      0.231555D+05          4.364653         10.049986
 ***** Axes restored to original set *****
 -------------------------------------------------------------------
 Center     Atomic                   Forces (Hartrees/Bohr)
 Number     Number              X              Y              Z
 -------------------------------------------------------------------
      1        6           0.000011409    0.000009294    0.000007447
      2        1           0.000000932    0.000002800    0.000011366
      3        1           0.000001580    0.000000472    0.000002174
      4        6          -0.000009985   -0.000000703    0.000005934
      5        1          -0.000001213    0.000004604   -0.000011637
      6        1           0.000003593    0.000006276   -0.000009476
      7        8          -0.000019429   -0.000054087   -0.000015419
      8        1           0.000013114    0.000031344    0.000009611
 -------------------------------------------------------------------
 Cartesian Forces:  Max     0.000054087 RMS     0.000015330

 GradGradGradGradGradGradGradGradGradGradGradGradGradGradGradGradGradGrad
 Berny optimization.
 Internal  Forces:  Max     0.000043395 RMS     0.000009244
 Search for a saddle point.
 Step number   1 out of a maximum of    2
 All quantities printed in internal units (Hartrees-Bohrs-Radians)
 Swaping is turned off.
 Second derivative matrix not updated -- analytic derivatives used.
     Eigenvalues ---   -0.01336   0.00619   0.00930   0.01555   0.01646
     Eigenvalues ---    0.02512   0.02575   0.03454   0.09697   0.10027
     Eigenvalues ---    0.10971   0.14120   0.36953   0.37131   0.37588
     Eigenvalues ---    0.37839   0.46899   0.541531000.000001000.00000
     Eigenvalues --- 1000.000001000.000001000.000001000.000001000.00000
     Eigenvalues --- 1000.000001000.000001000.00000
 Eigenvectors required to have negative eigenvalues:
                          R8        R9        R4        D3        D2
   1                    0.79680   0.39467   0.32042  -0.17655   0.17394
                          D1        D4        R3        A6        A4
   1                   -0.09833   0.09572  -0.07484  -0.06907  -0.05775
 Angle between quadratic step and forces=  69.87 degrees.
 Linear search not attempted -- option 19 set.
 Iteration  1 RMS(Cart)=  0.00016791 RMS(Int)=  0.00000006
 Iteration  2 RMS(Cart)=  0.00000004 RMS(Int)=  0.00000002
 Variable       Old X    -DE/DX   Delta X   Delta X   Delta X     New X
                                 (Linear)    (Quad)   (Total)
    R1        2.04619   0.00000   0.00000   0.00000   0.00000   2.04619
    R2        2.04565   0.00000   0.00000   0.00000   0.00000   2.04566
    R3        2.55265  -0.00001   0.00000  -0.00003  -0.00003   2.55263
    R4        5.12589  -0.00001   0.00000  -0.00013  -0.00013   5.12576
    R5        4.86790   0.00001   0.00000   0.00050   0.00050   4.86840
    R6        2.04226   0.00000   0.00000   0.00000   0.00000   2.04226
    R7        2.04249   0.00000   0.00000   0.00001   0.00001   2.04249
    R8        4.10093   0.00000   0.00000   0.00001   0.00001   4.10094
    R9        4.79841   0.00000   0.00000   0.00056   0.00056   4.79896
   R10        1.83512  -0.00004   0.00000  -0.00008  -0.00008   1.83504
    A1        2.05193   0.00000   0.00000   0.00000   0.00000   2.05193
    A2        2.11601   0.00000   0.00000   0.00002   0.00002   2.11603
    A3        1.90123   0.00000   0.00000   0.00002   0.00002   1.90125
    A4        1.68988   0.00000   0.00000   0.00018   0.00018   1.69006
    A5        2.11502   0.00000   0.00000  -0.00002  -0.00002   2.11500
    A6        1.86729   0.00000   0.00000  -0.00007  -0.00007   1.86722
    A7        1.73319   0.00000   0.00000  -0.00025  -0.00025   1.73294
    A8        2.11369   0.00000   0.00000   0.00002   0.00002   2.11371
    A9        2.11473   0.00000   0.00000  -0.00001  -0.00001   2.11472
   A10        2.04495   0.00000   0.00000   0.00002   0.00002   2.04497
   A11        1.54687   0.00000   0.00000  -0.00006  -0.00006   1.54681
   A12        1.78464  -0.00001   0.00000  -0.00026  -0.00026   1.78439
   A13        1.58011   0.00000   0.00000  -0.00007  -0.00007   1.58004
   A14        1.73416   0.00000   0.00000   0.00006   0.00006   1.73422
    D1       -3.07249   0.00000   0.00000  -0.00006  -0.00006  -3.07255
    D2       -0.08528   0.00000   0.00000   0.00016   0.00016  -0.08512
    D3        0.09263   0.00000   0.00000  -0.00004  -0.00004   0.09260
    D4        3.07985   0.00000   0.00000   0.00019   0.00019   3.08004
         Item               Value     Threshold  Converged?
 Maximum Force            0.000043     0.000450     YES
 RMS     Force            0.000009     0.000300     YES
 Maximum Displacement     0.000498     0.001800     YES
 RMS     Displacement     0.000168     0.001200     YES
 Predicted change in Energy=-7.671556D-09
 Optimization completed.
    -- Stationary point found.
                           ----------------------------
                           !   Optimized Parameters   !
                           ! (Angstroms and Degrees)  !
 --------------------------                            --------------------------
 ! Name  Definition              Value          Derivative Info.                !
 --------------------------------------------------------------------------------
 ! R1    R(1,2)                  1.0828         -DE/DX =    0.0                 !
 ! R2    R(1,3)                  1.0825         -DE/DX =    0.0                 !
 ! R3    R(1,4)                  1.3508         -DE/DX =    0.0                 !
 ! R4    R(1,7)                  2.7125         -DE/DX =    0.0                 !
 ! R5    R(1,8)                  2.576          -DE/DX =    0.0                 !
 ! R6    R(4,5)                  1.0807         -DE/DX =    0.0                 !
 ! R7    R(4,6)                  1.0808         -DE/DX =    0.0                 !
 ! R8    R(4,7)                  2.1701         -DE/DX =    0.0                 !
 ! R9    R(4,8)                  2.5392         -DE/DX =    0.0                 !
 ! R10   R(7,8)                  0.9711         -DE/DX =    0.0                 !
 ! A1    A(2,1,3)              117.5668         -DE/DX =    0.0                 !
 ! A2    A(2,1,4)              121.2383         -DE/DX =    0.0                 !
 ! A3    A(2,1,7)              108.9325         -DE/DX =    0.0                 !
 ! A4    A(2,1,8)               96.8232         -DE/DX =    0.0                 !
 ! A5    A(3,1,4)              121.1818         -DE/DX =    0.0                 !
 ! A6    A(3,1,7)              106.9878         -DE/DX =    0.0                 !
 ! A7    A(3,1,8)               99.3046         -DE/DX =    0.0                 !
 ! A8    A(1,4,5)              121.1054         -DE/DX =    0.0                 !
 ! A9    A(1,4,6)              121.1651         -DE/DX =    0.0                 !
 ! A10   A(5,4,6)              117.167          -DE/DX =    0.0                 !
 ! A11   A(5,4,7)               88.6291         -DE/DX =    0.0                 !
 ! A12   A(5,4,8)              102.2525         -DE/DX =    0.0                 !
 ! A13   A(6,4,7)               90.5338         -DE/DX =    0.0                 !
 ! A14   A(6,4,8)               99.3602         -DE/DX =    0.0                 !
 ! D1    D(2,1,4,5)           -176.0409         -DE/DX =    0.0                 !
 ! D2    D(2,1,4,6)             -4.886          -DE/DX =    0.0                 !
 ! D3    D(3,1,4,5)              5.3075         -DE/DX =    0.0                 !
 ! D4    D(3,1,4,6)            176.4624         -DE/DX =    0.0                 !
 --------------------------------------------------------------------------------
 GradGradGradGradGradGradGradGradGradGradGradGradGradGradGradGradGradGrad


 Test job not archived.
 1|1|UNPC-DESKTOP-319GPER|Freq|UM052X|6-31+G(d,p)|C2H5O1(2)|SAGAD|17-Ja
 n-2021|0||#N Geom=AllCheck Guess=TCheck SCRF=Check Test GenChk UM052X/
 6-31+G(d,p) Freq||Transition state Ethene OH radical with M052X TWO||0
 ,2|C,-0.4511839558,0.711639357,0.7182782324|H,0.079063489,-0.231816391
 2,0.7525896368|H,-1.5071767715,0.6844959838,0.4816829121|C,0.186866315
 8,1.8821529303,0.9361515734|H,-0.3551461275,2.816704875,0.9641436778|H
 ,1.227368413,1.9062033325,1.2276798129|O,0.7314236685,2.3195598531,-1.
 118488463|H,0.4656013584,1.4953605495,-1.5578953024||Version=IA32W-G09
 RevA.02|State=2-A|HF=-154.3034296|S2=0.784418|S2-1=0.|S2A=0.75017|RMSD
 =5.361e-010|RMSF=1.533e-005|ZeroPoint=0.0634081|Thermal=0.0681022|Dipo
 le=-0.3431125,-0.6991486,0.2536594|DipoleDeriv=0.1625016,0.0683971,-0.
 2396722,0.1518832,0.2088219,-0.571884,0.0893696,-0.0028451,-0.4537079,
 0.0345704,0.0669796,-0.027147,0.0308201,-0.0393626,0.0145617,-0.018512
 2,0.0031337,0.1509227,-0.054738,-0.0232716,-0.0230217,0.0098534,0.0549
 238,0.001384,-0.0433842,-0.007003,0.1471683,-0.1113286,-0.2235005,0.60
 30674,-0.3139996,-0.2173878,0.8373594,0.288633,0.2685898,-0.7391554,0.
 0492923,0.056468,-0.0176686,0.0472213,0.0160049,-0.0486468,-0.0397805,
 -0.0396616,0.2046953,-0.0011322,0.007681,-0.0856572,0.0171867,0.075799
 7,-0.0160467,-0.0667003,-0.0336532,0.1770558,-0.3884587,0.1303777,-0.2
 198519,0.1647576,-0.2088609,-0.2354799,-0.1636481,-0.0757724,0.1874519
 ,0.3092931,-0.0831314,0.0099512,-0.1077227,0.110061,0.0187523,-0.04597
 72,-0.1127882,0.3255693|Polar=32.3105696,9.3035485,39.6548663,-8.17387
 01,-9.0479123,45.3878787|PG=C01 [X(C2H5O1)]|NImag=1||0.66705204,0.0417
 2749,0.75383084,0.12407086,0.06253078,0.14653362,-0.13509148,0.1287946
 3,-0.00973998,0.12989757,0.12587597,-0.27490679,0.00743382,-0.13535933
 ,0.29302099,-0.01140526,0.00665668,-0.03769000,0.01183710,-0.00646250,
 0.02445533,-0.33636478,-0.00148577,-0.06652240,-0.00817631,-0.00254719
 ,-0.00292367,0.35368232,0.00093336,-0.06073043,-0.00113024,0.02427421,
 0.00459385,0.00511379,0.00641898,0.05509981,-0.06701515,-0.00372177,-0
 .05103573,-0.00080726,-0.00064413,0.00390592,0.07371836,0.00431462,0.0
 3907672,-0.19130772,-0.14123062,-0.04626411,0.01330672,0.01497386,0.00
 349797,-0.01168060,-0.03034818,-0.00514493,0.66178841,-0.14739916,-0.3
 9224329,-0.06515905,-0.01518008,-0.02207635,-0.00402662,-0.00074722,0.
 00389701,0.00104725,0.01588609,0.74626679,-0.07209687,-0.10971754,-0.0
 6505915,-0.00096327,0.00194460,0.00529106,-0.00213561,-0.00745968,0.00
 416917,0.17250288,0.13868969,0.11610361,0.01290507,-0.01622156,-0.0010
 4390,-0.00041351,-0.00316105,-0.00259630,0.00070158,0.00014009,0.00170
 112,-0.13995303,0.13548802,-0.00214837,0.13573714,0.01502816,-0.020654
 23,0.00013924,-0.00281613,-0.00222044,-0.00229077,-0.00020878,0.001102
 93,0.00112153,0.13232450,-0.27809040,-0.01153360,-0.14049379,0.2948170
 2,0.00493855,0.00008501,0.00547665,-0.00256152,-0.00166074,0.00995634,
 0.00141866,0.00061799,-0.00660089,-0.00707138,-0.01324868,-0.03399268,
 0.00175793,0.00914198,0.03194376,-0.01066950,-0.00033680,-0.00351412,0
 .00057611,-0.00013362,0.00198372,0.00152951,-0.00180282,-0.00259161,-0
 .33540589,0.00015408,-0.08579456,-0.00853563,-0.00263302,-0.00313634,0
 .35205740,-0.02969511,0.00396140,-0.00824196,0.00008191,0.00114338,0.0
 0097605,-0.00190367,-0.00417401,-0.00188533,0.00210432,-0.06099874,-0.
 00366665,0.02384729,0.00480947,0.00709919,0.00555307,0.05531265,-0.002
 38559,0.00411291,0.00463771,0.00171991,0.00039306,-0.00651910,-0.00214
 030,-0.00147332,0.00994377,-0.08491303,-0.00933301,-0.05650092,0.00109
 716,0.00034116,0.00419419,0.08818089,0.00465467,0.05457920,-0.00720601
 ,-0.01130365,0.00260988,-0.00013773,0.00012404,-0.00015429,0.00102936,
 0.00047543,-0.00052020,0.00416809,0.00980386,-0.01096763,-0.00020647,-
 0.00119827,0.00365531,0.00026709,0.00024742,-0.00105808,0.04371342,-0.
 00710981,-0.01132142,0.00447286,0.00004372,0.00091301,-0.00065596,0.00
 052835,0.00015935,-0.00021854,0.00630312,0.00317216,-0.01148606,0.0007
 4928,0.00012039,-0.00221773,-0.00083123,0.00003111,0.00065651,0.125269
 00,0.38698076,0.02228992,0.03843032,-0.00122716,0.00041873,-0.00132060
 ,0.00087052,-0.00141668,-0.00009953,0.00053854,-0.02958167,-0.04209330
 ,0.03068600,0.00110776,0.00310768,-0.01004720,0.00465612,0.00117207,-0
 .00927021,0.06507197,0.19887106,0.10194053,0.00068239,0.00005629,0.000
 40377,0.00003863,0.00022732,-0.00023928,-0.00072107,-0.00009106,0.0006
 5966,-0.00091598,0.00199441,0.00160343,-0.00023515,-0.00000266,0.00099
 879,0.00018090,-0.00023522,-0.00050095,-0.04162774,-0.12495242,-0.0625
 4614,0.04259803,0.00063911,0.00206392,-0.00004546,0.00016107,-0.000467
 65,0.00068932,-0.00005469,0.00005148,-0.00001363,-0.00001308,0.0000728
 2,0.00322924,-0.00034827,0.00011526,0.00018298,0.00003033,-0.00008527,
 0.00064803,-0.12341782,-0.38005535,-0.19806770,0.12300335,0.37830479,0
 .00160354,0.00162361,-0.00163595,0.00009630,0.00031649,-0.00027006,0.0
 0000165,0.00011637,0.00000250,-0.00302574,-0.00587629,-0.00069708,0.00
 012459,-0.00002722,-0.00093017,0.00021591,-0.00010804,-0.00106464,-0.0
 5863696,-0.18942214,-0.11349102,0.05962072,0.19337722,0.11808642||-0.0
 0001141,-0.00000929,-0.00000745,-0.00000093,-0.00000280,-0.00001137,-0
 .00000158,-0.00000047,-0.00000217,0.00000999,0.00000070,-0.00000593,0.
 00000121,-0.00000460,0.00001164,-0.00000359,-0.00000628,0.00000948,0.0
 0001943,0.00005409,0.00001542,-0.00001311,-0.00003134,-0.00000961|||@


 THE ATTENTION SPAN OF A COMPUTER IS AS LONG
 AS ITS EXTENSION CORD.
 Job cpu time:  0 days  0 hours  0 minutes 54.0 seconds.
 File lengths (MBytes):  RWF=     15 Int=      0 D2E=      0 Chk=      2 Scr=      1
 Normal termination of Gaussian 09 at Sun Jan 17 12:25:35 2021.
