 Entering Link 1 = C:\G09W\l1.exe PID=      1452.
  
 Copyright (c) 1988,1990,1992,1993,1995,1998,2003,2009, Gaussian, Inc.
                  All Rights Reserved.
  
 This is part of the Gaussian(R) 09 program.  It is based on
 the Gaussian(R) 03 system (copyright 2003, Gaussian, Inc.),
 the Gaussian(R) 98 system (copyright 1998, Gaussian, Inc.),
 the Gaussian(R) 94 system (copyright 1995, Gaussian, Inc.),
 the Gaussian 92(TM) system (copyright 1992, Gaussian, Inc.),
 the Gaussian 90(TM) system (copyright 1990, Gaussian, Inc.),
 the Gaussian 88(TM) system (copyright 1988, Gaussian, Inc.),
 the Gaussian 86(TM) system (copyright 1986, Carnegie Mellon
 University), and the Gaussian 82(TM) system (copyright 1983,
 Carnegie Mellon University). Gaussian is a federally registered
 trademark of Gaussian, Inc.
  
 This software contains proprietary and confidential information,
 including trade secrets, belonging to Gaussian, Inc.
  
 This software is provided under written license and may be
 used, copied, transmitted, or stored only in accord with that
 written license.
  
 The following legend is applicable only to US Government
 contracts under FAR:
  
                    RESTRICTED RIGHTS LEGEND
  
 Use, reproduction and disclosure by the US Government is
 subject to restrictions as set forth in subparagraphs (a)
 and (c) of the Commercial Computer Software - Restricted
 Rights clause in FAR 52.227-19.
  
 Gaussian, Inc.
 340 Quinnipiac St., Bldg. 40, Wallingford CT 06492
  
  
 ---------------------------------------------------------------
 Warning -- This program may not be used in any manner that
 competes with the business of Gaussian, Inc. or will provide
 assistance to any competitor of Gaussian, Inc.  The licensee
 of this program is prohibited from giving any competitor of
 Gaussian, Inc. access to this program.  By using this program,
 the user acknowledges that Gaussian, Inc. is engaged in the
 business of creating and licensing software in the field of
 computational chemistry and represents and warrants to the
 licensee that it is not a competitor of Gaussian, Inc. and that
 it will not use this program in any manner prohibited above.
 ---------------------------------------------------------------
  

 Cite this work as:
 Gaussian 09, Revision A.02,
 M. J. Frisch, G. W. Trucks, H. B. Schlegel, G. E. Scuseria, 
 M. A. Robb, J. R. Cheeseman, G. Scalmani, V. Barone, B. Mennucci, 
 G. A. Petersson, H. Nakatsuji, M. Caricato, X. Li, H. P. Hratchian, 
 A. F. Izmaylov, J. Bloino, G. Zheng, J. L. Sonnenberg, M. Hada, 
 M. Ehara, K. Toyota, R. Fukuda, J. Hasegawa, M. Ishida, T. Nakajima, 
 Y. Honda, O. Kitao, H. Nakai, T. Vreven, J. A. Montgomery, Jr., 
 J. E. Peralta, F. Ogliaro, M. Bearpark, J. J. Heyd, E. Brothers, 
 K. N. Kudin, V. N. Staroverov, R. Kobayashi, J. Normand, 
 K. Raghavachari, A. Rendell, J. C. Burant, S. S. Iyengar, J. Tomasi, 
 M. Cossi, N. Rega, J. M. Millam, M. Klene, J. E. Knox, J. B. Cross, 
 V. Bakken, C. Adamo, J. Jaramillo, R. Gomperts, R. E. Stratmann, 
 O. Yazyev, A. J. Austin, R. Cammi, C. Pomelli, J. W. Ochterski, 
 R. L. Martin, K. Morokuma, V. G. Zakrzewski, G. A. Voth, 
 P. Salvador, J. J. Dannenberg, S. Dapprich, A. D. Daniels, 
 O. Farkas, J. B. Foresman, J. V. Ortiz, J. Cioslowski, 
 and D. J. Fox, Gaussian, Inc., Wallingford CT, 2009.
 
 ******************************************
 Gaussian 09:  IA32W-G09RevA.02 11-Jun-2009
                17-Jan-2021 
 ******************************************
 %chk=D:\Documents\rayGit\FQ\quimicaComputacional\p3Eteno\estadoDeTransicion\TSET
 HENEOHRADICALHF.chk
 %nprocshared=4
 Will use up to    4 processors via shared memory.
 %mem=1500mb
 ----------------------------------------------------------------------
 # opt=(readfc,ts,noeigen) geom=check guess=check freq=noraman 6-31+g(d
 ,p) iop(1/8=3) hf
 ----------------------------------------------------------------------
 1/5=1,8=3,10=3,11=1,18=20,29=2,38=1/1,3;
 2/9=110,12=2,40=1/2;
 3/5=1,6=6,7=111,11=9,14=-4,16=1,25=1,30=1,71=1,116=-2/1,2,3;
 4/5=1/1;
 5/5=2,38=6/2;
 6/7=2,8=2,9=2,10=2,28=1/1;
 7//1,2,3,16;
 1/5=1,8=3,11=1,18=20/3(2);
 2/9=110/2;
 99//99;
 2/9=110/2;
 3/5=1,6=6,7=111,11=9,14=-2,16=1,25=1,30=1,71=1/1,2,3;
 4/5=5,16=3/1;
 5/5=2,38=5/2;
 7//1,2,3,16;
 1/5=1,8=3,11=1,18=20/3(-5);
 2/9=110/2;
 6/7=2,8=2,9=2,10=2,19=2,28=1/1;
 99/9=1/99;
 ----------------------------------------------
 Transition state Ethene OH radical with HF two
 ----------------------------------------------
 Redundant internal coordinates taken from checkpoint file:
 D:\Documents\rayGit\FQ\quimicaComputacional\p3Eteno\estadoDeTransicion\TSETHENEOHRADICALHF.chk
 Charge =  0 Multiplicity = 2
 C,0,-0.4793809493,0.697792232,0.7132382799
 H,0,0.0397737897,-0.244209374,0.7317765183
 H,0,-1.5415759979,0.6796776536,0.5499010967
 C,0,0.2138589371,1.90241582,0.7976891002
 H,0,-0.3311135132,2.8082751267,0.9790529863
 H,0,1.2306001848,1.8949503592,1.1415540591
 O,0,0.6084593072,2.3578404927,-1.0622617433
 H,0,0.6361946316,1.4875581799,-1.4468082172
 Recover connectivity data from disk.

 GradGradGradGradGradGradGradGradGradGradGradGradGradGradGradGradGradGrad
 Berny optimization.
 Initialization pass.
 Force constant matrix read from checkpoint file:
 D:\Documents\rayGit\FQ\quimicaComputacional\p3Eteno\estadoDeTransicion\TSETHENEO
 HRADICALHF.chk
                           ----------------------------
                           !    Initial Parameters    !
                           ! (Angstroms and Degrees)  !
 --------------------------                            --------------------------
 ! Name  Definition              Value          Derivative Info.                !
 --------------------------------------------------------------------------------
 ! R1    R(1,2)                  1.0757         D2E/DX2 =    0.4085             !
 ! R2    R(1,3)                  1.0748         D2E/DX2 =    0.4101             !
 ! R3    R(1,4)                  1.3924         D2E/DX2 =    0.2748             !
 ! R4    R(1,7)                  2.663          D2E/DX2 =    0.0352             !
 ! R5    R(1,8)                  2.5562         D2E/DX2 =    0.0124             !
 ! R6    R(4,5)                  1.0726         D2E/DX2 =    0.409              !
 ! R7    R(4,6)                  1.0733         D2E/DX2 =    0.4075             !
 ! R8    R(4,7)                  1.9551         D2E/DX2 =   -0.0161             !
 ! R9    R(4,8)                  2.3213         D2E/DX2 =    0.0412             !
 ! R10   R(7,8)                  0.9519         D2E/DX2 =    0.4874             !
 ! A1    A(2,1,3)              117.6963         D2E/DX2 =    0.0663             !
 ! A2    A(2,1,4)              121.0813         D2E/DX2 =    0.0659             !
 ! A3    A(2,1,7)              111.1137         D2E/DX2 =    0.0125             !
 ! A4    A(2,1,8)               94.2722         D2E/DX2 =    0.0105             !
 ! A5    A(3,1,4)              121.0516         D2E/DX2 =    0.0723             !
 ! A6    A(3,1,7)              108.2332         D2E/DX2 =    0.0141             !
 ! A7    A(3,1,8)              107.9438         D2E/DX2 =    0.0072             !
 ! A8    A(1,4,5)              119.2051         D2E/DX2 =    0.1386             !
 ! A9    A(1,4,6)              119.0142         D2E/DX2 =    0.1343             !
 ! A10   A(5,4,6)              115.6579         D2E/DX2 =    0.0714             !
 ! A11   A(5,4,7)               93.8231         D2E/DX2 =    0.0273             !
 ! A12   A(5,4,8)              114.0088         D2E/DX2 =    0.0137             !
 ! A13   A(6,4,7)               96.6156         D2E/DX2 =    0.0251             !
 ! A14   A(6,4,8)               97.827          D2E/DX2 =    0.0134             !
 ! D1    D(2,1,4,5)           -167.5317         D2E/DX2 =    0.0143             !
 ! D2    D(2,1,4,6)            -16.2151         D2E/DX2 =    0.0109             !
 ! D3    D(3,1,4,5)             17.326          D2E/DX2 =    0.009              !
 ! D4    D(3,1,4,6)            168.6426         D2E/DX2 =    0.0136             !
 --------------------------------------------------------------------------------
 Trust Radius=3.00D-02 FncErr=1.00D-07 GrdErr=1.00D-07
 Number of steps in this run=  38 maximum allowed number of steps= 100.
 Search for a saddle point of order  1.
 GradGradGradGradGradGradGradGradGradGradGradGradGradGradGradGradGradGrad

                          Input orientation:                          
 ---------------------------------------------------------------------
 Center     Atomic      Atomic             Coordinates (Angstroms)
 Number     Number       Type             X           Y           Z
 ---------------------------------------------------------------------
      1          6           0       -0.479381    0.697792    0.713238
      2          1           0        0.039774   -0.244209    0.731777
      3          1           0       -1.541576    0.679678    0.549901
      4          6           0        0.213859    1.902416    0.797689
      5          1           0       -0.331114    2.808275    0.979053
      6          1           0        1.230600    1.894950    1.141554
      7          8           0        0.608459    2.357840   -1.062262
      8          1           0        0.636195    1.487558   -1.446808
 ---------------------------------------------------------------------
                    Distance matrix (angstroms):
                    1          2          3          4          5
     1  C    0.000000
     2  H    1.075747   0.000000
     3  H    1.074833   1.840465   0.000000
     4  C    1.392419   2.154681   2.153611   0.000000
     5  H    2.132318   3.084861   2.486025   1.072599   0.000000
     6  H    2.130887   2.482335   3.084137   1.073341   1.816458
     7  O    2.662998   3.211330   3.168273   1.955131   2.291867
     8  H    2.556177   2.846220   3.063038   2.321259   2.926565
                    6          7          8
     6  H    0.000000
     7  O    2.336264   0.000000
     8  H    2.686802   0.951860   0.000000
 Stoichiometry    C2H5O(2)
 Framework group  C1[X(C2H5O)]
 Deg. of freedom    18
 Full point group                 C1      NOp   1
 Largest Abelian subgroup         C1      NOp   1
 Largest concise Abelian subgroup C1      NOp   1
                         Standard orientation:                         
 ---------------------------------------------------------------------
 Center     Atomic      Atomic             Coordinates (Angstroms)
 Number     Number       Type             X           Y           Z
 ---------------------------------------------------------------------
      1          6           0       -1.228067   -0.367433   -0.023425
      2          1           0       -1.577226   -0.848995    0.872911
      3          1           0       -1.550848   -0.771347   -0.965727
      4          6           0       -0.311286    0.679055    0.033203
      5          1           0       -0.135163    1.268667   -0.845322
      6          1           0       -0.149607    1.179472    0.968887
      7          8           0        1.429879   -0.206107   -0.052644
      8          1           0        1.209928   -1.048668    0.331737
 ---------------------------------------------------------------------
 Rotational constants (GHZ):     30.0574965      8.1693193      7.0577026
 Standard basis: 6-31+G(d,p) (6D, 7F)
 There are    82 symmetry adapted basis functions of A   symmetry.
 Integral buffers will be    262144 words long.
 Raffenetti 2 integral format.
 Two-electron integral symmetry is turned on.
    82 basis functions,   131 primitive gaussians,    82 cartesian basis functions
    13 alpha electrons       12 beta electrons
       nuclear repulsion energy        69.4177790675 Hartrees.
 NAtoms=    8 NActive=    8 NUniq=    8 SFac= 7.50D-01 NAtFMM=   80 NAOKFM=F Big=F
 One-electron integrals computed using PRISM.
 NBasis=    82 RedAO= T  NBF=    82
 NBsUse=    82 1.00D-06 NBFU=    82
 Initial guess read from the checkpoint file:  D:\Documents\rayGit\FQ\quimicaComp
 utacional\p3Eteno\estadoDeTransicion\TSETHENEOHRADICALHF.chk
 B after Tr=     0.000000    0.000000    0.000000
         Rot=    1.000000    0.000000    0.000000    0.000000 Ang=   0.00 deg.
 Initial guess orbital symmetries:
 Alpha Orbitals:
       Occupied  (A) (A) (A) (A) (A) (A) (A) (A) (A) (A) (A) (A)
                 (A)
       Virtual   (A) (A) (A) (A) (A) (A) (A) (A) (A) (A) (A) (A)
                 (A) (A) (A) (A) (A) (A) (A) (A) (A) (A) (A) (A)
                 (A) (A) (A) (A) (A) (A) (A) (A) (A) (A) (A) (A)
                 (A) (A) (A) (A) (A) (A) (A) (A) (A) (A) (A) (A)
                 (A) (A) (A) (A) (A) (A) (A) (A) (A) (A) (A) (A)
                 (A) (A) (A) (A) (A) (A) (A) (A) (A)
 Beta  Orbitals:
       Occupied  (A) (A) (A) (A) (A) (A) (A) (A) (A) (A) (A) (A)
       Virtual   (A) (A) (A) (A) (A) (A) (A) (A) (A) (A) (A) (A)
                 (A) (A) (A) (A) (A) (A) (A) (A) (A) (A) (A) (A)
                 (A) (A) (A) (A) (A) (A) (A) (A) (A) (A) (A) (A)
                 (A) (A) (A) (A) (A) (A) (A) (A) (A) (A) (A) (A)
                 (A) (A) (A) (A) (A) (A) (A) (A) (A) (A) (A) (A)
                 (A) (A) (A) (A) (A) (A) (A) (A) (A) (A)
 Initial guess <Sx>= 0.0000 <Sy>= 0.0000 <Sz>= 0.5000 <S**2>= 1.0107 S= 0.6228
 Requested convergence on RMS density matrix=1.00D-08 within 128 cycles.
 Requested convergence on MAX density matrix=1.00D-06.
 Requested convergence on             energy=1.00D-06.
 No special actions if energy rises.
 Keep R1 and R2 ints in memory in canonical form, NReq=12443148.
 SCF Done:  E(UHF) =  -153.420702551     A.U. after    1 cycles
             Convg  =    0.1399D-08             -V/T =  2.0020
 <Sx>= 0.0000 <Sy>= 0.0000 <Sz>= 0.5000 <S**2>= 1.0107 S= 0.6228
 <L.S>= 0.000000000000E+00
 Annihilation of the first spin contaminant:
 S**2 before annihilation     1.0107,   after     0.7582

 **********************************************************************

            Population analysis using the SCF density.

 **********************************************************************

 Orbital symmetries:
 Alpha Orbitals:
       Occupied  (A) (A) (A) (A) (A) (A) (A) (A) (A) (A) (A) (A)
                 (A)
       Virtual   (A) (A) (A) (A) (A) (A) (A) (A) (A) (A) (A) (A)
                 (A) (A) (A) (A) (A) (A) (A) (A) (A) (A) (A) (A)
                 (A) (A) (A) (A) (A) (A) (A) (A) (A) (A) (A) (A)
                 (A) (A) (A) (A) (A) (A) (A) (A) (A) (A) (A) (A)
                 (A) (A) (A) (A) (A) (A) (A) (A) (A) (A) (A) (A)
                 (A) (A) (A) (A) (A) (A) (A) (A) (A)
 Beta  Orbitals:
       Occupied  (A) (A) (A) (A) (A) (A) (A) (A) (A) (A) (A) (A)
       Virtual   (A) (A) (A) (A) (A) (A) (A) (A) (A) (A) (A) (A)
                 (A) (A) (A) (A) (A) (A) (A) (A) (A) (A) (A) (A)
                 (A) (A) (A) (A) (A) (A) (A) (A) (A) (A) (A) (A)
                 (A) (A) (A) (A) (A) (A) (A) (A) (A) (A) (A) (A)
                 (A) (A) (A) (A) (A) (A) (A) (A) (A) (A) (A) (A)
                 (A) (A) (A) (A) (A) (A) (A) (A) (A) (A)
 The electronic state is 2-A.
 Alpha  occ. eigenvalues --  -20.60861 -11.25292 -11.24967  -1.35323  -1.04497
 Alpha  occ. eigenvalues --   -0.82263  -0.66300  -0.64455  -0.60519  -0.58497
 Alpha  occ. eigenvalues --   -0.53753  -0.50364  -0.39314
 Alpha virt. eigenvalues --    0.08485   0.09665   0.11110   0.11711   0.12913
 Alpha virt. eigenvalues --    0.14182   0.15302   0.20682   0.23818   0.25715
 Alpha virt. eigenvalues --    0.28495   0.31486   0.33563   0.35085   0.39516
 Alpha virt. eigenvalues --    0.43498   0.46453   0.48057   0.49580   0.77038
 Alpha virt. eigenvalues --    0.83356   0.88105   0.91854   0.97253   1.12028
 Alpha virt. eigenvalues --    1.15005   1.16631   1.22590   1.26557   1.27460
 Alpha virt. eigenvalues --    1.31278   1.42113   1.45949   1.47767   1.50543
 Alpha virt. eigenvalues --    1.65205   1.69087   1.78354   1.80670   1.87630
 Alpha virt. eigenvalues --    1.92538   2.05210   2.10151   2.24653   2.25590
 Alpha virt. eigenvalues --    2.32410   2.42252   2.46146   2.53180   2.54401
 Alpha virt. eigenvalues --    2.74993   2.78093   2.79531   2.88219   2.94725
 Alpha virt. eigenvalues --    2.95730   3.00302   3.04406   3.08806   3.12073
 Alpha virt. eigenvalues --    3.34787   3.60885   3.75685   3.82378   3.87557
 Alpha virt. eigenvalues --    4.07483   4.51937   4.69940   4.95795
  Beta  occ. eigenvalues --  -20.57514 -11.26577 -11.23157  -1.23689  -1.02640
  Beta  occ. eigenvalues --   -0.80682  -0.65522  -0.61950  -0.57616  -0.52836
  Beta  occ. eigenvalues --   -0.46992  -0.40799
  Beta virt. eigenvalues --    0.06107   0.08756   0.09882   0.11439   0.12602
  Beta virt. eigenvalues --    0.14174   0.14908   0.16844   0.21088   0.23964
  Beta virt. eigenvalues --    0.27626   0.29746   0.33633   0.33922   0.36313
  Beta virt. eigenvalues --    0.40487   0.43694   0.46547   0.48075   0.50213
  Beta virt. eigenvalues --    0.77426   0.83572   0.88779   0.97214   0.98689
  Beta virt. eigenvalues --    1.12481   1.14940   1.16419   1.24245   1.26621
  Beta virt. eigenvalues --    1.28544   1.31286   1.44038   1.48186   1.51555
  Beta virt. eigenvalues --    1.55725   1.67083   1.73049   1.79738   1.81689
  Beta virt. eigenvalues --    1.88268   1.96343   2.08318   2.14927   2.25300
  Beta virt. eigenvalues --    2.26545   2.36100   2.43082   2.46819   2.53345
  Beta virt. eigenvalues --    2.55268   2.75546   2.79970   2.80596   2.89080
  Beta virt. eigenvalues --    2.95639   2.96275   3.00478   3.06115   3.08699
  Beta virt. eigenvalues --    3.12276   3.34916   3.61024   3.75833   3.82928
  Beta virt. eigenvalues --    3.88210   4.07597   4.54417   4.71059   4.95433
          Condensed to atoms (all electrons):
              1          2          3          4          5          6
     1  C    5.157703   0.381852   0.379389   0.414519  -0.028330  -0.018338
     2  H    0.381852   0.513035  -0.024303  -0.014077   0.002368  -0.003054
     3  H    0.379389  -0.024303   0.502783  -0.008656  -0.002919   0.002419
     4  C    0.414519  -0.014077  -0.008656   5.057209   0.412045   0.391552
     5  H   -0.028330   0.002368  -0.002919   0.412045   0.496179  -0.023341
     6  H   -0.018338  -0.003054   0.002419   0.391552  -0.023341   0.510967
     7  O   -0.024729  -0.000049  -0.000646   0.004649  -0.023420  -0.022804
     8  H    0.016753  -0.000068  -0.000035  -0.014849   0.001545   0.000245
              7          8
     1  C   -0.024729   0.016753
     2  H   -0.000049  -0.000068
     3  H   -0.000646  -0.000035
     4  C    0.004649  -0.014849
     5  H   -0.023420   0.001545
     6  H   -0.022804   0.000245
     7  O    8.263325   0.252440
     8  H    0.252440   0.398480
 Mulliken atomic charges:
              1
     1  C   -0.278819
     2  H    0.144294
     3  H    0.151967
     4  C   -0.242393
     5  H    0.165872
     6  H    0.162355
     7  O   -0.448765
     8  H    0.345489
 Sum of Mulliken atomic charges =   0.00000
 Mulliken charges with hydrogens summed into heavy atoms:
              1
     1  C    0.017442
     4  C    0.085835
     7  O   -0.103277
 Sum of Mulliken charges with hydrogens summed into heavy atoms =   0.00000
          Atomic-Atomic Spin Densities.
              1          2          3          4          5          6
     1  C    1.073090   0.013218   0.013363   0.020768   0.002063   0.001018
     2  H    0.013218  -0.070757   0.000837  -0.021129  -0.000008   0.000350
     3  H    0.013363   0.000837  -0.069526  -0.021440   0.000393  -0.000018
     4  C    0.020768  -0.021129  -0.021440  -0.741005   0.006717   0.009361
     5  H    0.002063  -0.000008   0.000393   0.006717   0.046286  -0.000587
     6  H    0.001018   0.000350  -0.000018   0.009361  -0.000587   0.042458
     7  O   -0.021404   0.000360   0.000207  -0.049814  -0.004248  -0.004180
     8  H   -0.000281  -0.000016   0.000014  -0.000015  -0.000023   0.000125
              7          8
     1  C   -0.021404  -0.000281
     2  H    0.000360  -0.000016
     3  H    0.000207   0.000014
     4  C   -0.049814  -0.000015
     5  H   -0.004248  -0.000023
     6  H   -0.004180   0.000125
     7  O    0.861722   0.003517
     8  H    0.003517  -0.040560
 Mulliken atomic spin densities:
              1
     1  C    1.101835
     2  H   -0.077146
     3  H   -0.076170
     4  C   -0.796558
     5  H    0.050592
     6  H    0.048528
     7  O    0.786160
     8  H   -0.037240
 Sum of Mulliken atomic spin densities =   1.00000
 Electronic spatial extent (au):  <R**2>=            205.0542
 Charge=              0.0000 electrons
 Dipole moment (field-independent basis, Debye):
    X=             -1.6307    Y=             -0.8282    Z=              0.7084  Tot=              1.9614
 Quadrupole moment (field-independent basis, Debye-Ang):
   XX=            -23.0623   YY=            -16.9884   ZZ=            -18.6166
   XY=             -0.5516   XZ=              0.9657   YZ=             -0.9924
 Traceless Quadrupole moment (field-independent basis, Debye-Ang):
   XX=             -3.5066   YY=              2.5674   ZZ=              0.9392
   XY=             -0.5516   XZ=              0.9657   YZ=             -0.9924
 Octapole moment (field-independent basis, Debye-Ang**2):
  XXX=              3.4959  YYY=             -2.2709  ZZZ=              0.3641  XYY=              4.4972
  XXY=             -5.0933  XXZ=              0.9366  XZZ=             -0.0043  YZZ=             -0.0524
  YYZ=              0.8776  XYZ=             -1.2247
 Hexadecapole moment (field-independent basis, Debye-Ang**3):
 XXXX=           -181.4704 YYYY=            -59.0549 ZZZZ=            -31.9843 XXXY=             -1.2963
 XXXZ=              1.3398 YYYX=             -3.9258 YYYZ=             -1.9171 ZZZX=              0.8611
 ZZZY=             -0.5151 XXYY=            -35.2617 XXZZ=            -33.2787 YYZZ=            -13.3822
 XXYZ=             -1.7859 YYXZ=              1.0743 ZZXY=              0.9222
 N-N= 6.941777906747D+01 E-N=-7.423304336123D+02  KE= 2.283330948157D+02
                          Isotropic Fermi Contact Couplings
        Atom                 a.u.       MegaHertz       Gauss      10(-4) cm-1
     1  C(13)              0.14624     164.40355      58.66327      54.83912
     2  H(1)              -0.02161     -96.59295     -34.46676     -32.21994
     3  H(1)              -0.02158     -96.45592     -34.41787     -32.17423
     4  C(13)             -0.11322    -127.27938     -45.41645     -42.45583
     5  H(1)               0.01701      76.03236      27.13024      25.36167
     6  H(1)               0.01570      70.18388      25.04335      23.41082
     7  O(17)              0.12238     -74.18900     -26.47248     -24.74679
     8  H(1)              -0.01940     -86.72389     -30.94524     -28.92798
 --------------------------------------------------------
       Center         ----  Spin Dipole Couplings  ----
                      3XX-RR        3YY-RR        3ZZ-RR
 --------------------------------------------------------
     1   Atom        0.347608      0.040949     -0.388558
     2   Atom       -0.008936     -0.017550      0.026485
     3   Atom       -0.009857     -0.024796      0.034653
     4   Atom       -0.278735      0.052266      0.226468
     5   Atom        0.013245      0.013443     -0.026688
     6   Atom        0.012937      0.016909     -0.029846
     7   Atom        2.503837     -1.074376     -1.429461
     8   Atom       -0.028528      0.100573     -0.072045
 --------------------------------------------------------
                        XY            XZ            YZ
 --------------------------------------------------------
     1   Atom       -0.586754     -0.018584      0.012541
     2   Atom       -0.013725     -0.032664     -0.041831
     3   Atom       -0.017207      0.030416      0.036436
     4   Atom        0.332096      0.014714     -0.007425
     5   Atom        0.005380      0.014509      0.020618
     6   Atom        0.007768     -0.014107     -0.015817
     7   Atom       -1.153082     -0.179998      0.061354
     8   Atom        0.036072     -0.024786     -0.098641
 --------------------------------------------------------


 ---------------------------------------------------------------------------------
              Anisotropic Spin Dipole Couplings in Principal Axis System
 ---------------------------------------------------------------------------------

       Atom             a.u.   MegaHertz   Gauss  10(-4) cm-1        Axes

              Baa    -0.4123   -55.322   -19.740   -18.453  0.6110  0.7893  0.0614
     1 C(13)  Bbb    -0.3889   -52.185   -18.621   -17.407 -0.0227 -0.0601  0.9979
              Bcc     0.8012   107.508    38.361    35.861  0.7913 -0.6111 -0.0188
 
              Baa    -0.0601   -32.084   -11.449   -10.702  0.5154  0.6793  0.5224
     2 H(1)   Bbb     0.0011     0.599     0.214     0.200  0.7918 -0.6106  0.0127
              Bcc     0.0590    31.485    11.235    10.502 -0.3276 -0.4071  0.8526
 
              Baa    -0.0598   -31.882   -11.376   -10.635  0.5232  0.7248 -0.4483
     3 H(1)   Bbb     0.0011     0.594     0.212     0.198  0.7920 -0.6077 -0.0581
              Bcc     0.0586    31.288    11.164    10.436  0.3145  0.3247  0.8920
 
              Baa    -0.4847   -65.037   -23.207   -21.694  0.8501 -0.5261 -0.0231
     4 C(13)  Bbb     0.2268    30.432    10.859    10.151 -0.0046 -0.0513  0.9987
              Bcc     0.2579    34.605    12.348    11.543  0.5266  0.8489  0.0460
 
              Baa    -0.0380   -20.258    -7.229    -6.757 -0.2226 -0.3427  0.9127
     5 H(1)   Bbb     0.0081     4.344     1.550     1.449  0.7809 -0.6231 -0.0436
              Bcc     0.0298    15.914     5.679     5.308  0.5837  0.7030  0.4063
 
              Baa    -0.0373   -19.909    -7.104    -6.641  0.2273  0.2426  0.9431
     6 H(1)   Bbb     0.0069     3.702     1.321     1.235  0.7713 -0.6361 -0.0223
              Bcc     0.0304    16.207     5.783     5.406  0.5945  0.7325 -0.3316
 
              Baa    -1.4403   104.220    37.188    34.764 -0.0410 -0.2895  0.9563
     7 O(17)  Bbb    -1.4113   102.124    36.440    34.065  0.2827  0.9146  0.2890
              Bcc     2.8517  -206.344   -73.629   -68.829  0.9583 -0.2822 -0.0443
 
              Baa    -0.1175   -62.705   -22.375   -20.916  0.0931  0.3975  0.9129
     8 H(1)   Bbb    -0.0379   -20.230    -7.219    -6.748  0.9691 -0.2464  0.0084
              Bcc     0.1554    82.935    29.593    27.664  0.2283  0.8839 -0.4082
 

 ---------------------------------------------------------------------------------

 Calling FoFJK, ICntrl=      2127 FMM=F ISym2X=0 I1Cent= 0 IOpClX= 1 NMat=1 NMatS=1 NMatT=0.
 ***** Axes restored to original set *****
 -------------------------------------------------------------------
 Center     Atomic                   Forces (Hartrees/Bohr)
 Number     Number              X              Y              Z
 -------------------------------------------------------------------
      1        6           0.000916978    0.001865691    0.001842758
      2        1          -0.000034293   -0.000265415   -0.000305930
      3        1          -0.000049300   -0.000145205   -0.000683062
      4        6          -0.002526633   -0.004147173    0.003345257
      5        1           0.000160018    0.000866146   -0.002155705
      6        1           0.000955411    0.000555962   -0.001646311
      7        8           0.000816196   -0.000013347   -0.000123841
      8        1          -0.000238377    0.001283341   -0.000273166
 -------------------------------------------------------------------
 Cartesian Forces:  Max     0.004147173 RMS     0.001513296

 GradGradGradGradGradGradGradGradGradGradGradGradGradGradGradGradGradGrad
 Berny optimization.
 Internal  Forces:  Max     0.002502140 RMS     0.000907092
 Search for a saddle point.
 Step number   1 out of a maximum of   38
 All quantities printed in internal units (Hartrees-Bohrs-Radians)
 Swaping is turned off.
 Second derivative matrix not updated -- first step.
     Eigenvalues ---   -0.02588   0.00484   0.00847   0.01333   0.01512
     Eigenvalues ---    0.03199   0.04400   0.04962   0.10019   0.10707
     Eigenvalues ---    0.15533   0.18246   0.28968   0.40657   0.40917
     Eigenvalues ---    0.41097   0.41202   0.532791000.000001000.00000
     Eigenvalues --- 1000.000001000.000001000.000001000.000001000.00000
     Eigenvalues --- 1000.000001000.000001000.00000
 Eigenvectors required to have negative eigenvalues:
                          R8        R9        R4        D2        A6
   1                    0.79731   0.39034   0.23171   0.19100  -0.17362
                          D4        D3        A11       R3        A13
   1                    0.13568  -0.12697  -0.11718  -0.10615   0.08737
 RFO step:  Lambda0=5.806280711D-06 Lambda=-3.73960649D-04.
 Linear search not attempted -- option 19 set.
 Maximum step size (   0.030) exceeded in Quadratic search.
    -- Step size scaled by   0.257
 Iteration  1 RMS(Cart)=  0.00930248 RMS(Int)=  0.00017265
 Iteration  2 RMS(Cart)=  0.00011080 RMS(Int)=  0.00005157
 Iteration  3 RMS(Cart)=  0.00000001 RMS(Int)=  0.00005157
 Variable       Old X    -DE/DX   Delta X   Delta X   Delta X     New X
                                 (Linear)    (Quad)   (Total)
    R1        2.03287   0.00021   0.00000   0.00010   0.00010   2.03297
    R2        2.03114   0.00015   0.00000   0.00020   0.00020   2.03133
    R3        2.63129  -0.00250   0.00000   0.00005   0.00008   2.63138
    R4        5.03234   0.00073   0.00000   0.00620   0.00609   5.03842
    R5        4.83047   0.00063   0.00000   0.00658   0.00666   4.83714
    R6        2.02692   0.00029   0.00000   0.00005   0.00005   2.02697
    R7        2.02832   0.00037   0.00000   0.00002   0.00002   2.02834
    R8        3.69466  -0.00044   0.00000  -0.01060  -0.01050   3.68417
    R9        4.38654  -0.00022   0.00000   0.00053   0.00042   4.38696
   R10        1.79875  -0.00059   0.00000  -0.00021  -0.00013   1.79863
    A1        2.05419  -0.00020   0.00000  -0.00056  -0.00056   2.05363
    A2        2.11327   0.00011   0.00000   0.00026   0.00027   2.11354
    A3        1.93930  -0.00037   0.00000   0.00184   0.00177   1.94107
    A4        1.64536   0.00065   0.00000   0.00960   0.00968   1.65504
    A5        2.11275   0.00004   0.00000  -0.00011  -0.00013   2.11262
    A6        1.88903   0.00055   0.00000  -0.00028  -0.00028   1.88875
    A7        1.88397  -0.00102   0.00000  -0.01285  -0.01284   1.87114
    A8        2.08052   0.00051   0.00000   0.00081   0.00083   2.08135
    A9        2.07719   0.00053   0.00000   0.00092   0.00090   2.07809
   A10        2.01861  -0.00032   0.00000   0.00064   0.00062   2.01924
   A11        1.63752  -0.00099   0.00000  -0.00722  -0.00714   1.63039
   A12        1.98983  -0.00198   0.00000  -0.01490  -0.01498   1.97485
   A13        1.68626  -0.00218   0.00000  -0.00636  -0.00636   1.67990
   A14        1.70740  -0.00008   0.00000   0.00781   0.00782   1.71522
    D1       -2.92398  -0.00111   0.00000  -0.00451  -0.00452  -2.92849
    D2       -0.28301   0.00036   0.00000   0.00083   0.00082  -0.28218
    D3        0.30240  -0.00040   0.00000   0.00132   0.00132   0.30371
    D4        2.94337   0.00108   0.00000   0.00665   0.00666   2.95003
         Item               Value     Threshold  Converged?
 Maximum Force            0.002502     0.000450     NO 
 RMS     Force            0.000907     0.000300     NO 
 Maximum Displacement     0.026874     0.001800     NO 
 RMS     Displacement     0.009319     0.001200     NO 
 Predicted change in Energy=-8.257876D-05
 GradGradGradGradGradGradGradGradGradGradGradGradGradGradGradGradGradGrad

                          Input orientation:                          
 ---------------------------------------------------------------------
 Center     Atomic      Atomic             Coordinates (Angstroms)
 Number     Number       Type             X           Y           Z
 ---------------------------------------------------------------------
      1          6           0       -0.479089    0.695717    0.716243
      2          1           0        0.039645   -0.246474    0.739340
      3          1           0       -1.540286    0.677138    0.545937
      4          6           0        0.214243    1.900590    0.797032
      5          1           0       -0.330566    2.808269    0.969729
      6          1           0        1.230724    1.895192    1.141737
      7          8           0        0.620172    2.359184   -1.053850
      8          1           0        0.621974    1.494685   -1.452027
 ---------------------------------------------------------------------
                    Distance matrix (angstroms):
                    1          2          3          4          5
     1  C    0.000000
     2  H    1.075799   0.000000
     3  H    1.074936   1.840284   0.000000
     4  C    1.392464   2.154924   2.153661   0.000000
     5  H    2.132884   3.085708   2.486915   1.072625   0.000000
     6  H    2.131490   2.483410   3.084985   1.073351   1.816844
     7  O    2.666219   3.215897   3.171148   1.949577   2.280450
     8  H    2.559704   2.858816   3.055423   2.321480   2.915088
                    6          7          8
     6  H    0.000000
     7  O    2.325652   0.000000
     8  H    2.694177   0.951791   0.000000
 Stoichiometry    C2H5O(2)
 Framework group  C1[X(C2H5O)]
 Deg. of freedom    18
 Full point group                 C1      NOp   1
 Largest Abelian subgroup         C1      NOp   1
 Largest concise Abelian subgroup C1      NOp   1
                         Standard orientation:                         
 ---------------------------------------------------------------------
 Center     Atomic      Atomic             Coordinates (Angstroms)
 Number     Number       Type             X           Y           Z
 ---------------------------------------------------------------------
      1          6           0       -1.232446   -0.362642   -0.022078
      2          1           0       -1.585507   -0.838639    0.875763
      3          1           0       -1.554633   -0.770500   -0.963001
      4          6           0       -0.307154    0.676575    0.030994
      5          1           0       -0.122762    1.259712   -0.850185
      6          1           0       -0.140010    1.178771    0.964774
      7          8           0        1.429070   -0.206606   -0.048823
      8          1           0        1.207951   -1.060095    0.309742
 ---------------------------------------------------------------------
 Rotational constants (GHZ):     30.2741811      8.1602816      7.0586919
 Standard basis: 6-31+G(d,p) (6D, 7F)
 There are    82 symmetry adapted basis functions of A   symmetry.
 Integral buffers will be    262144 words long.
 Raffenetti 2 integral format.
 Two-electron integral symmetry is turned on.
    82 basis functions,   131 primitive gaussians,    82 cartesian basis functions
    13 alpha electrons       12 beta electrons
       nuclear repulsion energy        69.4536831890 Hartrees.
 NAtoms=    8 NActive=    8 NUniq=    8 SFac= 7.50D-01 NAtFMM=   80 NAOKFM=F Big=F
 One-electron integrals computed using PRISM.
 NBasis=    82 RedAO= T  NBF=    82
 NBsUse=    82 1.00D-06 NBFU=    82
 Initial guess read from the read-write file.
 B after Tr=     0.000000    0.000000    0.000000
         Rot=    1.000000    0.000000    0.000000    0.000000 Ang=   0.00 deg.
 Initial guess orbital symmetries:
 Alpha Orbitals:
       Occupied  (A) (A) (A) (A) (A) (A) (A) (A) (A) (A) (A) (A)
                 (A)
       Virtual   (A) (A) (A) (A) (A) (A) (A) (A) (A) (A) (A) (A)
                 (A) (A) (A) (A) (A) (A) (A) (A) (A) (A) (A) (A)
                 (A) (A) (A) (A) (A) (A) (A) (A) (A) (A) (A) (A)
                 (A) (A) (A) (A) (A) (A) (A) (A) (A) (A) (A) (A)
                 (A) (A) (A) (A) (A) (A) (A) (A) (A) (A) (A) (A)
                 (A) (A) (A) (A) (A) (A) (A) (A) (A)
 Beta  Orbitals:
       Occupied  (A) (A) (A) (A) (A) (A) (A) (A) (A) (A) (A) (A)
       Virtual   (A) (A) (A) (A) (A) (A) (A) (A) (A) (A) (A) (A)
                 (A) (A) (A) (A) (A) (A) (A) (A) (A) (A) (A) (A)
                 (A) (A) (A) (A) (A) (A) (A) (A) (A) (A) (A) (A)
                 (A) (A) (A) (A) (A) (A) (A) (A) (A) (A) (A) (A)
                 (A) (A) (A) (A) (A) (A) (A) (A) (A) (A) (A) (A)
                 (A) (A) (A) (A) (A) (A) (A) (A) (A) (A)
 Initial guess <Sx>= 0.0000 <Sy>= 0.0000 <Sz>= 0.5000 <S**2>= 1.0101 S= 0.6225
 Harris functional with IExCor=  205 diagonalized for initial guess.
 ExpMin= 4.38D-02 ExpMax= 5.48D+03 ExpMxC= 8.25D+02 IAcc=2 IRadAn=         0 AccDes= 0.00D+00
 HarFok:  IExCor=  205 AccDes= 0.00D+00 IRadAn=         0 IDoV= 1
 ScaDFX=  1.000000  1.000000  1.000000  1.000000
 FoFCou: FMM=F IPFlag=           0 FMFlag=      100000 FMFlg1=           0
         NFxFlg=           0 DoJE=T BraDBF=F KetDBF=T FulRan=T
         Omega=  0.000000  0.000000  1.000000  0.000000  0.000000 ICntrl=     500 IOpCl=  0
         NMat0=    1 NMatS0=    1 NMatT0=    0 NMatD0=    1 NMtDS0=    0 NMtDT0=    0
         I1Cent=           4 NGrid=           0.
 Petite list used in FoFCou.
 Requested convergence on RMS density matrix=1.00D-08 within 128 cycles.
 Requested convergence on MAX density matrix=1.00D-06.
 Requested convergence on             energy=1.00D-06.
 No special actions if energy rises.
 Keep R1 and R2 ints in memory in canonical form, NReq=12443148.
 SCF Done:  E(UHF) =  -153.420785279     A.U. after   16 cycles
             Convg  =    0.6057D-08             -V/T =  2.0020
 <Sx>= 0.0000 <Sy>= 0.0000 <Sz>= 0.5000 <S**2>= 1.0084 S= 0.6218
 <L.S>= 0.000000000000E+00
 Annihilation of the first spin contaminant:
 S**2 before annihilation     1.0084,   after     0.7581
 Calling FoFJK, ICntrl=      2127 FMM=F ISym2X=0 I1Cent= 0 IOpClX= 1 NMat=1 NMatS=1 NMatT=0.
 ***** Axes restored to original set *****
 -------------------------------------------------------------------
 Center     Atomic                   Forces (Hartrees/Bohr)
 Number     Number              X              Y              Z
 -------------------------------------------------------------------
      1        6           0.000686465    0.001439397    0.001347852
      2        1          -0.000019498   -0.000187961   -0.000230749
      3        1          -0.000037501   -0.000118168   -0.000501494
      4        6          -0.001864569   -0.003087243    0.002496484
      5        1           0.000099756    0.000611365   -0.001590036
      6        1           0.000704928    0.000420402   -0.001208415
      7        8           0.000624882   -0.000249877   -0.000201807
      8        1          -0.000194462    0.001172085   -0.000111835
 -------------------------------------------------------------------
 Cartesian Forces:  Max     0.003087243 RMS     0.001135036

 GradGradGradGradGradGradGradGradGradGradGradGradGradGradGradGradGradGrad
 Berny optimization.
 Internal  Forces:  Max     0.001882228 RMS     0.000688055
 Search for a saddle point.
 Step number   2 out of a maximum of   38
 All quantities printed in internal units (Hartrees-Bohrs-Radians)
 Swaping is turned off.
 Update second derivatives using D2CorX and points    1    2
     Eigenvalues ---   -0.02568   0.00488   0.00858   0.01333   0.01460
     Eigenvalues ---    0.03089   0.04347   0.05014   0.09997   0.10696
     Eigenvalues ---    0.15514   0.18242   0.28862   0.40656   0.40917
     Eigenvalues ---    0.41097   0.41202   0.532121000.000001000.00000
     Eigenvalues --- 1000.000001000.000001000.000001000.000001000.00000
     Eigenvalues --- 1000.000001000.000001000.00000
 Eigenvectors required to have negative eigenvalues:
                          R8        R9        R4        D2        A6
   1                    0.79344   0.39316   0.23668   0.19242  -0.17319
                          D4        D3        A11       R3        A13
   1                    0.13670  -0.12723  -0.12050  -0.10574   0.08692
 RFO step:  Lambda0=3.446649954D-06 Lambda=-2.21308488D-04.
 Linear search not attempted -- option 19 set.
 Maximum step size (   0.030) exceeded in Quadratic search.
    -- Step size scaled by   0.317
 Iteration  1 RMS(Cart)=  0.00999198 RMS(Int)=  0.00021710
 Iteration  2 RMS(Cart)=  0.00013933 RMS(Int)=  0.00006483
 Iteration  3 RMS(Cart)=  0.00000001 RMS(Int)=  0.00006483
 Variable       Old X    -DE/DX   Delta X   Delta X   Delta X     New X
                                 (Linear)    (Quad)   (Total)
    R1        2.03297   0.00015   0.00000   0.00008   0.00008   2.03305
    R2        2.03133   0.00012   0.00000   0.00020   0.00020   2.03153
    R3        2.63138  -0.00188   0.00000   0.00012   0.00017   2.63154
    R4        5.03842   0.00049   0.00000   0.00556   0.00543   5.04385
    R5        4.83714   0.00048   0.00000   0.00419   0.00429   4.84143
    R6        2.02697   0.00021   0.00000   0.00005   0.00005   2.02702
    R7        2.02834   0.00028   0.00000   0.00000   0.00000   2.02834
    R8        3.68417  -0.00027   0.00000  -0.00985  -0.00972   3.67445
    R9        4.38696  -0.00018   0.00000   0.00071   0.00057   4.38753
   R10        1.79863  -0.00065   0.00000  -0.00015  -0.00005   1.79857
    A1        2.05363  -0.00015   0.00000  -0.00051  -0.00052   2.05310
    A2        2.11354   0.00008   0.00000   0.00025   0.00025   2.11379
    A3        1.94107  -0.00034   0.00000   0.00121   0.00113   1.94220
    A4        1.65504   0.00053   0.00000   0.01016   0.01025   1.66529
    A5        2.11262   0.00003   0.00000  -0.00014  -0.00015   2.11248
    A6        1.88875   0.00045   0.00000   0.00018   0.00018   1.88893
    A7        1.87114  -0.00080   0.00000  -0.01391  -0.01390   1.85724
    A8        2.08135   0.00035   0.00000   0.00067   0.00069   2.08203
    A9        2.07809   0.00040   0.00000   0.00079   0.00079   2.07888
   A10        2.01924  -0.00023   0.00000   0.00056   0.00055   2.01978
   A11        1.63039  -0.00065   0.00000  -0.00598  -0.00587   1.62452
   A12        1.97485  -0.00153   0.00000  -0.01517  -0.01527   1.95958
   A13        1.67990  -0.00166   0.00000  -0.00623  -0.00623   1.67368
   A14        1.71522  -0.00001   0.00000   0.00975   0.00975   1.72497
    D1       -2.92849  -0.00083   0.00000  -0.00412  -0.00413  -2.93263
    D2       -0.28218   0.00026   0.00000   0.00051   0.00050  -0.28168
    D3        0.30371  -0.00030   0.00000   0.00129   0.00129   0.30500
    D4        2.95003   0.00079   0.00000   0.00591   0.00592   2.95595
         Item               Value     Threshold  Converged?
 Maximum Force            0.001882     0.000450     NO 
 RMS     Force            0.000688     0.000300     NO 
 Maximum Displacement     0.031393     0.001800     NO 
 RMS     Displacement     0.010011     0.001200     NO 
 Predicted change in Energy=-5.820559D-05
 GradGradGradGradGradGradGradGradGradGradGradGradGradGradGradGradGradGrad

                          Input orientation:                          
 ---------------------------------------------------------------------
 Center     Atomic      Atomic             Coordinates (Angstroms)
 Number     Number       Type             X           Y           Z
 ---------------------------------------------------------------------
      1          6           0       -0.478493    0.693810    0.718852
      2          1           0        0.039953   -0.248461    0.746698
      3          1           0       -1.538599    0.674595    0.541322
      4          6           0        0.214730    1.899051    0.796555
      5          1           0       -0.330209    2.808265    0.960723
      6          1           0        1.230631    1.895741    1.142988
      7          8           0        0.633443    2.359452   -1.045599
      8          1           0        0.605361    1.501846   -1.457397
 ---------------------------------------------------------------------
                    Distance matrix (angstroms):
                    1          2          3          4          5
     1  C    0.000000
     2  H    1.075842   0.000000
     3  H    1.075040   1.840120   0.000000
     4  C    1.392553   2.155189   2.153741   0.000000
     5  H    2.133404   3.086487   2.487700   1.072651   0.000000
     6  H    2.132050   2.484424   3.085747   1.073350   1.817179
     7  O    2.669092   3.219591   3.174086   1.944433   2.270548
     8  H    2.561976   2.870765   3.045618   2.321780   2.903330
                    6          7          8
     6  H    0.000000
     7  O    2.315507   0.000000
     8  H    2.703353   0.951763   0.000000
 Stoichiometry    C2H5O(2)
 Framework group  C1[X(C2H5O)]
 Deg. of freedom    18
 Full point group                 C1      NOp   1
 Largest Abelian subgroup         C1      NOp   1
 Largest concise Abelian subgroup C1      NOp   1
                         Standard orientation:                         
 ---------------------------------------------------------------------
 Center     Atomic      Atomic             Coordinates (Angstroms)
 Number     Number       Type             X           Y           Z
 ---------------------------------------------------------------------
      1          6           0       -1.236336   -0.358307   -0.020466
      2          1           0       -1.592606   -0.828604    0.879160
      3          1           0       -1.558197   -0.770518   -0.959720
      4          6           0       -0.303377    0.674362    0.028384
      5          1           0       -0.111863    1.250854   -0.855675
      6          1           0       -0.131199    1.178912    0.959977
      7          8           0        1.428351   -0.206905   -0.044461
      8          1           0        1.205337   -1.071742    0.284439
 ---------------------------------------------------------------------
 Rotational constants (GHZ):     30.4733838      8.1530459      7.0595947
 Standard basis: 6-31+G(d,p) (6D, 7F)
 There are    82 symmetry adapted basis functions of A   symmetry.
 Integral buffers will be    262144 words long.
 Raffenetti 2 integral format.
 Two-electron integral symmetry is turned on.
    82 basis functions,   131 primitive gaussians,    82 cartesian basis functions
    13 alpha electrons       12 beta electrons
       nuclear repulsion energy        69.4873309067 Hartrees.
 NAtoms=    8 NActive=    8 NUniq=    8 SFac= 7.50D-01 NAtFMM=   80 NAOKFM=F Big=F
 One-electron integrals computed using PRISM.
 NBasis=    82 RedAO= T  NBF=    82
 NBsUse=    82 1.00D-06 NBFU=    82
 Initial guess read from the read-write file.
 B after Tr=     0.000000    0.000000    0.000000
         Rot=    1.000000    0.000000    0.000000    0.000000 Ang=   0.00 deg.
 Initial guess orbital symmetries:
 Alpha Orbitals:
       Occupied  (A) (A) (A) (A) (A) (A) (A) (A) (A) (A) (A) (A)
                 (A)
       Virtual   (A) (A) (A) (A) (A) (A) (A) (A) (A) (A) (A) (A)
                 (A) (A) (A) (A) (A) (A) (A) (A) (A) (A) (A) (A)
                 (A) (A) (A) (A) (A) (A) (A) (A) (A) (A) (A) (A)
                 (A) (A) (A) (A) (A) (A) (A) (A) (A) (A) (A) (A)
                 (A) (A) (A) (A) (A) (A) (A) (A) (A) (A) (A) (A)
                 (A) (A) (A) (A) (A) (A) (A) (A) (A)
 Beta  Orbitals:
       Occupied  (A) (A) (A) (A) (A) (A) (A) (A) (A) (A) (A) (A)
       Virtual   (A) (A) (A) (A) (A) (A) (A) (A) (A) (A) (A) (A)
                 (A) (A) (A) (A) (A) (A) (A) (A) (A) (A) (A) (A)
                 (A) (A) (A) (A) (A) (A) (A) (A) (A) (A) (A) (A)
                 (A) (A) (A) (A) (A) (A) (A) (A) (A) (A) (A) (A)
                 (A) (A) (A) (A) (A) (A) (A) (A) (A) (A) (A) (A)
                 (A) (A) (A) (A) (A) (A) (A) (A) (A) (A)
 Initial guess <Sx>= 0.0000 <Sy>= 0.0000 <Sz>= 0.5000 <S**2>= 1.0079 S= 0.6215
 Harris functional with IExCor=  205 diagonalized for initial guess.
 ExpMin= 4.38D-02 ExpMax= 5.48D+03 ExpMxC= 8.25D+02 IAcc=2 IRadAn=         0 AccDes= 0.00D+00
 HarFok:  IExCor=  205 AccDes= 0.00D+00 IRadAn=         0 IDoV= 1
 ScaDFX=  1.000000  1.000000  1.000000  1.000000
 FoFCou: FMM=F IPFlag=           0 FMFlag=      100000 FMFlg1=           0
         NFxFlg=           0 DoJE=T BraDBF=F KetDBF=T FulRan=T
         Omega=  0.000000  0.000000  1.000000  0.000000  0.000000 ICntrl=     500 IOpCl=  0
         NMat0=    1 NMatS0=    1 NMatT0=    0 NMatD0=    1 NMtDS0=    0 NMtDT0=    0
         I1Cent=           4 NGrid=           0.
 Petite list used in FoFCou.
 Requested convergence on RMS density matrix=1.00D-08 within 128 cycles.
 Requested convergence on MAX density matrix=1.00D-06.
 Requested convergence on             energy=1.00D-06.
 No special actions if energy rises.
 Keep R1 and R2 ints in memory in canonical form, NReq=12443148.
 SCF Done:  E(UHF) =  -153.420843863     A.U. after   16 cycles
             Convg  =    0.5888D-08             -V/T =  2.0020
 <Sx>= 0.0000 <Sy>= 0.0000 <Sz>= 0.5000 <S**2>= 1.0063 S= 0.6208
 <L.S>= 0.000000000000E+00
 Annihilation of the first spin contaminant:
 S**2 before annihilation     1.0063,   after     0.7580
 Calling FoFJK, ICntrl=      2127 FMM=F ISym2X=0 I1Cent= 0 IOpClX= 1 NMat=1 NMatS=1 NMatT=0.
 ***** Axes restored to original set *****
 -------------------------------------------------------------------
 Center     Atomic                   Forces (Hartrees/Bohr)
 Number     Number              X              Y              Z
 -------------------------------------------------------------------
      1        6           0.000478216    0.001060593    0.000890046
      2        1          -0.000004556   -0.000114341   -0.000162810
      3        1          -0.000029284   -0.000093826   -0.000329651
      4        6          -0.001255790   -0.002134235    0.001719454
      5        1           0.000036995    0.000383952   -0.001069412
      6        1           0.000476060    0.000295997   -0.000805295
      7        8           0.000441938   -0.000498955   -0.000298948
      8        1          -0.000143579    0.001100815    0.000056616
 -------------------------------------------------------------------
 Cartesian Forces:  Max     0.002134235 RMS     0.000801472

 GradGradGradGradGradGradGradGradGradGradGradGradGradGradGradGradGradGrad
 Berny optimization.
 Internal  Forces:  Max     0.001325901 RMS     0.000495860
 Search for a saddle point.
 Step number   3 out of a maximum of   38
 All quantities printed in internal units (Hartrees-Bohrs-Radians)
 Swaping is turned off.
 Update second derivatives using D2CorX and points    1    2    3
     Eigenvalues ---   -0.02542   0.00483   0.00865   0.01330   0.01385
     Eigenvalues ---    0.02954   0.04284   0.05081   0.09974   0.10684
     Eigenvalues ---    0.15492   0.18238   0.28742   0.40656   0.40917
     Eigenvalues ---    0.41096   0.41202   0.531171000.000001000.00000
     Eigenvalues --- 1000.000001000.000001000.000001000.000001000.00000
     Eigenvalues --- 1000.000001000.000001000.00000
 Eigenvectors required to have negative eigenvalues:
                          R8        R9        R4        D2        A6
   1                    0.78834   0.39682   0.24298   0.19400  -0.17288
                          D4        D3        A11       R3        A13
   1                    0.13839  -0.12677  -0.12452  -0.10482   0.08586
 RFO step:  Lambda0=1.892649453D-06 Lambda=-1.20206062D-04.
 Linear search not attempted -- option 19 set.
 Maximum step size (   0.030) exceeded in Quadratic search.
    -- Step size scaled by   0.383
 Iteration  1 RMS(Cart)=  0.01070834 RMS(Int)=  0.00026589
 Iteration  2 RMS(Cart)=  0.00017052 RMS(Int)=  0.00007906
 Iteration  3 RMS(Cart)=  0.00000002 RMS(Int)=  0.00007906
 Variable       Old X    -DE/DX   Delta X   Delta X   Delta X     New X
                                 (Linear)    (Quad)   (Total)
    R1        2.03305   0.00009   0.00000   0.00005   0.00005   2.03310
    R2        2.03153   0.00008   0.00000   0.00019   0.00019   2.03172
    R3        2.63154  -0.00133   0.00000   0.00026   0.00031   2.63185
    R4        5.04385   0.00028   0.00000   0.00448   0.00432   5.04817
    R5        4.84143   0.00034   0.00000   0.00117   0.00130   4.84274
    R6        2.02702   0.00014   0.00000   0.00005   0.00005   2.02707
    R7        2.02834   0.00019   0.00000  -0.00003  -0.00003   2.02831
    R8        3.67445  -0.00012   0.00000  -0.00867  -0.00851   3.66594
    R9        4.38753  -0.00014   0.00000   0.00086   0.00069   4.38822
   R10        1.79857  -0.00075   0.00000  -0.00017  -0.00005   1.79853
    A1        2.05310  -0.00011   0.00000  -0.00043  -0.00044   2.05267
    A2        2.11379   0.00005   0.00000   0.00021   0.00022   2.11401
    A3        1.94220  -0.00030   0.00000   0.00062   0.00052   1.94272
    A4        1.66529   0.00042   0.00000   0.01085   0.01096   1.67625
    A5        2.11248   0.00003   0.00000  -0.00014  -0.00015   2.11232
    A6        1.88893   0.00036   0.00000   0.00061   0.00061   1.88954
    A7        1.85724  -0.00059   0.00000  -0.01493  -0.01491   1.84233
    A8        2.08203   0.00019   0.00000   0.00043   0.00045   2.08248
    A9        2.07888   0.00028   0.00000   0.00061   0.00060   2.07948
   A10        2.01978  -0.00014   0.00000   0.00042   0.00041   2.02019
   A11        1.62452  -0.00033   0.00000  -0.00429  -0.00416   1.62036
   A12        1.95958  -0.00110   0.00000  -0.01516  -0.01527   1.94431
   A13        1.67368  -0.00118   0.00000  -0.00554  -0.00552   1.66815
   A14        1.72497   0.00005   0.00000   0.01214   0.01213   1.73710
    D1       -2.93263  -0.00056   0.00000  -0.00327  -0.00328  -2.93591
    D2       -0.28168   0.00017   0.00000   0.00010   0.00010  -0.28158
    D3        0.30500  -0.00021   0.00000   0.00127   0.00127   0.30627
    D4        2.95595   0.00052   0.00000   0.00464   0.00465   2.96060
         Item               Value     Threshold  Converged?
 Maximum Force            0.001326     0.000450     NO 
 RMS     Force            0.000496     0.000300     NO 
 Maximum Displacement     0.036111     0.001800     NO 
 RMS     Displacement     0.010729     0.001200     NO 
 Predicted change in Energy=-3.672907D-05
 GradGradGradGradGradGradGradGradGradGradGradGradGradGradGradGradGradGrad

                          Input orientation:                          
 ---------------------------------------------------------------------
 Center     Atomic      Atomic             Coordinates (Angstroms)
 Number     Number       Type             X           Y           Z
 ---------------------------------------------------------------------
      1          6           0       -0.477509    0.692145    0.720841
      2          1           0        0.040765   -0.250088    0.753761
      3          1           0       -1.536438    0.672151    0.535921
      4          6           0        0.215409    1.897897    0.796274
      5          1           0       -0.330033    2.808267    0.952342
      6          1           0        1.230268    1.896624    1.145717
      7          8           0        0.648102    2.358326   -1.037877
      8          1           0        0.586252    1.508979   -1.462837
 ---------------------------------------------------------------------
                    Distance matrix (angstroms):
                    1          2          3          4          5
     1  C    0.000000
     2  H    1.075869   0.000000
     3  H    1.075140   1.839986   0.000000
     4  C    1.392717   2.155492   2.153882   0.000000
     5  H    2.133849   3.087144   2.488336   1.072679   0.000000
     6  H    2.132555   2.485341   3.086398   1.073336   1.817423
     7  O    2.671375   3.222211   3.176829   1.939929   2.262779
     8  H    2.562666   2.881871   3.033336   2.322146   2.891509
                    6          7          8
     6  H    0.000000
     7  O    2.306549   0.000000
     8  H    2.714697   0.951739   0.000000
 Stoichiometry    C2H5O(2)
 Framework group  C1[X(C2H5O)]
 Deg. of freedom    18
 Full point group                 C1      NOp   1
 Largest Abelian subgroup         C1      NOp   1
 Largest concise Abelian subgroup C1      NOp   1
                         Standard orientation:                         
 ---------------------------------------------------------------------
 Center     Atomic      Atomic             Coordinates (Angstroms)
 Number     Number       Type             X           Y           Z
 ---------------------------------------------------------------------
      1          6           0       -1.239482   -0.354698   -0.018569
      2          1           0       -1.598275   -0.819057    0.883169
      3          1           0       -1.561198   -0.771780   -0.955835
      4          6           0       -0.300110    0.672588    0.025319
      5          1           0       -0.103025    1.242350   -0.861905
      6          1           0       -0.123851    1.180425    0.954343
      7          8           0        1.427726   -0.207017   -0.039528
      8          1           0        1.202089   -1.083137    0.255952
 ---------------------------------------------------------------------
 Rotational constants (GHZ):     30.6403599      8.1486043      7.0605680
 Standard basis: 6-31+G(d,p) (6D, 7F)
 There are    82 symmetry adapted basis functions of A   symmetry.
 Integral buffers will be    262144 words long.
 Raffenetti 2 integral format.
 Two-electron integral symmetry is turned on.
    82 basis functions,   131 primitive gaussians,    82 cartesian basis functions
    13 alpha electrons       12 beta electrons
       nuclear repulsion energy        69.5170935770 Hartrees.
 NAtoms=    8 NActive=    8 NUniq=    8 SFac= 7.50D-01 NAtFMM=   80 NAOKFM=F Big=F
 One-electron integrals computed using PRISM.
 NBasis=    82 RedAO= T  NBF=    82
 NBsUse=    82 1.00D-06 NBFU=    82
 Initial guess read from the read-write file.
 B after Tr=     0.000000    0.000000    0.000000
         Rot=    1.000000    0.000000    0.000000    0.000000 Ang=   0.00 deg.
 Initial guess orbital symmetries:
 Alpha Orbitals:
       Occupied  (A) (A) (A) (A) (A) (A) (A) (A) (A) (A) (A) (A)
                 (A)
       Virtual   (A) (A) (A) (A) (A) (A) (A) (A) (A) (A) (A) (A)
                 (A) (A) (A) (A) (A) (A) (A) (A) (A) (A) (A) (A)
                 (A) (A) (A) (A) (A) (A) (A) (A) (A) (A) (A) (A)
                 (A) (A) (A) (A) (A) (A) (A) (A) (A) (A) (A) (A)
                 (A) (A) (A) (A) (A) (A) (A) (A) (A) (A) (A) (A)
                 (A) (A) (A) (A) (A) (A) (A) (A) (A)
 Beta  Orbitals:
       Occupied  (A) (A) (A) (A) (A) (A) (A) (A) (A) (A) (A) (A)
       Virtual   (A) (A) (A) (A) (A) (A) (A) (A) (A) (A) (A) (A)
                 (A) (A) (A) (A) (A) (A) (A) (A) (A) (A) (A) (A)
                 (A) (A) (A) (A) (A) (A) (A) (A) (A) (A) (A) (A)
                 (A) (A) (A) (A) (A) (A) (A) (A) (A) (A) (A) (A)
                 (A) (A) (A) (A) (A) (A) (A) (A) (A) (A) (A) (A)
                 (A) (A) (A) (A) (A) (A) (A) (A) (A) (A)
 Initial guess <Sx>= 0.0000 <Sy>= 0.0000 <Sz>= 0.5000 <S**2>= 1.0058 S= 0.6206
 Harris functional with IExCor=  205 diagonalized for initial guess.
 ExpMin= 4.38D-02 ExpMax= 5.48D+03 ExpMxC= 8.25D+02 IAcc=2 IRadAn=         0 AccDes= 0.00D+00
 HarFok:  IExCor=  205 AccDes= 0.00D+00 IRadAn=         0 IDoV= 1
 ScaDFX=  1.000000  1.000000  1.000000  1.000000
 FoFCou: FMM=F IPFlag=           0 FMFlag=      100000 FMFlg1=           0
         NFxFlg=           0 DoJE=T BraDBF=F KetDBF=T FulRan=T
         Omega=  0.000000  0.000000  1.000000  0.000000  0.000000 ICntrl=     500 IOpCl=  0
         NMat0=    1 NMatS0=    1 NMatT0=    0 NMatD0=    1 NMtDS0=    0 NMtDT0=    0
         I1Cent=           4 NGrid=           0.
 Petite list used in FoFCou.
 Requested convergence on RMS density matrix=1.00D-08 within 128 cycles.
 Requested convergence on MAX density matrix=1.00D-06.
 Requested convergence on             energy=1.00D-06.
 No special actions if energy rises.
 Keep R1 and R2 ints in memory in canonical form, NReq=12443148.
 SCF Done:  E(UHF) =  -153.420881239     A.U. after   16 cycles
             Convg  =    0.5475D-08             -V/T =  2.0020
 <Sx>= 0.0000 <Sy>= 0.0000 <Sz>= 0.5000 <S**2>= 1.0044 S= 0.6200
 <L.S>= 0.000000000000E+00
 Annihilation of the first spin contaminant:
 S**2 before annihilation     1.0044,   after     0.7579
 Calling FoFJK, ICntrl=      2127 FMM=F ISym2X=0 I1Cent= 0 IOpClX= 1 NMat=1 NMatS=1 NMatT=0.
 ***** Axes restored to original set *****
 -------------------------------------------------------------------
 Center     Atomic                   Forces (Hartrees/Bohr)
 Number     Number              X              Y              Z
 -------------------------------------------------------------------
      1        6           0.000313101    0.000763000    0.000504449
      2        1           0.000011345   -0.000049907   -0.000111282
      3        1          -0.000024853   -0.000072917   -0.000177913
      4        6          -0.000758450   -0.001352375    0.001049443
      5        1          -0.000021919    0.000197270   -0.000632710
      6        1           0.000288360    0.000188707   -0.000476359
      7        8           0.000277329   -0.000706304   -0.000365985
      8        1          -0.000084914    0.001032526    0.000210357
 -------------------------------------------------------------------
 Cartesian Forces:  Max     0.001352375 RMS     0.000544114

 GradGradGradGradGradGradGradGradGradGradGradGradGradGradGradGradGradGrad
 Berny optimization.
 Internal  Forces:  Max     0.000883484 RMS     0.000351050
 Search for a saddle point.
 Step number   4 out of a maximum of   38
 All quantities printed in internal units (Hartrees-Bohrs-Radians)
 Swaping is turned off.
 Update second derivatives using D2CorX and points    1    2    3    4
     Eigenvalues ---   -0.02528   0.00492   0.00871   0.01266   0.01350
     Eigenvalues ---    0.02789   0.04212   0.05145   0.09950   0.10674
     Eigenvalues ---    0.15473   0.18231   0.28609   0.40655   0.40917
     Eigenvalues ---    0.41096   0.41202   0.529731000.000001000.00000
     Eigenvalues --- 1000.000001000.000001000.000001000.000001000.00000
     Eigenvalues --- 1000.000001000.000001000.00000
 Eigenvectors required to have negative eigenvalues:
                          R8        R9        R4        D2        A6
   1                    0.78564   0.39939   0.24764   0.19533  -0.17143
                          D4        D3        A11       R3        A13
   1                    0.13813  -0.12745  -0.12662  -0.10432   0.08514
 RFO step:  Lambda0=5.624622917D-07 Lambda=-6.29130238D-05.
 Linear search not attempted -- option 19 set.
 Maximum step size (   0.030) exceeded in Quadratic search.
    -- Step size scaled by   0.453
 Iteration  1 RMS(Cart)=  0.01146290 RMS(Int)=  0.00032346
 Iteration  2 RMS(Cart)=  0.00020797 RMS(Int)=  0.00009628
 Iteration  3 RMS(Cart)=  0.00000003 RMS(Int)=  0.00009628
 Variable       Old X    -DE/DX   Delta X   Delta X   Delta X     New X
                                 (Linear)    (Quad)   (Total)
    R1        2.03310   0.00005   0.00000   0.00002   0.00002   2.03312
    R2        2.03172   0.00006   0.00000   0.00017   0.00017   2.03190
    R3        2.63185  -0.00088   0.00000   0.00016   0.00023   2.63209
    R4        5.04817   0.00010   0.00000   0.00340   0.00319   5.05136
    R5        4.84274   0.00022   0.00000  -0.00303  -0.00287   4.83987
    R6        2.02707   0.00009   0.00000   0.00004   0.00004   2.02711
    R7        2.02831   0.00012   0.00000  -0.00007  -0.00007   2.02825
    R8        3.66594  -0.00001   0.00000  -0.00604  -0.00584   3.66010
    R9        4.38822  -0.00011   0.00000   0.00128   0.00107   4.38929
   R10        1.79853  -0.00083   0.00000  -0.00002   0.00013   1.79866
    A1        2.05267  -0.00006   0.00000  -0.00029  -0.00030   2.05237
    A2        2.11401   0.00003   0.00000   0.00016   0.00017   2.11417
    A3        1.94272  -0.00028   0.00000  -0.00057  -0.00068   1.94204
    A4        1.67625   0.00032   0.00000   0.01104   0.01117   1.68743
    A5        2.11232   0.00002   0.00000  -0.00014  -0.00014   2.11218
    A6        1.88954   0.00029   0.00000   0.00141   0.00139   1.89093
    A7        1.84233  -0.00040   0.00000  -0.01559  -0.01556   1.82677
    A8        2.08248   0.00007   0.00000   0.00025   0.00028   2.08277
    A9        2.07948   0.00018   0.00000   0.00040   0.00040   2.07988
   A10        2.02019  -0.00005   0.00000   0.00043   0.00042   2.02061
   A11        1.62036  -0.00006   0.00000  -0.00205  -0.00189   1.61848
   A12        1.94431  -0.00075   0.00000  -0.01483  -0.01495   1.92936
   A13        1.66815  -0.00079   0.00000  -0.00513  -0.00509   1.66306
   A14        1.73710   0.00010   0.00000   0.01434   0.01431   1.75140
    D1       -2.93591  -0.00034   0.00000  -0.00267  -0.00269  -2.93861
    D2       -0.28158   0.00009   0.00000  -0.00010  -0.00011  -0.28168
    D3        0.30627  -0.00013   0.00000   0.00059   0.00059   0.30685
    D4        2.96060   0.00029   0.00000   0.00316   0.00318   2.96378
         Item               Value     Threshold  Converged?
 Maximum Force            0.000883     0.000450     NO 
 RMS     Force            0.000351     0.000300     NO 
 Maximum Displacement     0.041084     0.001800     NO 
 RMS     Displacement     0.011491     0.001200     NO 
 Predicted change in Energy=-2.196587D-05
 GradGradGradGradGradGradGradGradGradGradGradGradGradGradGradGradGradGrad

                          Input orientation:                          
 ---------------------------------------------------------------------
 Center     Atomic      Atomic             Coordinates (Angstroms)
 Number     Number       Type             X           Y           Z
 ---------------------------------------------------------------------
      1          6           0       -0.476063    0.690877    0.722006
      2          1           0        0.042294   -0.251134    0.759911
      3          1           0       -1.533789    0.669907    0.529908
      4          6           0        0.216132    1.897244    0.796484
      5          1           0       -0.330261    2.808327    0.945043
      6          1           0        1.229535    1.897904    1.150025
      7          8           0        0.664456    2.355443   -1.031195
      8          1           0        0.564512    1.515731   -1.468039
 ---------------------------------------------------------------------
                    Distance matrix (angstroms):
                    1          2          3          4          5
     1  C    0.000000
     2  H    1.075878   0.000000
     3  H    1.075233   1.839906   0.000000
     4  C    1.392840   2.155710   2.153983   0.000000
     5  H    2.134151   3.087616   2.488706   1.072702   0.000000
     6  H    2.132880   2.485979   3.086824   1.073302   1.817650
     7  O    2.673065   3.223257   3.179678   1.936840   2.258336
     8  H    2.561147   2.891069   3.018290   2.322710   2.879998
                    6          7          8
     6  H    0.000000
     7  O    2.299212   0.000000
     8  H    2.728108   0.951808   0.000000
 Stoichiometry    C2H5O(2)
 Framework group  C1[X(C2H5O)]
 Deg. of freedom    18
 Full point group                 C1      NOp   1
 Largest Abelian subgroup         C1      NOp   1
 Largest concise Abelian subgroup C1      NOp   1
                         Standard orientation:                         
 ---------------------------------------------------------------------
 Center     Atomic      Atomic             Coordinates (Angstroms)
 Number     Number       Type             X           Y           Z
 ---------------------------------------------------------------------
      1          6           0       -1.241600   -0.352173   -0.016365
      2          1           0       -1.601509   -0.811002    0.887768
      3          1           0       -1.563700   -0.774217   -0.951381
      4          6           0       -0.297861    0.671496    0.021866
      5          1           0       -0.097305    1.234888   -0.868671
      6          1           0       -0.118352    1.183163    0.948121
      7          8           0        1.427453   -0.206859   -0.034070
      8          1           0        1.198006   -1.093899    0.223716
 ---------------------------------------------------------------------
 Rotational constants (GHZ):     30.7569130      8.1464152      7.0604891
 Standard basis: 6-31+G(d,p) (6D, 7F)
 There are    82 symmetry adapted basis functions of A   symmetry.
 Integral buffers will be    262144 words long.
 Raffenetti 2 integral format.
 Two-electron integral symmetry is turned on.
    82 basis functions,   131 primitive gaussians,    82 cartesian basis functions
    13 alpha electrons       12 beta electrons
       nuclear repulsion energy        69.5377587888 Hartrees.
 NAtoms=    8 NActive=    8 NUniq=    8 SFac= 7.50D-01 NAtFMM=   80 NAOKFM=F Big=F
 One-electron integrals computed using PRISM.
 NBasis=    82 RedAO= T  NBF=    82
 NBsUse=    82 1.00D-06 NBFU=    82
 Initial guess read from the read-write file.
 B after Tr=     0.000000    0.000000    0.000000
         Rot=    1.000000    0.000000    0.000000    0.000000 Ang=   0.00 deg.
 Initial guess orbital symmetries:
 Alpha Orbitals:
       Occupied  (A) (A) (A) (A) (A) (A) (A) (A) (A) (A) (A) (A)
                 (A)
       Virtual   (A) (A) (A) (A) (A) (A) (A) (A) (A) (A) (A) (A)
                 (A) (A) (A) (A) (A) (A) (A) (A) (A) (A) (A) (A)
                 (A) (A) (A) (A) (A) (A) (A) (A) (A) (A) (A) (A)
                 (A) (A) (A) (A) (A) (A) (A) (A) (A) (A) (A) (A)
                 (A) (A) (A) (A) (A) (A) (A) (A) (A) (A) (A) (A)
                 (A) (A) (A) (A) (A) (A) (A) (A) (A)
 Beta  Orbitals:
       Occupied  (A) (A) (A) (A) (A) (A) (A) (A) (A) (A) (A) (A)
       Virtual   (A) (A) (A) (A) (A) (A) (A) (A) (A) (A) (A) (A)
                 (A) (A) (A) (A) (A) (A) (A) (A) (A) (A) (A) (A)
                 (A) (A) (A) (A) (A) (A) (A) (A) (A) (A) (A) (A)
                 (A) (A) (A) (A) (A) (A) (A) (A) (A) (A) (A) (A)
                 (A) (A) (A) (A) (A) (A) (A) (A) (A) (A) (A) (A)
                 (A) (A) (A) (A) (A) (A) (A) (A) (A) (A)
 Initial guess <Sx>= 0.0000 <Sy>= 0.0000 <Sz>= 0.5000 <S**2>= 1.0041 S= 0.6199
 Harris functional with IExCor=  205 diagonalized for initial guess.
 ExpMin= 4.38D-02 ExpMax= 5.48D+03 ExpMxC= 8.25D+02 IAcc=2 IRadAn=         0 AccDes= 0.00D+00
 HarFok:  IExCor=  205 AccDes= 0.00D+00 IRadAn=         0 IDoV= 1
 ScaDFX=  1.000000  1.000000  1.000000  1.000000
 FoFCou: FMM=F IPFlag=           0 FMFlag=      100000 FMFlg1=           0
         NFxFlg=           0 DoJE=T BraDBF=F KetDBF=T FulRan=T
         Omega=  0.000000  0.000000  1.000000  0.000000  0.000000 ICntrl=     500 IOpCl=  0
         NMat0=    1 NMatS0=    1 NMatT0=    0 NMatD0=    1 NMtDS0=    0 NMtDT0=    0
         I1Cent=           4 NGrid=           0.
 Petite list used in FoFCou.
 Requested convergence on RMS density matrix=1.00D-08 within 128 cycles.
 Requested convergence on MAX density matrix=1.00D-06.
 Requested convergence on             energy=1.00D-06.
 No special actions if energy rises.
 Keep R1 and R2 ints in memory in canonical form, NReq=12443148.
 SCF Done:  E(UHF) =  -153.420904080     A.U. after   16 cycles
             Convg  =    0.4996D-08             -V/T =  2.0020
 <Sx>= 0.0000 <Sy>= 0.0000 <Sz>= 0.5000 <S**2>= 1.0031 S= 0.6194
 <L.S>= 0.000000000000E+00
 Annihilation of the first spin contaminant:
 S**2 before annihilation     1.0031,   after     0.7579
 Calling FoFJK, ICntrl=      2127 FMM=F ISym2X=0 I1Cent= 0 IOpClX= 1 NMat=1 NMatS=1 NMatT=0.
 ***** Axes restored to original set *****
 -------------------------------------------------------------------
 Center     Atomic                   Forces (Hartrees/Bohr)
 Number     Number              X              Y              Z
 -------------------------------------------------------------------
      1        6           0.000196662    0.000574131    0.000213774
      2        1           0.000023877    0.000000056   -0.000075264
      3        1          -0.000026099   -0.000062250   -0.000055755
      4        6          -0.000415418   -0.000839339    0.000619176
      5        1          -0.000065501    0.000070307   -0.000324995
      6        1           0.000154879    0.000117947   -0.000241473
      7        8           0.000137115   -0.000923101   -0.000500229
      8        1          -0.000005515    0.001062249    0.000364766
 -------------------------------------------------------------------
 Cartesian Forces:  Max     0.001062249 RMS     0.000422394

 GradGradGradGradGradGradGradGradGradGradGradGradGradGradGradGradGradGrad
 Berny optimization.
 Internal  Forces:  Max     0.000976428 RMS     0.000279140
 Search for a saddle point.
 Step number   5 out of a maximum of   38
 All quantities printed in internal units (Hartrees-Bohrs-Radians)
 Swaping is turned off.
 Update second derivatives using D2CorX and points    1    2    3    4    5
     Eigenvalues ---   -0.02493   0.00491   0.00857   0.01146   0.01350
     Eigenvalues ---    0.02645   0.04161   0.05145   0.09927   0.10664
     Eigenvalues ---    0.15445   0.18217   0.28473   0.40655   0.40917
     Eigenvalues ---    0.41096   0.41202   0.527611000.000001000.00000
     Eigenvalues --- 1000.000001000.000001000.000001000.000001000.00000
     Eigenvalues --- 1000.000001000.000001000.00000
 Eigenvectors required to have negative eigenvalues:
                          R8        R9        R4        D2        A6
   1                    0.77820   0.40551   0.25620   0.19635  -0.16935
                          D4        A11       D3        R3        A7
   1                    0.14023  -0.12935  -0.12577  -0.10225  -0.09645
 RFO step:  Lambda0=4.170617054D-07 Lambda=-3.65903156D-05.
 Linear search not attempted -- option 19 set.
 Maximum step size (   0.030) exceeded in Quadratic search.
    -- Step size scaled by   0.488
 Iteration  1 RMS(Cart)=  0.01189660 RMS(Int)=  0.00036094
 Iteration  2 RMS(Cart)=  0.00023050 RMS(Int)=  0.00010759
 Iteration  3 RMS(Cart)=  0.00000003 RMS(Int)=  0.00010759
 Variable       Old X    -DE/DX   Delta X   Delta X   Delta X     New X
                                 (Linear)    (Quad)   (Total)
    R1        2.03312   0.00001   0.00000  -0.00003  -0.00003   2.03309
    R2        2.03190   0.00004   0.00000   0.00016   0.00016   2.03205
    R3        2.63209  -0.00059   0.00000   0.00013   0.00021   2.63230
    R4        5.05136  -0.00003   0.00000   0.00169   0.00147   5.05283
    R5        4.83987   0.00015   0.00000  -0.00618  -0.00600   4.83386
    R6        2.02711   0.00005   0.00000   0.00005   0.00005   2.02716
    R7        2.02825   0.00007   0.00000  -0.00010  -0.00010   2.02815
    R8        3.66010   0.00011   0.00000  -0.00480  -0.00458   3.65552
    R9        4.38929  -0.00009   0.00000   0.00061   0.00037   4.38965
   R10        1.79866  -0.00098   0.00000  -0.00027  -0.00010   1.79856
    A1        2.05237  -0.00004   0.00000  -0.00020  -0.00021   2.05216
    A2        2.11417   0.00001   0.00000   0.00006   0.00007   2.11425
    A3        1.94204  -0.00026   0.00000  -0.00181  -0.00193   1.94011
    A4        1.68743   0.00024   0.00000   0.01087   0.01101   1.69844
    A5        2.11218   0.00002   0.00000  -0.00001  -0.00001   2.11217
    A6        1.89093   0.00023   0.00000   0.00275   0.00272   1.89365
    A7        1.82677  -0.00025   0.00000  -0.01486  -0.01482   1.81195
    A8        2.08277  -0.00002   0.00000  -0.00012  -0.00008   2.08268
    A9        2.07988   0.00012   0.00000   0.00030   0.00031   2.08019
   A10        2.02061   0.00000   0.00000   0.00032   0.00030   2.02091
   A11        1.61848   0.00012   0.00000   0.00010   0.00028   1.61876
   A12        1.92936  -0.00049   0.00000  -0.01424  -0.01438   1.91498
   A13        1.66306  -0.00050   0.00000  -0.00448  -0.00442   1.65864
   A14        1.75140   0.00011   0.00000   0.01596   0.01591   1.76732
    D1       -2.93861  -0.00018   0.00000  -0.00233  -0.00236  -2.94097
    D2       -0.28168   0.00003   0.00000  -0.00109  -0.00109  -0.28278
    D3        0.30685  -0.00009   0.00000  -0.00061  -0.00062   0.30624
    D4        2.96378   0.00012   0.00000   0.00063   0.00065   2.96443
         Item               Value     Threshold  Converged?
 Maximum Force            0.000976     0.000450     NO 
 RMS     Force            0.000279     0.000300     YES
 Maximum Displacement     0.043546     0.001800     NO 
 RMS     Displacement     0.011914     0.001200     NO 
 Predicted change in Energy=-1.343335D-05
 GradGradGradGradGradGradGradGradGradGradGradGradGradGradGradGradGradGrad

                          Input orientation:                          
 ---------------------------------------------------------------------
 Center     Atomic      Atomic             Coordinates (Angstroms)
 Number     Number       Type             X           Y           Z
 ---------------------------------------------------------------------
      1          6           0       -0.474325    0.689954    0.722361
      2          1           0        0.044327   -0.251681    0.764826
      3          1           0       -1.531002    0.667826    0.524242
      4          6           0        0.216918    1.897001    0.796741
      5          1           0       -0.330886    2.808348    0.938506
      6          1           0        1.228436    1.899599    1.155470
      7          8           0        0.681878    2.350749   -1.025317
      8          1           0        0.541468    1.522506   -1.472686
 ---------------------------------------------------------------------
                    Distance matrix (angstroms):
                    1          2          3          4          5
     1  C    0.000000
     2  H    1.075862   0.000000
     3  H    1.075317   1.839847   0.000000
     4  C    1.392951   2.155839   2.154147   0.000000
     5  H    2.134219   3.087836   2.488720   1.072726   0.000000
     6  H    2.133124   2.486508   3.087104   1.073249   1.817797
     7  O    2.673841   3.222379   3.182798   1.934418   2.256477
     8  H    2.557970   2.898509   3.002221   2.322903   2.868491
                    6          7          8
     6  H    0.000000
     7  O    2.293054   0.000000
     8  H    2.742505   0.951756   0.000000
 Stoichiometry    C2H5O(2)
 Framework group  C1[X(C2H5O)]
 Deg. of freedom    18
 Full point group                 C1      NOp   1
 Largest Abelian subgroup         C1      NOp   1
 Largest concise Abelian subgroup C1      NOp   1
                         Standard orientation:                         
 ---------------------------------------------------------------------
 Center     Atomic      Atomic             Coordinates (Angstroms)
 Number     Number       Type             X           Y           Z
 ---------------------------------------------------------------------
      1          6           0       -1.242779   -0.350472   -0.013908
      2          1           0       -1.602339   -0.804480    0.892775
      3          1           0       -1.566537   -0.776773   -0.946515
      4          6           0       -0.296145    0.670880    0.018241
      5          1           0       -0.094150    1.228417   -0.875678
      6          1           0       -0.114106    1.186878    0.941535
      7          8           0        1.427151   -0.206645   -0.028371
      8          1           0        1.193468   -1.103331    0.188855
 ---------------------------------------------------------------------
 Rotational constants (GHZ):     30.8341689      8.1482488      7.0616762
 Standard basis: 6-31+G(d,p) (6D, 7F)
 There are    82 symmetry adapted basis functions of A   symmetry.
 Integral buffers will be    262144 words long.
 Raffenetti 2 integral format.
 Two-electron integral symmetry is turned on.
    82 basis functions,   131 primitive gaussians,    82 cartesian basis functions
    13 alpha electrons       12 beta electrons
[...]
                    13                     14                     15
                     A                      A                      A
 Frequencies --  1662.6962              3302.3238              3334.8971
 Red. masses --     1.3187                 1.0516                 1.0573
 Frc consts  --     2.1479                 6.7569                 6.9280
 IR Inten    --     6.5205                16.1814                10.1588
  Atom  AN      X      Y      Z        X      Y      Z        X      Y      Z
     1   6    -0.07  -0.08   0.00     0.04   0.05   0.00    -0.01  -0.01   0.00
     2   1     0.21   0.25   0.27    -0.22  -0.28   0.60     0.03   0.03  -0.07
     3   1     0.21   0.25  -0.27    -0.22  -0.28  -0.60     0.03   0.03   0.07
     4   6     0.06   0.11   0.00     0.00   0.00   0.00     0.02   0.06   0.00
     5   1    -0.17  -0.40  -0.35    -0.02  -0.04   0.07    -0.13  -0.34   0.60
     6   1    -0.17  -0.40   0.35    -0.02  -0.04  -0.07    -0.13  -0.34  -0.60
     7   8     0.00   0.00   0.00     0.00   0.00   0.00     0.00   0.00   0.00
     8   1     0.03  -0.01   0.00     0.00   0.00   0.00     0.00   0.00   0.00
                    16                     17                     18
                     A                      A                      A
 Frequencies --  3394.1831              3432.0279              4102.8394
 Red. masses --     1.1187                 1.1192                 1.0680
 Frc consts  --     7.5933                 7.7673                10.5919
 IR Inten    --     5.6962                11.6858                52.3874
  Atom  AN      X      Y      Z        X      Y      Z        X      Y      Z
     1   6     0.00   0.00   0.09     0.00   0.00   0.03     0.00   0.00   0.00
     2   1     0.21   0.27  -0.56     0.08   0.10  -0.21     0.00   0.00   0.00
     3   1    -0.21  -0.27  -0.56    -0.08  -0.10  -0.21     0.00   0.00   0.00
     4   6     0.00   0.00  -0.03     0.00   0.00   0.09     0.00   0.00   0.00
     5   1    -0.05  -0.12   0.21     0.13   0.33  -0.56     0.00   0.00   0.00
     6   1     0.05   0.12   0.21    -0.13  -0.33  -0.56     0.00   0.00   0.00
     7   8     0.00   0.00   0.00     0.00   0.00   0.00     0.02   0.06   0.00
     8   1     0.00   0.00   0.00     0.00   0.00   0.00    -0.27  -0.96   0.00

 -------------------
 - Thermochemistry -
 -------------------
 Temperature   298.150 Kelvin.  Pressure   1.00000 Atm.
 Atom     1 has atomic number  6 and mass  12.00000
 Atom     2 has atomic number  1 and mass   1.00783
 Atom     3 has atomic number  1 and mass   1.00783
 Atom     4 has atomic number  6 and mass  12.00000
 Atom     5 has atomic number  1 and mass   1.00783
 Atom     6 has atomic number  1 and mass   1.00783
 Atom     7 has atomic number  8 and mass  15.99491
 Atom     8 has atomic number  1 and mass   1.00783
 Molecular mass:    45.03404 amu.
 Principal axes and moments of inertia in atomic units:
                           1         2         3
     Eigenvalues --    58.43235 221.01670 255.36752
           X            0.99979   0.02051   0.00001
           Y           -0.02051   0.99979  -0.00005
           Z           -0.00001   0.00005   1.00000
 This molecule is an asymmetric top.
 Rotational symmetry number  1.
 Rotational temperatures (Kelvin)      1.48229     0.39189     0.33917
 Rotational constants (GHZ):          30.88599     8.16563     7.06723
    1 imaginary frequencies ignored.
 Zero-point vibrational energy     173239.8 (Joules/Mol)
                                   41.40531 (Kcal/Mol)
 Warning -- explicit consideration of   3 degrees of freedom as
           vibrations may cause significant error
 Vibrational temperatures:    109.91   413.29   662.81  1187.74  1245.57
          (Kelvin)           1345.84  1467.75  1544.91  1828.28  1918.21
                             2281.42  2392.25  4751.30  4798.17  4883.47
                             4937.92  5903.06
 
 Zero-point correction=                           0.065984 (Hartree/Particle)
 Thermal correction to Energy=                    0.070558
 Thermal correction to Enthalpy=                  0.071502
 Thermal correction to Gibbs Free Energy=         0.039021
 Sum of electronic and zero-point Energies=           -153.354962
 Sum of electronic and thermal Energies=              -153.350387
 Sum of electronic and thermal Enthalpies=            -153.349443
 Sum of electronic and thermal Free Energies=         -153.381924
 
                     E (Thermal)             CV                S
                      KCal/Mol        Cal/Mol-Kelvin    Cal/Mol-Kelvin
 Total                   44.276             13.625             68.362
 Electronic               0.000              0.000              1.377
 Translational            0.889              2.981             37.340
 Rotational               0.889              2.981             22.716
 Vibrational             42.498              7.663              6.929
 Vibration     1          0.599              1.965              3.982
 Vibration     2          0.684              1.697              1.490
 Vibration     3          0.818              1.337              0.764
                       Q            Log10(Q)             Ln(Q)
 Total Bot       0.112588D-17        -17.948506        -41.327963
 Total V=0       0.252209D+13         12.401761         28.556111
 Vib (Bot)       0.230531D-29        -29.637271        -68.242339
 Vib (Bot)    1  0.269746D+01          0.430955          0.992310
 Vib (Bot)    2  0.666738D+00         -0.176045         -0.405358
 Vib (Bot)    3  0.369010D+00         -0.432962         -0.996932
 Vib (V=0)       0.516412D+01          0.712996          1.641735
 Vib (V=0)    1  0.324341D+01          0.511001          1.176624
 Vib (V=0)    2  0.133339D+01          0.124957          0.287725
 Vib (V=0)    3  0.112142D+01          0.049770          0.114600
 Electronic      0.200000D+01          0.301030          0.693147
 Translational   0.118786D+08          7.074767         16.290252
 Rotational      0.205574D+05          4.312968          9.930977
 ***** Axes restored to original set *****
 -------------------------------------------------------------------
 Center     Atomic                   Forces (Hartrees/Bohr)
 Number     Number              X              Y              Z
 -------------------------------------------------------------------
      1        6           0.000003702    0.000009280    0.000003508
      2        1           0.000001065    0.000001305   -0.000001923
      3        1           0.000000612    0.000000893    0.000001000
      4        6          -0.000003996   -0.000010997   -0.000002638
      5        1          -0.000000810   -0.000000452   -0.000000606
      6        1          -0.000000943   -0.000000387    0.000002643
      7        8           0.000000693    0.000000847   -0.000000531
      8        1          -0.000000324   -0.000000489   -0.000001453
 -------------------------------------------------------------------
 Cartesian Forces:  Max     0.000010997 RMS     0.000003403

 GradGradGradGradGradGradGradGradGradGradGradGradGradGradGradGradGradGrad
 Berny optimization.
 Internal  Forces:  Max     0.000012420 RMS     0.000002561
 Search for a saddle point.
 Step number   1 out of a maximum of    2
 All quantities printed in internal units (Hartrees-Bohrs-Radians)
 Swaping is turned off.
 Second derivative matrix not updated -- analytic derivatives used.
     Eigenvalues ---   -0.04852   0.00211   0.01076   0.01200   0.01874
     Eigenvalues ---    0.03823   0.04133   0.04978   0.09718   0.10576
     Eigenvalues ---    0.12513   0.17064   0.39296   0.39562   0.40209
     Eigenvalues ---    0.40270   0.41086   0.571011000.000001000.00000
     Eigenvalues --- 1000.000001000.000001000.000001000.000001000.00000
     Eigenvalues --- 1000.000001000.000001000.00000
 Eigenvectors required to have negative eigenvalues:
                          R8        R9        R4        D3        D2
   1                    0.78692   0.32250   0.32175  -0.19653   0.19649
                          R3        D1        D4        R5        A11
   1                   -0.15699  -0.11012   0.11008  -0.09832  -0.07590
 Angle between quadratic step and forces=  79.19 degrees.
 Linear search not attempted -- option 19 set.
 Iteration  1 RMS(Cart)=  0.00021271 RMS(Int)=  0.00000012
 Iteration  2 RMS(Cart)=  0.00000008 RMS(Int)=  0.00000004
 Variable       Old X    -DE/DX   Delta X   Delta X   Delta X     New X
                                 (Linear)    (Quad)   (Total)
    R1        2.03263   0.00000   0.00000   0.00000   0.00000   2.03263
    R2        2.03263   0.00000   0.00000   0.00000   0.00000   2.03263
    R3        2.63235  -0.00001   0.00000  -0.00002  -0.00002   2.63233
    R4        5.05103   0.00000   0.00000  -0.00001  -0.00001   5.05102
    R5        4.80653   0.00000   0.00000   0.00004   0.00004   4.80657
    R6        2.02757   0.00000   0.00000   0.00000   0.00000   2.02758
    R7        2.02758   0.00000   0.00000   0.00000   0.00000   2.02758
    R8        3.64966   0.00000   0.00000  -0.00003  -0.00003   3.64963
    R9        4.38989   0.00000   0.00000   0.00001   0.00001   4.38990
   R10        1.79676   0.00000   0.00000   0.00000   0.00000   1.79676
    A1        2.05217   0.00000   0.00000   0.00001   0.00001   2.05217
    A2        2.11326   0.00000   0.00000  -0.00001  -0.00001   2.11325
    A3        1.91800   0.00000   0.00000  -0.00013  -0.00013   1.91787
    A4        1.75068   0.00000   0.00000   0.00015   0.00015   1.75083
    A5        2.11325   0.00000   0.00000   0.00000   0.00000   2.11325
    A6        1.91777   0.00000   0.00000   0.00010   0.00010   1.91787
    A7        1.75100   0.00000   0.00000  -0.00018  -0.00018   1.75083
    A8        2.08102   0.00000   0.00000  -0.00001  -0.00001   2.08101
    A9        2.08101   0.00000   0.00000   0.00000   0.00000   2.08101
   A10        2.02176   0.00000   0.00000   0.00000   0.00000   2.02176
   A11        1.63777   0.00000   0.00000   0.00008   0.00008   1.63785
   A12        1.84689   0.00000   0.00000  -0.00026  -0.00026   1.84663
   A13        1.63790   0.00000   0.00000  -0.00005  -0.00005   1.63785
   A14        1.84634   0.00000   0.00000   0.00029   0.00029   1.84663
    D1       -2.95213   0.00000   0.00000  -0.00010  -0.00010  -2.95224
    D2       -0.29368   0.00000   0.00000  -0.00015  -0.00015  -0.29383
    D3        0.29389   0.00000   0.00000  -0.00006  -0.00006   0.29383
    D4        2.95234   0.00000   0.00000  -0.00011  -0.00011   2.95224
         Item               Value     Threshold  Converged?
 Maximum Force            0.000012     0.000450     YES
 RMS     Force            0.000003     0.000300     YES
 Maximum Displacement     0.000673     0.001800     YES
 RMS     Displacement     0.000213     0.001200     YES
 Predicted change in Energy=-6.901887D-10
 Optimization completed.
    -- Stationary point found.
                           ----------------------------
                           !   Optimized Parameters   !
                           ! (Angstroms and Degrees)  !
 --------------------------                            --------------------------
 ! Name  Definition              Value          Derivative Info.                !
 --------------------------------------------------------------------------------
 ! R1    R(1,2)                  1.0756         -DE/DX =    0.0                 !
 ! R2    R(1,3)                  1.0756         -DE/DX =    0.0                 !
 ! R3    R(1,4)                  1.393          -DE/DX =    0.0                 !
 ! R4    R(1,7)                  2.6729         -DE/DX =    0.0                 !
 ! R5    R(1,8)                  2.5435         -DE/DX =    0.0                 !
 ! R6    R(4,5)                  1.0729         -DE/DX =    0.0                 !
 ! R7    R(4,6)                  1.0729         -DE/DX =    0.0                 !
 ! R8    R(4,7)                  1.9313         -DE/DX =    0.0                 !
 ! R9    R(4,8)                  2.323          -DE/DX =    0.0                 !
 ! R10   R(7,8)                  0.9508         -DE/DX =    0.0                 !
 ! A1    A(2,1,3)              117.5806         -DE/DX =    0.0                 !
 ! A2    A(2,1,4)              121.0807         -DE/DX =    0.0                 !
 ! A3    A(2,1,7)              109.8934         -DE/DX =    0.0                 !
 ! A4    A(2,1,8)              100.3063         -DE/DX =    0.0                 !
 ! A5    A(3,1,4)              121.0801         -DE/DX =    0.0                 !
 ! A6    A(3,1,7)              109.8799         -DE/DX =    0.0                 !
 ! A7    A(3,1,8)              100.3251         -DE/DX =    0.0                 !
 ! A8    A(1,4,5)              119.2337         -DE/DX =    0.0                 !
 ! A9    A(1,4,6)              119.2329         -DE/DX =    0.0                 !
 ! A10   A(5,4,6)              115.8385         -DE/DX =    0.0                 !
 ! A11   A(5,4,7)               93.8374         -DE/DX =    0.0                 !
 ! A12   A(5,4,8)              105.8189         -DE/DX =    0.0                 !
 ! A13   A(6,4,7)               93.8447         -DE/DX =    0.0                 !
 ! A14   A(6,4,8)              105.7873         -DE/DX =    0.0                 !
 ! D1    D(2,1,4,5)           -169.1448         -DE/DX =    0.0                 !
 ! D2    D(2,1,4,6)            -16.8266         -DE/DX =    0.0                 !
 ! D3    D(3,1,4,5)             16.8387         -DE/DX =    0.0                 !
 ! D4    D(3,1,4,6)            169.1569         -DE/DX =    0.0                 !
 --------------------------------------------------------------------------------
 GradGradGradGradGradGradGradGradGradGradGradGradGradGradGradGradGradGrad


 Test job not archived.
 1|1|UNPC-DESKTOP-319GPER|Freq|UHF|6-31+G(d,p)|C2H5O1(2)|SAGAD|17-Jan-2
 021|0||#N Geom=AllCheck Guess=TCheck SCRF=Check Test GenChk UHF/6-31+G
 (d,p) Freq||Transition state Ethene OH radical with HF two||0,2|C,-0.4
 655421511,0.6870618928,0.7209408342|H,0.0569917494,-0.2511979294,0.780
 8264799|H,-1.5187479857,0.657612929,0.5045006585|C,0.2191277166,1.8976
 97362,0.798250016|H,-0.3372723864,2.8080237086,0.9119913328|H,1.219922
 0199,1.9099201492,1.1848729412|O,0.7722480525,2.3088475493,-1.00591156
 88|H,0.4300893748,1.5663348285,-1.4913286138||Version=IA32W-G09RevA.02
 |State=2-A|HF=-153.4209455|S2=1.000404|S2-1=0.|S2A=0.757724|RMSD=8.069
 e-010|RMSF=3.403e-006|ZeroPoint=0.0659836|Thermal=0.0705582|Dipole=-0.
 3988006,-0.6308509,0.2036771|DipoleDeriv=0.1998685,0.0444522,-0.157361
 6,0.1076137,0.2016611,-0.4333448,0.0506142,-0.0727686,-0.3813069,0.005
 9553,0.0687795,-0.0198891,0.0277939,-0.0757036,0.0217917,-0.0264578,-0
 .0027761,0.1555062,-0.0904341,-0.0274016,-0.0329468,0.0044442,0.025296
 1,0.0154921,-0.0564493,-0.0120808,0.1508811,-0.0718362,-0.2212248,0.59
 77302,-0.2618315,-0.0747098,0.720296,0.464136,0.4885264,-0.8804288,0.0
 267922,0.068591,-0.0009006,0.051708,-0.016547,-0.0613352,-0.0401852,-0
 .0767658,0.1724144,-0.0170669,0.0075034,-0.1060733,0.0138407,0.0551011
 ,-0.0117333,-0.1015174,-0.0565245,0.1444909,-0.3527401,0.1482349,-0.31
 40006,0.1755256,-0.2806728,-0.3034692,-0.2246122,-0.1480453,0.300961,0
 .2994614,-0.0889346,0.0334418,-0.1190947,0.1655748,0.0523027,-0.065528
 3,-0.1195654,0.3374822|Polar=29.1276838,6.441616,33.3244532,-6.5722343
 ,-6.9367484,38.9379493|HyperPolar=8.6179896,1.6326391,-17.4055952,-42.
 0449619,-63.3787434,-62.2153289,-37.5965641,206.9945938,201.3919238,-5
 00.4807653|PG=C01 [X(C2H5O1)]|NImag=1||0.68604779,-0.01036373,0.696476
 90,0.11041161,0.01008376,0.11491333,-0.14511447,0.13556992,-0.01557730
 ,0.13973317,0.13022180,-0.29907662,0.01627975,-0.14229815,0.31577448,-
 0.01655523,0.01191826,-0.02844728,0.01687231,-0.01620533,0.01867679,-0
 .36260226,-0.00519394,-0.06716980,-0.00918499,-0.00261008,-0.00282508,
 0.38127429,-0.00135450,-0.06965901,0.00096432,0.02720312,0.00541196,0.
 00545796,0.00830666,0.06170685,-0.07115806,-0.00328001,-0.04038415,-0.
 00130498,-0.00064603,0.00305262,0.07378177,0.00181270,0.03120958,-0.16
 886157,-0.07985835,-0.03056871,0.01483954,0.01854370,0.00243342,-0.011
 97963,-0.03292317,0.00031551,0.65794164,-0.09204218,-0.29615490,-0.027
 63894,-0.01810310,-0.02115862,0.00038682,0.00204969,0.00582060,0.00243
 873,-0.06731612,0.67210151,-0.07069349,-0.09720781,-0.04471800,0.00037
 149,0.00149994,0.00270770,-0.00312649,-0.00821684,0.00254232,0.2204377
 3,0.17579650,0.05598626,0.01477754,-0.01919629,-0.00145376,-0.00120064
 ,-0.00388663,-0.00118811,0.00105162,0.00076543,0.00073136,-0.15672646,
 0.14631671,0.00719394,0.15302016,0.01788961,-0.02248850,-0.00113408,-0
 .00350106,-0.00304107,-0.00185460,-0.00048479,0.00146332,0.00092143,0.
 14235727,-0.29072250,-0.03582250,-0.15071795,0.30786766,0.00682310,0.0
 0974113,0.00315894,-0.00118424,-0.00018934,0.00730782,0.00078066,-0.00
 003720,-0.00420030,0.00008135,-0.04686582,-0.02980183,-0.01324906,0.03
 095990,0.04176140,-0.01337679,-0.00111013,-0.00457466,0.00087745,-0.00
 025147,0.00186483,0.00112331,-0.00256687,-0.00232797,-0.33945259,0.005
 19063,-0.11941666,-0.01026876,-0.00246610,-0.00510487,0.35895737,-0.03
 250560,0.00551292,-0.01101456,0.00070327,0.00142265,0.00045826,-0.0025
 0586,-0.00514962,-0.00078679,0.00508041,-0.06937604,-0.00532263,0.0257
 5979,0.00495703,0.01117100,0.00307878,0.06196354,0.00588454,0.01059693
 ,0.00331370,0.00084410,-0.00026958,-0.00398610,-0.00086615,0.00009303,
 0.00709329,-0.12570306,-0.01751193,-0.06843206,0.00430180,0.00079952,0
 .00493232,0.11882129,0.00255594,0.08172458,-0.01198352,-0.02024187,0.0
 0883917,0.00014156,0.00013687,-0.00038950,0.00110976,0.00064460,-0.000
 66513,0.00476813,0.01971535,-0.04168144,-0.00006796,-0.00297178,0.0100
 7697,0.00192682,0.00049481,-0.00299772,0.08720433,-0.01290236,-0.01730
 803,0.01259404,0.00025982,0.00121178,-0.00087158,0.00057571,0.00041622
 ,-0.00056126,0.01450880,-0.00156037,-0.04205978,0.00128378,0.00181977,
 -0.00474529,-0.00187869,0.00097886,0.00245057,0.17782809,0.39221730,0.
 03301763,0.05451454,-0.00775449,-0.00017127,-0.00081120,0.00104330,-0.
 00070708,-0.00031585,0.00087484,-0.05888693,-0.07185317,0.08563896,0.0
 0321515,0.00579648,-0.02113028,0.01006021,0.00265779,-0.02227627,0.122
 89164,0.25194170,0.13244235,0.00111329,0.00039440,0.00009344,-0.000091
 63,0.00014395,-0.00021264,-0.00079209,-0.00007528,0.00062750,-0.000529
 08,0.00418902,0.00691493,-0.00058550,-0.00010518,0.00177609,0.00021319
 ,-0.00010560,-0.00028480,-0.08309913,-0.17967515,-0.10941936,0.0837709
 5,0.00105696,0.00269724,-0.00013430,0.00016618,-0.00054457,0.00071021,
 -0.00013739,-0.00001033,0.00010124,-0.00039254,0.00105032,0.01133311,-
 0.00032484,0.00014429,-0.00003438,0.00000385,-0.00030933,0.00128552,-0
 .17560607,-0.37777554,-0.24193028,0.17523385,0.37474793,0.00226990,0.0
 0363321,-0.00008206,0.00014988,0.00034177,-0.00035484,0.00013218,0.000
 24188,-0.00018820,-0.00810932,-0.01475220,-0.00392334,0.00044868,0.000
 33386,-0.00202807,0.00067782,0.00028099,-0.00236946,-0.09607399,-0.218
 74839,-0.16883841,0.10050484,0.22866888,0.17778438||-0.00000370,-0.000
 00928,-0.00000351,-0.00000107,-0.00000130,0.00000192,-0.00000061,-0.00
 000089,-0.00000100,0.00000400,0.00001100,0.00000264,0.00000081,0.00000
 045,0.00000061,0.00000094,0.00000039,-0.00000264,-0.00000069,-0.000000
 85,0.00000053,0.00000032,0.00000049,0.00000145|||@


 THE CHYMISTS ARE A STRANGE CLASS OF MORTALS IMPELLED
 BY AN ALMOST INSANE IMPULSE TO SEEK THEIR PLEASURE
 AMONG SMOKE AND VAPOR, SOOT AND FLAME, POISONS AND
 POVERTY; YET AMONG ALL THESE EVILS I SEEM TO LIVE
 SO SWEETLY, THAT I MAY DIE IF I WOULD CHANGE PLACES
 WITH THE PERSIAN KING.
   --  JOHANN JOACHIM BECHER, 1635-1682
 ACTA LABORATORII CHYMICA MONACENSIS, 1669
 Job cpu time:  0 days  0 hours  0 minutes  6.0 seconds.
 File lengths (MBytes):  RWF=     14 Int=      0 D2E=      0 Chk=      2 Scr=      1
 Normal termination of Gaussian 09 at Sun Jan 17 12:46:04 2021.
