 Entering Link 1 = C:\G09W\l1.exe PID=      6636.
  
 Copyright (c) 1988,1990,1992,1993,1995,1998,2003,2009, Gaussian, Inc.
                  All Rights Reserved.
  
 This is part of the Gaussian(R) 09 program.  It is based on
 the Gaussian(R) 03 system (copyright 2003, Gaussian, Inc.),
 the Gaussian(R) 98 system (copyright 1998, Gaussian, Inc.),
 the Gaussian(R) 94 system (copyright 1995, Gaussian, Inc.),
 the Gaussian 92(TM) system (copyright 1992, Gaussian, Inc.),
 the Gaussian 90(TM) system (copyright 1990, Gaussian, Inc.),
 the Gaussian 88(TM) system (copyright 1988, Gaussian, Inc.),
 the Gaussian 86(TM) system (copyright 1986, Carnegie Mellon
 University), and the Gaussian 82(TM) system (copyright 1983,
 Carnegie Mellon University). Gaussian is a federally registered
 trademark of Gaussian, Inc.
  
 This software contains proprietary and confidential information,
 including trade secrets, belonging to Gaussian, Inc.
  
 This software is provided under written license and may be
 used, copied, transmitted, or stored only in accord with that
 written license.
  
 The following legend is applicable only to US Government
 contracts under FAR:
  
                    RESTRICTED RIGHTS LEGEND
  
 Use, reproduction and disclosure by the US Government is
 subject to restrictions as set forth in subparagraphs (a)
 and (c) of the Commercial Computer Software - Restricted
 Rights clause in FAR 52.227-19.
  
 Gaussian, Inc.
 340 Quinnipiac St., Bldg. 40, Wallingford CT 06492
  
  
 ---------------------------------------------------------------
 Warning -- This program may not be used in any manner that
 competes with the business of Gaussian, Inc. or will provide
 assistance to any competitor of Gaussian, Inc.  The licensee
 of this program is prohibited from giving any competitor of
 Gaussian, Inc. access to this program.  By using this program,
 the user acknowledges that Gaussian, Inc. is engaged in the
 business of creating and licensing software in the field of
 computational chemistry and represents and warrants to the
 licensee that it is not a competitor of Gaussian, Inc. and that
 it will not use this program in any manner prohibited above.
 ---------------------------------------------------------------
  

 Cite this work as:
 Gaussian 09, Revision A.02,
 M. J. Frisch, G. W. Trucks, H. B. Schlegel, G. E. Scuseria, 
 M. A. Robb, J. R. Cheeseman, G. Scalmani, V. Barone, B. Mennucci, 
 G. A. Petersson, H. Nakatsuji, M. Caricato, X. Li, H. P. Hratchian, 
 A. F. Izmaylov, J. Bloino, G. Zheng, J. L. Sonnenberg, M. Hada, 
 M. Ehara, K. Toyota, R. Fukuda, J. Hasegawa, M. Ishida, T. Nakajima, 
 Y. Honda, O. Kitao, H. Nakai, T. Vreven, J. A. Montgomery, Jr., 
 J. E. Peralta, F. Ogliaro, M. Bearpark, J. J. Heyd, E. Brothers, 
 K. N. Kudin, V. N. Staroverov, R. Kobayashi, J. Normand, 
 K. Raghavachari, A. Rendell, J. C. Burant, S. S. Iyengar, J. Tomasi, 
 M. Cossi, N. Rega, J. M. Millam, M. Klene, J. E. Knox, J. B. Cross, 
 V. Bakken, C. Adamo, J. Jaramillo, R. Gomperts, R. E. Stratmann, 
 O. Yazyev, A. J. Austin, R. Cammi, C. Pomelli, J. W. Ochterski, 
 R. L. Martin, K. Morokuma, V. G. Zakrzewski, G. A. Voth, 
 P. Salvador, J. J. Dannenberg, S. Dapprich, A. D. Daniels, 
 O. Farkas, J. B. Foresman, J. V. Ortiz, J. Cioslowski, 
 and D. J. Fox, Gaussian, Inc., Wallingford CT, 2009.
 
 ******************************************
 Gaussian 09:  IA32W-G09RevA.02 11-Jun-2009
                17-Jan-2021 
 ******************************************
 %chk=D:\Documents\rayGit\FQ\quimicaComputacional\p3Eteno\estadoDeTransicion\TSET
 HENEOHRADICALB3LYP.chk
 %nprocshared=4
 Will use up to    4 processors via shared memory.
 %mem=1500mb
 ----------------------------------------------------------------------
 # opt=(readfc,ts,noeigen) geom=check guess=check freq=noraman 6-31+g(d
 ,p) iop(1/8=3) b3lyp
 ----------------------------------------------------------------------
 1/5=1,8=3,10=3,11=1,14=-1,18=20,26=3,29=2,38=1/1,3;
 2/9=110,12=2,40=1/2;
 3/5=1,6=6,7=111,11=2,14=-4,16=1,25=1,30=1,71=1,74=-5,116=-2/1,2,3;
 4/5=1/1;
 5/5=2,38=6/2;
 6/7=2,8=2,9=2,10=2,28=1/1;
 7//1,2,3,16;
 1/5=1,8=3,11=1,14=-1,18=20/3(2);
 2/9=110/2;
 99//99;
 2/9=110/2;
 3/5=1,6=6,7=111,11=2,14=-2,16=1,25=1,30=1,71=1,74=-5/1,2,3;
 4/5=5,16=3/1;
 5/5=2,38=5/2;
 7//1,2,3,16;
 1/5=1,8=3,11=1,14=-1,18=20/3(-5);
 2/9=110/2;
 6/7=2,8=2,9=2,10=2,19=2,28=1/1;
 99/9=1/99;
 ---------------------------------------------
 Transition state Ethene OH radical with B3LYP
 ---------------------------------------------
 Redundant internal coordinates taken from checkpoint file:
 D:\Documents\rayGit\FQ\quimicaComputacional\p3Eteno\estadoDeTransicion\TSETHENEOHRADICALB3LYP.chk
 Charge =  0 Multiplicity = 2
 C,0,-0.4617498933,0.7670547652,0.6570518556
 H,0,0.0545021626,-0.182920937,0.5763462472
 H,0,-1.5339855416,0.7650296227,0.5089844687
 C,0,0.2122843941,1.92318882,0.9276086867
 H,0,-0.328388361,2.8296957836,1.1638237474
 H,0,1.2544180851,1.899741837,1.220589729
 O,0,0.2957889026,2.1720398816,-1.2566121838
 H,0,0.8839466414,1.4104707171,-1.3936504708
 Recover connectivity data from disk.

 GradGradGradGradGradGradGradGradGradGradGradGradGradGradGradGradGradGrad
 Berny optimization.
 Initialization pass.
 Force constant matrix read from checkpoint file:
 D:\Documents\rayGit\FQ\quimicaComputacional\p3Eteno\estadoDeTransicion\TSETHENEO
 HRADICALB3LYP.chk
                           ----------------------------
                           !    Initial Parameters    !
                           ! (Angstroms and Degrees)  !
 --------------------------                            --------------------------
 ! Name  Definition              Value          Derivative Info.                !
 --------------------------------------------------------------------------------
 ! R1    R(1,2)                  1.0842         D2E/DX2 =    0.3981             !
 ! R2    R(1,3)                  1.0824         D2E/DX2 =    0.3994             !
 ! R3    R(1,4)                  1.3653         D2E/DX2 =    0.273              !
 ! R4    R(1,7)                  2.492          D2E/DX2 =    0.0226             !
 ! R5    R(1,8)                  2.5358         D2E/DX2 =    0.0103             !
 ! R6    R(4,5)                  1.0816         D2E/DX2 =    0.3977             !
 ! R7    R(4,6)                  1.0828         D2E/DX2 =    0.3958             !
 ! R8    R(4,7)                  2.1999         D2E/DX2 =   -0.0265             !
 ! R9    R(4,8)                  2.4703         D2E/DX2 =    0.0384             !
 ! R10   R(7,8)                  0.972          D2E/DX2 =    0.4678             !
 ! A1    A(2,1,3)              117.3782         D2E/DX2 =    0.0586             !
 ! A2    A(2,1,4)              121.4413         D2E/DX2 =    0.059              !
 ! A3    A(2,1,7)              106.9833         D2E/DX2 =    0.0114             !
 ! A4    A(2,1,8)               84.8039         D2E/DX2 =    0.0105             !
 ! A5    A(3,1,4)              121.1796         D2E/DX2 =    0.0647             !
 ! A6    A(3,1,7)              101.3697         D2E/DX2 =    0.0134             !
 ! A7    A(3,1,8)              114.5533         D2E/DX2 =    0.0101             !
 ! A8    A(1,4,5)              120.4101         D2E/DX2 =    0.1226             !
 ! A9    A(1,4,6)              120.6918         D2E/DX2 =    0.1182             !
 ! A10   A(5,4,6)              116.1144         D2E/DX2 =    0.0631             !
 ! A11   A(5,4,7)               98.1058         D2E/DX2 =    0.0205             !
 ! A12   A(5,4,8)              121.0033         D2E/DX2 =    0.0128             !
 ! A13   A(6,4,7)              103.5659         D2E/DX2 =    0.0269             !
 ! A14   A(6,4,8)               89.3167         D2E/DX2 =    0.0157             !
 ! D1    D(2,1,4,5)           -169.9876         D2E/DX2 =    0.0122             !
 ! D2    D(2,1,4,6)             -9.6144         D2E/DX2 =    0.0108             !
 ! D3    D(3,1,4,5)             10.3676         D2E/DX2 =    0.0086             !
 ! D4    D(3,1,4,6)            170.7408         D2E/DX2 =    0.0114             !
 --------------------------------------------------------------------------------
 Trust Radius=3.00D-02 FncErr=1.00D-07 GrdErr=1.00D-06
 Number of steps in this run=  38 maximum allowed number of steps= 100.
 Search for a saddle point of order  1.
 GradGradGradGradGradGradGradGradGradGradGradGradGradGradGradGradGradGrad

                          Input orientation:                          
 ---------------------------------------------------------------------
 Center     Atomic      Atomic             Coordinates (Angstroms)
 Number     Number       Type             X           Y           Z
 ---------------------------------------------------------------------
      1          6           0       -0.461750    0.767055    0.657052
      2          1           0        0.054502   -0.182921    0.576346
      3          1           0       -1.533986    0.765030    0.508984
      4          6           0        0.212284    1.923189    0.927609
      5          1           0       -0.328388    2.829696    1.163824
      6          1           0        1.254418    1.899742    1.220590
      7          8           0        0.295789    2.172040   -1.256612
      8          1           0        0.883947    1.410471   -1.393650
 ---------------------------------------------------------------------
                    Distance matrix (angstroms):
                    1          2          3          4          5
     1  C    0.000000
     2  H    1.084197   0.000000
     3  H    1.082413   1.851065   0.000000
     4  C    1.365346   2.141023   2.136829   0.000000
     5  H    2.128166   3.093153   2.478936   1.081610   0.000000
     6  H    2.132085   2.488440   3.093404   1.082788   1.836658
     7  O    2.491979   2.993960   2.906043   2.199937   2.584689
     8  H    2.535796   2.666039   3.143725   2.470274   3.166170
                    6          7          8
     6  H    0.000000
     7  O    2.670140   0.000000
     8  H    2.685310   0.971955   0.000000
 Stoichiometry    C2H5O(2)
 Framework group  C1[X(C2H5O)]
 Deg. of freedom    18
 Full point group                 C1      NOp   1
 Largest Abelian subgroup         C1      NOp   1
 Largest concise Abelian subgroup C1      NOp   1
                         Standard orientation:                         
 ---------------------------------------------------------------------
 Center     Atomic      Atomic             Coordinates (Angstroms)
 Number     Number       Type             X           Y           Z
 ---------------------------------------------------------------------
      1          6           0       -1.000454   -0.568437   -0.025901
      2          1           0       -1.187534   -1.140766    0.875722
      3          1           0       -1.151262   -1.069173   -0.973602
      4          6           0       -0.584070    0.730720    0.028755
      5          1           0       -0.557028    1.335160   -0.867794
      6          1           0       -0.578105    1.270145    0.967592
      7          8           0        1.446946   -0.104943   -0.099153
      8          1           0        1.405501   -0.529518    0.774182
 ---------------------------------------------------------------------
 Rotational constants (GHZ):     24.2960804      8.5526006      7.0628349
 Standard basis: 6-31+G(d,p) (6D, 7F)
 There are    82 symmetry adapted basis functions of A   symmetry.
 Integral buffers will be    262144 words long.
 Raffenetti 2 integral format.
 Two-electron integral symmetry is turned on.
    82 basis functions,   131 primitive gaussians,    82 cartesian basis functions
    13 alpha electrons       12 beta electrons
       nuclear repulsion energy        68.4316296118 Hartrees.
 NAtoms=    8 NActive=    8 NUniq=    8 SFac= 7.50D-01 NAtFMM=   80 NAOKFM=F Big=F
 One-electron integrals computed using PRISM.
 NBasis=    82 RedAO= T  NBF=    82
 NBsUse=    82 1.00D-06 NBFU=    82
 Initial guess read from the checkpoint file:  D:\Documents\rayGit\FQ\quimicaComp
 utacional\p3Eteno\estadoDeTransicion\TSETHENEOHRADICALB3LYP.chk
 B after Tr=     0.000000    0.000000    0.000000
         Rot=    1.000000    0.000000    0.000000    0.000000 Ang=   0.00 deg.
 Initial guess orbital symmetries:
 Alpha Orbitals:
       Occupied  (A) (A) (A) (A) (A) (A) (A) (A) (A) (A) (A) (A)
                 (A)
       Virtual   (A) (A) (A) (A) (A) (A) (A) (A) (A) (A) (A) (A)
                 (A) (A) (A) (A) (A) (A) (A) (A) (A) (A) (A) (A)
                 (A) (A) (A) (A) (A) (A) (A) (A) (A) (A) (A) (A)
                 (A) (A) (A) (A) (A) (A) (A) (A) (A) (A) (A) (A)
                 (A) (A) (A) (A) (A) (A) (A) (A) (A) (A) (A) (A)
                 (A) (A) (A) (A) (A) (A) (A) (A) (A)
 Beta  Orbitals:
       Occupied  (A) (A) (A) (A) (A) (A) (A) (A) (A) (A) (A) (A)
       Virtual   (A) (A) (A) (A) (A) (A) (A) (A) (A) (A) (A) (A)
                 (A) (A) (A) (A) (A) (A) (A) (A) (A) (A) (A) (A)
                 (A) (A) (A) (A) (A) (A) (A) (A) (A) (A) (A) (A)
                 (A) (A) (A) (A) (A) (A) (A) (A) (A) (A) (A) (A)
                 (A) (A) (A) (A) (A) (A) (A) (A) (A) (A) (A) (A)
                 (A) (A) (A) (A) (A) (A) (A) (A) (A) (A)
 Initial guess <Sx>= 0.0000 <Sy>= 0.0000 <Sz>= 0.5000 <S**2>= 0.7630 S= 0.5065
 Requested convergence on RMS density matrix=1.00D-08 within 128 cycles.
 Requested convergence on MAX density matrix=1.00D-06.
 Requested convergence on             energy=1.00D-06.
 No special actions if energy rises.
 Keep R1 and R2 ints in memory in canonical form, NReq=12587911.
 SCF Done:  E(UB3LYP) =  -154.345446809     A.U. after    1 cycles
             Convg  =    0.1061D-08             -V/T =  2.0099
 <Sx>= 0.0000 <Sy>= 0.0000 <Sz>= 0.5000 <S**2>= 0.7630 S= 0.5065
 <L.S>= 0.000000000000E+00
 Annihilation of the first spin contaminant:
 S**2 before annihilation     0.7630,   after     0.7501

 **********************************************************************

            Population analysis using the SCF density.

 **********************************************************************

 Orbital symmetries:
 Alpha Orbitals:
       Occupied  (A) (A) (A) (A) (A) (A) (A) (A) (A) (A) (A) (A)
                 (A)
       Virtual   (A) (A) (A) (A) (A) (A) (A) (A) (A) (A) (A) (A)
                 (A) (A) (A) (A) (A) (A) (A) (A) (A) (A) (A) (A)
                 (A) (A) (A) (A) (A) (A) (A) (A) (A) (A) (A) (A)
                 (A) (A) (A) (A) (A) (A) (A) (A) (A) (A) (A) (A)
                 (A) (A) (A) (A) (A) (A) (A) (A) (A) (A) (A) (A)
                 (A) (A) (A) (A) (A) (A) (A) (A) (A)
 Beta  Orbitals:
       Occupied  (A) (A) (A) (A) (A) (A) (A) (A) (A) (A) (A) (A)
       Virtual   (A) (A) (A) (A) (A) (A) (A) (A) (A) (A) (A) (A)
                 (A) (A) (A) (A) (A) (A) (A) (A) (A) (A) (A) (A)
                 (A) (A) (A) (A) (A) (A) (A) (A) (A) (A) (A) (A)
                 (A) (A) (A) (A) (A) (A) (A) (A) (A) (A) (A) (A)
                 (A) (A) (A) (A) (A) (A) (A) (A) (A) (A) (A) (A)
                 (A) (A) (A) (A) (A) (A) (A) (A) (A) (A)
 The electronic state is 2-A.
 Alpha  occ. eigenvalues --  -19.17352 -10.23062 -10.22395  -0.97120  -0.78826
 Alpha  occ. eigenvalues --   -0.61108  -0.49627  -0.44640  -0.43326  -0.38413
 Alpha  occ. eigenvalues --   -0.38148  -0.30100  -0.25721
 Alpha virt. eigenvalues --   -0.02575   0.00983   0.02941   0.03633   0.04769
 Alpha virt. eigenvalues --    0.07671   0.08075   0.11178   0.12391   0.14666
 Alpha virt. eigenvalues --    0.17137   0.18909   0.21522   0.23882   0.25295
 Alpha virt. eigenvalues --    0.29893   0.31831   0.32506   0.34392   0.56410
 Alpha virt. eigenvalues --    0.61918   0.67794   0.68599   0.71847   0.86515
 Alpha virt. eigenvalues --    0.87637   0.89078   0.97488   0.99579   1.02205
 Alpha virt. eigenvalues --    1.09457   1.10911   1.16810   1.23415   1.24568
 Alpha virt. eigenvalues --    1.32612   1.39485   1.50364   1.52638   1.59826
 Alpha virt. eigenvalues --    1.60855   1.81305   1.82258   1.91470   1.96829
 Alpha virt. eigenvalues --    1.99414   2.03292   2.10079   2.20198   2.21111
 Alpha virt. eigenvalues --    2.39337   2.41742   2.45642   2.49189   2.58182
 Alpha virt. eigenvalues --    2.61043   2.66405   2.68329   2.71882   2.74921
 Alpha virt. eigenvalues --    2.98809   3.20169   3.33731   3.43170   3.46769
 Alpha virt. eigenvalues --    3.70300   4.04217   4.30480   4.50234
  Beta  occ. eigenvalues --  -19.15373 -10.23048 -10.21909  -0.92035  -0.77810
  Beta  occ. eigenvalues --   -0.60605  -0.49348  -0.44189  -0.41404  -0.38265
  Beta  occ. eigenvalues --   -0.31001  -0.27901
  Beta virt. eigenvalues --   -0.11971  -0.01075   0.01160   0.03000   0.03761
  Beta virt. eigenvalues --    0.05137   0.07793   0.08066   0.11515   0.12937
  Beta virt. eigenvalues --    0.14727   0.17599   0.19073   0.22365   0.24225
  Beta virt. eigenvalues --    0.25754   0.30040   0.32127   0.32623   0.34745
  Beta virt. eigenvalues --    0.56613   0.62086   0.68637   0.70086   0.72312
  Beta virt. eigenvalues --    0.87346   0.88003   0.89122   0.98161   1.00463
  Beta virt. eigenvalues --    1.02510   1.09813   1.11772   1.20594   1.24473
  Beta virt. eigenvalues --    1.25857   1.33969   1.40574   1.50917   1.54197
  Beta virt. eigenvalues --    1.60808   1.63035   1.83763   1.85157   1.91762
  Beta virt. eigenvalues --    1.98817   2.00789   2.03351   2.11704   2.20888
  Beta virt. eigenvalues --    2.21386   2.40249   2.42240   2.46630   2.50101
  Beta virt. eigenvalues --    2.58582   2.61701   2.66526   2.69912   2.72002
  Beta virt. eigenvalues --    2.75083   2.98955   3.20270   3.33867   3.44007
  Beta virt. eigenvalues --    3.46997   3.70504   4.06662   4.31261   4.50710
          Condensed to atoms (all electrons):
              1          2          3          4          5          6
     1  C    5.232589   0.382613   0.373407   0.294821  -0.015834  -0.021912
     2  H    0.382613   0.537088  -0.032726  -0.028836   0.004054  -0.007566
     3  H    0.373407  -0.032726   0.512970  -0.011580  -0.007287   0.004020
     4  C    0.294821  -0.028836  -0.011580   5.237678   0.381135   0.373577
     5  H   -0.015834   0.004054  -0.007287   0.381135   0.513420  -0.032340
     6  H   -0.021912  -0.007566   0.004020   0.373577  -0.032340   0.536663
     7  O   -0.027889  -0.003171  -0.002533   0.019098  -0.011366  -0.011579
     8  H    0.021213   0.000127  -0.000009  -0.005242   0.001068  -0.000739
              7          8
     1  C   -0.027889   0.021213
     2  H   -0.003171   0.000127
     3  H   -0.002533  -0.000009
     4  C    0.019098  -0.005242
     5  H   -0.011366   0.001068
     6  H   -0.011579  -0.000739
     7  O    8.278777   0.208455
     8  H    0.208455   0.464862
 Mulliken atomic charges:
              1
     1  C   -0.239006
     2  H    0.148418
     3  H    0.163739
     4  C   -0.260651
     5  H    0.167149
     6  H    0.159878
     7  O   -0.449791
     8  H    0.310265
 Sum of Mulliken atomic charges =   0.00000
 Mulliken charges with hydrogens summed into heavy atoms:
              1
     1  C    0.073150
     4  C    0.066376
     7  O   -0.139526
 Sum of Mulliken charges with hydrogens summed into heavy atoms =   0.00000
          Atomic-Atomic Spin Densities.
              1          2          3          4          5          6
     1  C    0.337194   0.003252   0.002610   0.082633  -0.002012  -0.003086
     2  H    0.003252  -0.015933   0.000681  -0.004250  -0.000007   0.000269
     3  H    0.002610   0.000681  -0.014707  -0.003598   0.000279  -0.000015
     4  C    0.082633  -0.004250  -0.003598  -0.040228   0.003463   0.004641
     5  H   -0.002012  -0.000007   0.000279   0.003463   0.002688   0.000383
     6  H   -0.003086   0.000269  -0.000015   0.004641   0.000383   0.000306
     7  O   -0.050465  -0.000681  -0.001139  -0.084093  -0.002559  -0.001774
     8  H   -0.000612   0.000112   0.000045   0.003297  -0.000011   0.000155
              7          8
     1  C   -0.050465  -0.000612
     2  H   -0.000681   0.000112
     3  H   -0.001139   0.000045
     4  C   -0.084093   0.003297
     5  H   -0.002559  -0.000011
     6  H   -0.001774   0.000155
     7  O    0.850741   0.005994
     8  H    0.005994  -0.027087
 Mulliken atomic spin densities:
              1
     1  C    0.369514
     2  H   -0.016557
     3  H   -0.015844
     4  C   -0.038134
     5  H    0.002223
     6  H    0.000880
     7  O    0.716023
     8  H   -0.018106
 Sum of Mulliken atomic spin densities =   1.00000
 Electronic spatial extent (au):  <R**2>=            206.6216
 Charge=              0.0000 electrons
 Dipole moment (field-independent basis, Debye):
    X=             -2.0771    Y=             -0.2468    Z=              1.4322  Tot=              2.5350
 Quadrupole moment (field-independent basis, Debye-Ang):
   XX=            -23.2155   YY=            -18.2341   ZZ=            -17.4399
   XY=             -0.3862   XZ=              2.3487   YZ=             -1.0727
 Traceless Quadrupole moment (field-independent basis, Debye-Ang):
   XX=             -3.5857   YY=              1.3957   ZZ=              2.1900
   XY=             -0.3862   XZ=              2.3487   YZ=             -1.0727
 Octapole moment (field-independent basis, Debye-Ang**2):
  XXX=              4.8811  YYY=              0.6028  ZZZ=              1.1380  XYY=             -0.4107
  XXY=             -3.0520  XXZ=              3.3996  XZZ=              1.2248  YZZ=             -0.3740
  YYZ=              0.5310  XYZ=             -1.6377
 Hexadecapole moment (field-independent basis, Debye-Ang**3):
 XXXX=           -175.2988 YYYY=            -73.8241 ZZZZ=            -34.0271 XXXY=             -1.8963
 XXXZ=              5.5353 YYYX=             -0.5802 YYYZ=             -1.3360 ZZZX=              2.4335
 ZZZY=             -1.0245 XXYY=            -39.4376 XXZZ=            -30.8140 YYZZ=            -15.2262
 XXYZ=             -2.5061 YYXZ=              1.0832 ZZXY=             -0.2035
 N-N= 6.843162961183D+01 E-N=-7.392841136531D+02  KE= 2.279315149195D+02
                          Isotropic Fermi Contact Couplings
        Atom                 a.u.       MegaHertz       Gauss      10(-4) cm-1
     1  C(13)              0.03651      41.04671      14.64649      13.69171
     2  H(1)              -0.00504     -22.54216      -8.04360      -7.51925
     3  H(1)              -0.00485     -21.67841      -7.73539      -7.23114
     4  C(13)              0.01828      20.54630       7.33143       6.85351
     5  H(1)               0.00092       4.10560       1.46498       1.36948
     6  H(1)               0.00012       0.54395       0.19409       0.18144
     7  O(17)              0.13591     -82.38989     -29.39876     -27.48231
     8  H(1)              -0.01112     -49.72110     -17.74172     -16.58517
 --------------------------------------------------------
       Center         ----  Spin Dipole Couplings  ----
                      3XX-RR        3YY-RR        3ZZ-RR
 --------------------------------------------------------
     1   Atom        0.353755     -0.162166     -0.191590
     2   Atom        0.002914     -0.009851      0.006936
     3   Atom        0.002960     -0.013807      0.010847
     4   Atom        0.000119      0.019121     -0.019240
     5   Atom        0.000523      0.006693     -0.007217
     6   Atom        0.000440      0.004834     -0.005274
     7   Atom        2.761730     -1.357514     -1.404217
     8   Atom       -0.034419     -0.056317      0.090735
 --------------------------------------------------------
                        XY            XZ            YZ
 --------------------------------------------------------
     1   Atom       -0.116839     -0.000674      0.000014
     2   Atom        0.002887     -0.011053     -0.023567
     3   Atom        0.002470      0.011370      0.021528
     4   Atom       -0.025499     -0.004911      0.002501
     5   Atom       -0.006400      0.005170     -0.008059
     6   Atom       -0.004671     -0.005227      0.008901
     7   Atom       -0.347813     -0.028558      0.003199
     8   Atom       -0.006536      0.004745     -0.093561
 --------------------------------------------------------


 ---------------------------------------------------------------------------------
              Anisotropic Spin Dipole Couplings in Principal Axis System
 ---------------------------------------------------------------------------------

       Atom             a.u.   MegaHertz   Gauss  10(-4) cm-1        Axes

              Baa    -0.1916   -25.710    -9.174    -8.576  0.0076  0.0297  0.9995
     1 C(13)  Bbb    -0.1874   -25.146    -8.973    -8.388  0.2109  0.9770 -0.0307
              Bcc     0.3790    50.856    18.147    16.964  0.9775 -0.2110 -0.0012
 
              Baa    -0.0271   -14.435    -5.151    -4.815  0.1432  0.7909  0.5949
     2 H(1)   Bbb    -0.0011    -0.583    -0.208    -0.194  0.9079 -0.3443  0.2392
              Bcc     0.0281    15.018     5.359     5.009 -0.3940 -0.5059  0.7674
 
              Baa    -0.0268   -14.274    -5.093    -4.761  0.1296  0.8431 -0.5219
     3 H(1)   Bbb    -0.0015    -0.786    -0.281    -0.262  0.9053 -0.3153 -0.2845
              Bcc     0.0282    15.061     5.374     5.024  0.4045  0.4356  0.8041
 
              Baa    -0.0214    -2.874    -1.026    -0.959  0.5004  0.2638  0.8246
     4 C(13)  Bbb    -0.0158    -2.124    -0.758    -0.709  0.6502  0.5144 -0.5591
              Bcc     0.0372     4.999     1.784     1.667 -0.5717  0.8160  0.0858
 
              Baa    -0.0114    -6.066    -2.164    -2.023 -0.2206  0.3312  0.9174
     5 H(1)   Bbb    -0.0035    -1.865    -0.665    -0.622  0.8436  0.5370  0.0090
              Bcc     0.0149     7.931     2.830     2.645 -0.4896  0.7759 -0.3978
 
              Baa    -0.0110    -5.848    -2.087    -1.951  0.2267 -0.4264  0.8757
     6 H(1)   Bbb    -0.0025    -1.342    -0.479    -0.448  0.8583  0.5125  0.0273
              Bcc     0.0135     7.191     2.566     2.399 -0.4604  0.7454  0.4821
 
              Baa    -1.4044   101.625    36.262    33.898  0.0030 -0.0455  0.9990
     7 O(17)  Bbb    -1.3866   100.336    35.802    33.469  0.0838  0.9955  0.0451
              Bcc     2.7911  -201.961   -72.065   -67.367  0.9965 -0.0835 -0.0068
 
              Baa    -0.1020   -54.423   -19.419   -18.153  0.0564  0.8987  0.4349
     8 H(1)   Bbb    -0.0345   -18.408    -6.568    -6.140  0.9975 -0.0325 -0.0621
              Bcc     0.1365    72.831    25.988    24.294  0.0417 -0.4373  0.8983
 

 ---------------------------------------------------------------------------------

 Calling FoFJK, ICntrl=      2127 FMM=F ISym2X=0 I1Cent= 0 IOpClX= 1 NMat=1 NMatS=1 NMatT=0.
 ***** Axes restored to original set *****
 -------------------------------------------------------------------
 Center     Atomic                   Forces (Hartrees/Bohr)
 Number     Number              X              Y              Z
 -------------------------------------------------------------------
      1        6           0.003312294    0.006508430    0.004591457
      2        1           0.000585723   -0.001392613   -0.001037627
      3        1          -0.001177965   -0.000019088   -0.001763104
      4        6          -0.007408173   -0.011888501    0.005691792
      5        1          -0.000066537    0.003646819   -0.005946048
      6        1           0.003439232    0.001386226   -0.004753947
      7        8          -0.000665653    0.002661958    0.005653487
      8        1           0.001981078   -0.000903231   -0.002436010
 -------------------------------------------------------------------
 Cartesian Forces:  Max     0.011888501 RMS     0.004311114

 GradGradGradGradGradGradGradGradGradGradGradGradGradGradGradGradGradGrad
 Berny optimization.
 Internal  Forces:  Max     0.006889489 RMS     0.002638796
 Search for a saddle point.
 Step number   1 out of a maximum of   38
 All quantities printed in internal units (Hartrees-Bohrs-Radians)
 Swaping is turned off.
 Second derivative matrix not updated -- first step.
     Eigenvalues ---   -0.04792   0.00354   0.00775   0.01621   0.01812
     Eigenvalues ---    0.02678   0.02733   0.05654   0.09272   0.09634
     Eigenvalues ---    0.14051   0.16018   0.29606   0.39549   0.39878
     Eigenvalues ---    0.39952   0.40009   0.515711000.000001000.00000
     Eigenvalues --- 1000.000001000.000001000.000001000.000001000.00000
     Eigenvalues --- 1000.000001000.000001000.00000
 Eigenvectors required to have negative eigenvalues:
                          R8        R5        A11       R3        R4
   1                    0.83577  -0.20950   0.20230  -0.17092  -0.16927
                          A12       A3        R9        A13       A4
   1                    0.16815  -0.15482   0.15228   0.14434  -0.14176
 RFO step:  Lambda0=8.494740447D-04 Lambda=-2.93752458D-03.
 Linear search not attempted -- option 19 set.
 Maximum step size (   0.030) exceeded in Quadratic search.
    -- Step size scaled by   0.063
 Iteration  1 RMS(Cart)=  0.00305026 RMS(Int)=  0.00001722
 Iteration  2 RMS(Cart)=  0.00001284 RMS(Int)=  0.00001199
 Iteration  3 RMS(Cart)=  0.00000000 RMS(Int)=  0.00001199
 Variable       Old X    -DE/DX   Delta X   Delta X   Delta X     New X
                                 (Linear)    (Quad)   (Total)
    R1        2.04884   0.00158   0.00000   0.00030   0.00030   2.04914
    R2        2.04546   0.00141   0.00000   0.00026   0.00026   2.04572
    R3        2.58013  -0.00689   0.00000  -0.00212  -0.00212   2.57801
    R4        4.70916   0.00109   0.00000   0.00238   0.00238   4.71154
    R5        4.79196   0.00135   0.00000   0.00912   0.00912   4.80108
    R6        2.04395   0.00179   0.00000   0.00024   0.00024   2.04419
    R7        2.04617   0.00199   0.00000   0.00031   0.00031   2.04648
    R8        4.15728  -0.00603   0.00000   0.01332   0.01331   4.17059
    R9        4.66814   0.00074   0.00000   0.01381   0.01381   4.68195
   R10        1.83673   0.00225   0.00000   0.00032   0.00032   1.83705
    A1        2.04864  -0.00034   0.00000  -0.00050  -0.00050   2.04813
    A2        2.11955   0.00018   0.00000   0.00025   0.00024   2.11980
    A3        1.86721   0.00050   0.00000   0.00001   0.00001   1.86722
    A4        1.48011  -0.00015   0.00000   0.00064   0.00064   1.48075
    A5        2.11498   0.00015   0.00000   0.00025   0.00026   2.11524
    A6        1.76924   0.00061   0.00000  -0.00449  -0.00450   1.76474
    A7        1.99933  -0.00173   0.00000  -0.00394  -0.00394   1.99539
    A8        2.10155   0.00119   0.00000   0.00169   0.00165   2.10320
    A9        2.10647   0.00142   0.00000   0.00158   0.00155   2.10801
   A10        2.02658  -0.00105   0.00000   0.00124   0.00120   2.02778
   A11        1.71227  -0.00429   0.00000  -0.00732  -0.00731   1.70495
   A12        2.11191  -0.00364   0.00000  -0.00889  -0.00889   2.10302
   A13        1.80757  -0.00436   0.00000  -0.00272  -0.00272   1.80484
   A14        1.55887  -0.00157   0.00000  -0.00324  -0.00324   1.55563
    D1       -2.96684  -0.00347   0.00000  -0.00802  -0.00802  -2.97487
    D2       -0.16780   0.00166   0.00000   0.00760   0.00760  -0.16020
    D3        0.18095  -0.00170   0.00000  -0.00736  -0.00737   0.17358
    D4        2.97999   0.00343   0.00000   0.00825   0.00826   2.98824
         Item               Value     Threshold  Converged?
 Maximum Force            0.006889     0.000450     NO 
 RMS     Force            0.002639     0.000300     NO 
 Maximum Displacement     0.009562     0.001800     NO 
 RMS     Displacement     0.003052     0.001200     NO 
 Predicted change in Energy=-1.283583D-04
 GradGradGradGradGradGradGradGradGradGradGradGradGradGradGradGradGradGrad

                          Input orientation:                          
 ---------------------------------------------------------------------
 Center     Atomic      Atomic             Coordinates (Angstroms)
 Number     Number       Type             X           Y           Z
 ---------------------------------------------------------------------
      1          6           0       -0.461603    0.767094    0.658548
      2          1           0        0.054215   -0.183281    0.577595
      3          1           0       -1.533475    0.765705    0.506888
      4          6           0        0.211742    1.921463    0.932669
      5          1           0       -0.327733    2.830631    1.161884
      6          1           0        1.255134    1.899131    1.221837
      7          8           0        0.293146    2.171001   -1.258648
      8          1           0        0.885390    1.412557   -1.396629
 ---------------------------------------------------------------------
                    Distance matrix (angstroms):
                    1          2          3          4          5
     1  C    0.000000
     2  H    1.084358   0.000000
     3  H    1.082550   1.851036   0.000000
     4  C    1.364223   2.140290   2.136083   0.000000
     5  H    2.128251   3.093694   2.479265   1.081738   0.000000
     6  H    2.132132   2.488714   3.093889   1.082952   1.837595
     7  O    2.493239   2.995250   2.903191   2.206981   2.584488
     8  H    2.540623   2.671164   3.145267   2.477583   3.166795
                    6          7          8
     6  H    0.000000
     7  O    2.674349   0.000000
     8  H    2.688835   0.972126   0.000000
 Stoichiometry    C2H5O(2)
 Framework group  C1[X(C2H5O)]
 Deg. of freedom    18
 Full point group                 C1      NOp   1
 Largest Abelian subgroup         C1      NOp   1
 Largest concise Abelian subgroup C1      NOp   1
                         Standard orientation:                         
 ---------------------------------------------------------------------
 Center     Atomic      Atomic             Coordinates (Angstroms)
 Number     Number       Type             X           Y           Z
 ---------------------------------------------------------------------
      1          6           0       -0.998715   -0.570430   -0.025842
      2          1           0       -1.185041   -1.142943    0.876014
      3          1           0       -1.143314   -1.073822   -0.973260
      4          6           0       -0.590620    0.730203    0.028176
      5          1           0       -0.556978    1.332876   -0.869494
      6          1           0       -0.583365    1.270236    0.966843
      7          8           0        1.449181   -0.102765   -0.098883
      8          1           0        1.411266   -0.522869    0.776961
 ---------------------------------------------------------------------
 Rotational constants (GHZ):     24.2755554      8.5298235      7.0464929
 Standard basis: 6-31+G(d,p) (6D, 7F)
 There are    82 symmetry adapted basis functions of A   symmetry.
 Integral buffers will be    262144 words long.
 Raffenetti 2 integral format.
 Two-electron integral symmetry is turned on.
    82 basis functions,   131 primitive gaussians,    82 cartesian basis functions
    13 alpha electrons       12 beta electrons
       nuclear repulsion energy        68.3909539771 Hartrees.
 NAtoms=    8 NActive=    8 NUniq=    8 SFac= 7.50D-01 NAtFMM=   80 NAOKFM=F Big=F
 One-electron integrals computed using PRISM.
 NBasis=    82 RedAO= T  NBF=    82
 NBsUse=    82 1.00D-06 NBFU=    82
 Initial guess read from the read-write file.
 B after Tr=     0.000000    0.000000    0.000000
         Rot=    1.000000    0.000000    0.000000    0.000000 Ang=   0.00 deg.
 Initial guess orbital symmetries:
 Alpha Orbitals:
       Occupied  (A) (A) (A) (A) (A) (A) (A) (A) (A) (A) (A) (A)
                 (A)
       Virtual   (A) (A) (A) (A) (A) (A) (A) (A) (A) (A) (A) (A)
                 (A) (A) (A) (A) (A) (A) (A) (A) (A) (A) (A) (A)
                 (A) (A) (A) (A) (A) (A) (A) (A) (A) (A) (A) (A)
                 (A) (A) (A) (A) (A) (A) (A) (A) (A) (A) (A) (A)
                 (A) (A) (A) (A) (A) (A) (A) (A) (A) (A) (A) (A)
                 (A) (A) (A) (A) (A) (A) (A) (A) (A)
 Beta  Orbitals:
       Occupied  (A) (A) (A) (A) (A) (A) (A) (A) (A) (A) (A) (A)
       Virtual   (A) (A) (A) (A) (A) (A) (A) (A) (A) (A) (A) (A)
                 (A) (A) (A) (A) (A) (A) (A) (A) (A) (A) (A) (A)
                 (A) (A) (A) (A) (A) (A) (A) (A) (A) (A) (A) (A)
                 (A) (A) (A) (A) (A) (A) (A) (A) (A) (A) (A) (A)
                 (A) (A) (A) (A) (A) (A) (A) (A) (A) (A) (A) (A)
                 (A) (A) (A) (A) (A) (A) (A) (A) (A) (A)
 Initial guess <Sx>= 0.0000 <Sy>= 0.0000 <Sz>= 0.5000 <S**2>= 0.7630 S= 0.5065
 Requested convergence on RMS density matrix=1.00D-08 within 128 cycles.
 Requested convergence on MAX density matrix=1.00D-06.
 Requested convergence on             energy=1.00D-06.
 No special actions if energy rises.
 Keep R1 and R2 ints in memory in canonical form, NReq=12587911.
 SCF Done:  E(UB3LYP) =  -154.345575081     A.U. after   13 cycles
             Convg  =    0.9710D-08             -V/T =  2.0099
 <Sx>= 0.0000 <Sy>= 0.0000 <Sz>= 0.5000 <S**2>= 0.7625 S= 0.5062
 <L.S>= 0.000000000000E+00
 Annihilation of the first spin contaminant:
 S**2 before annihilation     0.7625,   after     0.7500
 Calling FoFJK, ICntrl=      2127 FMM=F ISym2X=0 I1Cent= 0 IOpClX= 1 NMat=1 NMatS=1 NMatT=0.
 ***** Axes restored to original set *****
 -------------------------------------------------------------------
 Center     Atomic                   Forces (Hartrees/Bohr)
 Number     Number              X              Y              Z
 -------------------------------------------------------------------
      1        6           0.003078238    0.006059165    0.004350934
      2        1           0.000548779   -0.001305153   -0.000969026
      3        1          -0.001097329   -0.000009236   -0.001668237
      4        6          -0.006989329   -0.011143704    0.005487514
      5        1          -0.000020476    0.003409660   -0.005648970
      6        1           0.003216699    0.001318013   -0.004502631
      7        8          -0.000626711    0.002499413    0.005301755
      8        1           0.001890129   -0.000828158   -0.002351341
 -------------------------------------------------------------------
 Cartesian Forces:  Max     0.011143704 RMS     0.004060105

 GradGradGradGradGradGradGradGradGradGradGradGradGradGradGradGradGradGrad
 Berny optimization.
 Internal  Forces:  Max     0.006441108 RMS     0.002481568
 Search for a saddle point.
 Step number   2 out of a maximum of   38
 All quantities printed in internal units (Hartrees-Bohrs-Radians)
 Swaping is turned off.
 Update second derivatives using D2CorX and points    1    2
     Eigenvalues ---   -0.04743   0.00341   0.00775   0.01617   0.01810
     Eigenvalues ---    0.02666   0.02735   0.05651   0.09260   0.09632
     Eigenvalues ---    0.14026   0.16008   0.29604   0.39549   0.39878
     Eigenvalues ---    0.39952   0.40009   0.515681000.000001000.00000
     Eigenvalues --- 1000.000001000.000001000.000001000.000001000.00000
     Eigenvalues --- 1000.000001000.000001000.00000
 Eigenvectors required to have negative eigenvalues:
                          R8        R5        A11       A12       R4
   1                    0.83167  -0.21584   0.20777   0.17310  -0.17201
                          R3        A3        A13       R9        A4
   1                   -0.17096  -0.15689   0.14563   0.14550  -0.14294
 RFO step:  Lambda0=7.831737726D-04 Lambda=-2.65673554D-03.
 Linear search not attempted -- option 19 set.
 Maximum step size (   0.030) exceeded in Quadratic search.
    -- Step size scaled by   0.064
 Iteration  1 RMS(Cart)=  0.00310983 RMS(Int)=  0.00001683
 Iteration  2 RMS(Cart)=  0.00001261 RMS(Int)=  0.00001151
 Iteration  3 RMS(Cart)=  0.00000000 RMS(Int)=  0.00001151
 Variable       Old X    -DE/DX   Delta X   Delta X   Delta X     New X
                                 (Linear)    (Quad)   (Total)
    R1        2.04914   0.00148   0.00000   0.00029   0.00029   2.04943
    R2        2.04572   0.00132   0.00000   0.00025   0.00025   2.04597
    R3        2.57801  -0.00644   0.00000  -0.00203  -0.00203   2.57598
    R4        4.71154   0.00104   0.00000   0.00234   0.00234   4.71388
    R5        4.80108   0.00130   0.00000   0.00934   0.00934   4.81042
    R6        2.04419   0.00168   0.00000   0.00023   0.00023   2.04442
    R7        2.04648   0.00187   0.00000   0.00030   0.00030   2.04679
    R8        4.17059  -0.00566   0.00000   0.01355   0.01355   4.18414
    R9        4.68195   0.00073   0.00000   0.01402   0.01402   4.69597
   R10        1.83705   0.00211   0.00000   0.00032   0.00032   1.83737
    A1        2.04813  -0.00031   0.00000  -0.00048  -0.00049   2.04765
    A2        2.11980   0.00017   0.00000   0.00024   0.00024   2.12003
    A3        1.86722   0.00048   0.00000   0.00005   0.00005   1.86727
    A4        1.48075  -0.00014   0.00000   0.00071   0.00071   1.48146
    A5        2.11524   0.00014   0.00000   0.00024   0.00024   2.11548
    A6        1.76474   0.00056   0.00000  -0.00456  -0.00456   1.76017
    A7        1.99539  -0.00164   0.00000  -0.00392  -0.00392   1.99147
    A8        2.10320   0.00110   0.00000   0.00159   0.00155   2.10476
    A9        2.10801   0.00131   0.00000   0.00148   0.00145   2.10947
   A10        2.02778  -0.00100   0.00000   0.00114   0.00110   2.02888
   A11        1.70495  -0.00405   0.00000  -0.00717  -0.00716   1.69779
   A12        2.10302  -0.00344   0.00000  -0.00879  -0.00878   2.09423
   A13        1.80484  -0.00408   0.00000  -0.00246  -0.00246   1.80238
   A14        1.55563  -0.00148   0.00000  -0.00309  -0.00310   1.55254
    D1       -2.97487  -0.00328   0.00000  -0.00782  -0.00783  -2.98270
    D2       -0.16020   0.00158   0.00000   0.00750   0.00751  -0.15269
    D3        0.17358  -0.00162   0.00000  -0.00729  -0.00730   0.16628
    D4        2.98824   0.00325   0.00000   0.00804   0.00804   2.99628
         Item               Value     Threshold  Converged?
 Maximum Force            0.006441     0.000450     NO 
 RMS     Force            0.002482     0.000300     NO 
 Maximum Displacement     0.009547     0.001800     NO 
 RMS     Displacement     0.003112     0.001200     NO 
 Predicted change in Energy=-1.167058D-04
 GradGradGradGradGradGradGradGradGradGradGradGradGradGradGradGradGradGrad

                          Input orientation:                          
 ---------------------------------------------------------------------
 Center     Atomic      Atomic             Coordinates (Angstroms)
 Number     Number       Type             X           Y           Z
 ---------------------------------------------------------------------
      1          6           0       -0.461447    0.767152    0.660011
      2          1           0        0.053921   -0.183627    0.578889
      3          1           0       -1.532940    0.766425    0.504779
      4          6           0        0.211227    1.919784    0.937721
      5          1           0       -0.327037    2.831526    1.160037
      6          1           0        1.255807    1.898484    1.223259
      7          8           0        0.290365    2.169833   -1.260844
      8          1           0        0.886921    1.414723   -1.399711
 ---------------------------------------------------------------------
                    Distance matrix (angstroms):
                    1          2          3          4          5
     1  C    0.000000
     2  H    1.084512   0.000000
     3  H    1.082680   1.851005   0.000000
     4  C    1.363148   2.139590   2.135368   0.000000
     5  H    2.128316   3.094190   2.479558   1.081862   0.000000
     6  H    2.132163   2.488962   3.094330   1.083112   1.838466
     7  O    2.494477   2.996548   2.900244   2.214153   2.584509
     8  H    2.545565   2.676467   3.146919   2.485003   3.167544
                    6          7          8
     6  H    0.000000
     7  O    2.678895   0.000000
     8  H    2.692596   0.972293   0.000000
 Stoichiometry    C2H5O(2)
 Framework group  C1[X(C2H5O)]
 Deg. of freedom    18
 Full point group                 C1      NOp   1
 Largest Abelian subgroup         C1      NOp   1
 Largest concise Abelian subgroup C1      NOp   1
                         Standard orientation:                         
 ---------------------------------------------------------------------
 Center     Atomic      Atomic             Coordinates (Angstroms)
 Number     Number       Type             X           Y           Z
 ---------------------------------------------------------------------
      1          6           0       -0.996872   -0.572521   -0.025770
      2          1           0       -1.182444   -1.145188    0.876329
      3          1           0       -1.135146   -1.078559   -0.972871
      4          6           0       -0.597289    0.729654    0.027562
      5          1           0       -0.557232    1.330565   -0.871174
      6          1           0       -0.589068    1.270343    0.966030
      7          8           0        1.451459   -0.100518   -0.098615
      8          1           0        1.417182   -0.515818    0.779852
 ---------------------------------------------------------------------
 Rotational constants (GHZ):     24.2540412      8.5067083      7.0298220
 Standard basis: 6-31+G(d,p) (6D, 7F)
 There are    82 symmetry adapted basis functions of A   symmetry.
 Integral buffers will be    262144 words long.
 Raffenetti 2 integral format.
 Two-electron integral symmetry is turned on.
    82 basis functions,   131 primitive gaussians,    82 cartesian basis functions
    13 alpha electrons       12 beta electrons
       nuclear repulsion energy        68.3491467491 Hartrees.
 NAtoms=    8 NActive=    8 NUniq=    8 SFac= 7.50D-01 NAtFMM=   80 NAOKFM=F Big=F
 One-electron integrals computed using PRISM.
 NBasis=    82 RedAO= T  NBF=    82
 NBsUse=    82 1.00D-06 NBFU=    82
 Initial guess read from the read-write file.
 B after Tr=     0.000000    0.000000    0.000000
         Rot=    1.000000    0.000000    0.000000    0.000000 Ang=   0.00 deg.
 Initial guess orbital symmetries:
 Alpha Orbitals:
       Occupied  (A) (A) (A) (A) (A) (A) (A) (A) (A) (A) (A) (A)
                 (A)
       Virtual   (A) (A) (A) (A) (A) (A) (A) (A) (A) (A) (A) (A)
                 (A) (A) (A) (A) (A) (A) (A) (A) (A) (A) (A) (A)
                 (A) (A) (A) (A) (A) (A) (A) (A) (A) (A) (A) (A)
                 (A) (A) (A) (A) (A) (A) (A) (A) (A) (A) (A) (A)
                 (A) (A) (A) (A) (A) (A) (A) (A) (A) (A) (A) (A)
                 (A) (A) (A) (A) (A) (A) (A) (A) (A)
 Beta  Orbitals:
       Occupied  (A) (A) (A) (A) (A) (A) (A) (A) (A) (A) (A) (A)
       Virtual   (A) (A) (A) (A) (A) (A) (A) (A) (A) (A) (A) (A)
                 (A) (A) (A) (A) (A) (A) (A) (A) (A) (A) (A) (A)
                 (A) (A) (A) (A) (A) (A) (A) (A) (A) (A) (A) (A)
                 (A) (A) (A) (A) (A) (A) (A) (A) (A) (A) (A) (A)
                 (A) (A) (A) (A) (A) (A) (A) (A) (A) (A) (A) (A)
                 (A) (A) (A) (A) (A) (A) (A) (A) (A) (A)
 Initial guess <Sx>= 0.0000 <Sy>= 0.0000 <Sz>= 0.5000 <S**2>= 0.7625 S= 0.5062
 Requested convergence on RMS density matrix=1.00D-08 within 128 cycles.
 Requested convergence on MAX density matrix=1.00D-06.
 Requested convergence on             energy=1.00D-06.
 No special actions if energy rises.
 Keep R1 and R2 ints in memory in canonical form, NReq=12587911.
 SCF Done:  E(UB3LYP) =  -154.345691699     A.U. after   13 cycles
             Convg  =    0.9934D-08             -V/T =  2.0099
 <Sx>= 0.0000 <Sy>= 0.0000 <Sz>= 0.5000 <S**2>= 0.7620 S= 0.5060
 <L.S>= 0.000000000000E+00
 Annihilation of the first spin contaminant:
 S**2 before annihilation     0.7620,   after     0.7500
 Calling FoFJK, ICntrl=      2127 FMM=F ISym2X=0 I1Cent= 0 IOpClX= 1 NMat=1 NMatS=1 NMatT=0.
 ***** Axes restored to original set *****
 -------------------------------------------------------------------
 Center     Atomic                   Forces (Hartrees/Bohr)
 Number     Number              X              Y              Z
 -------------------------------------------------------------------
      1        6           0.002856704    0.005633319    0.004117641
      2        1           0.000513769   -0.001221971   -0.000903712
      3        1          -0.001021157   -0.000000413   -0.001576391
      4        6          -0.006586266   -0.010431541    0.005274905
      5        1           0.000019875    0.003183797   -0.005358364
      6        1           0.003005551    0.001250856   -0.004257407
      7        8          -0.000589668    0.002343181    0.004968757
      8        1           0.001801192   -0.000757228   -0.002265429
 -------------------------------------------------------------------
 Cartesian Forces:  Max     0.010431541 RMS     0.003818929

 GradGradGradGradGradGradGradGradGradGradGradGradGradGradGradGradGradGrad
 Berny optimization.
 Internal  Forces:  Max     0.006013796 RMS     0.002331037
 Search for a saddle point.
 Step number   3 out of a maximum of   38
 All quantities printed in internal units (Hartrees-Bohrs-Radians)
 Swaping is turned off.
 Update second derivatives using D2CorX and points    1    2    3
     Eigenvalues ---   -0.04684   0.00328   0.00775   0.01614   0.01808
     Eigenvalues ---    0.02653   0.02737   0.05649   0.09248   0.09629
     Eigenvalues ---    0.14003   0.15998   0.29604   0.39549   0.39878
     Eigenvalues ---    0.39952   0.40009   0.515661000.000001000.00000
     Eigenvalues --- 1000.000001000.000001000.000001000.000001000.00000
     Eigenvalues --- 1000.000001000.000001000.00000
 Eigenvectors required to have negative eigenvalues:
                          R8        R5        A11       A12       R4
   1                    0.82730  -0.22223   0.21322   0.17797  -0.17499
                          R3        A3        A13       A4        R9
   1                   -0.17079  -0.15901   0.14690  -0.14411   0.13885
 RFO step:  Lambda0=7.223364463D-04 Lambda=-2.39464144D-03.
 Linear search not attempted -- option 19 set.
 Maximum step size (   0.030) exceeded in Quadratic search.
    -- Step size scaled by   0.065
 Iteration  1 RMS(Cart)=  0.00317598 RMS(Int)=  0.00001651
 Iteration  2 RMS(Cart)=  0.00001244 RMS(Int)=  0.00001103
 Iteration  3 RMS(Cart)=  0.00000000 RMS(Int)=  0.00001103
 Variable       Old X    -DE/DX   Delta X   Delta X   Delta X     New X
                                 (Linear)    (Quad)   (Total)
    R1        2.04943   0.00138   0.00000   0.00028   0.00028   2.04971
    R2        2.04597   0.00123   0.00000   0.00023   0.00023   2.04620
    R3        2.57598  -0.00601   0.00000  -0.00194  -0.00194   2.57403
    R4        4.71388   0.00099   0.00000   0.00227   0.00227   4.71615
    R5        4.81042   0.00125   0.00000   0.00954   0.00954   4.81996
    R6        2.04442   0.00157   0.00000   0.00023   0.00023   2.04465
    R7        2.04679   0.00175   0.00000   0.00030   0.00030   2.04708
    R8        4.18414  -0.00532   0.00000   0.01380   0.01380   4.19794
    R9        4.69597   0.00072   0.00000   0.01423   0.01423   4.71020
   R10        1.83737   0.00197   0.00000   0.00031   0.00031   1.83768
    A1        2.04765  -0.00029   0.00000  -0.00047  -0.00047   2.04718
    A2        2.12003   0.00015   0.00000   0.00023   0.00023   2.12026
    A3        1.86727   0.00047   0.00000   0.00008   0.00008   1.86735
    A4        1.48146  -0.00012   0.00000   0.00077   0.00078   1.48224
    A5        2.11548   0.00013   0.00000   0.00023   0.00023   2.11572
    A6        1.76017   0.00052   0.00000  -0.00463  -0.00464   1.75554
    A7        1.99147  -0.00155   0.00000  -0.00389  -0.00390   1.98758
    A8        2.10476   0.00101   0.00000   0.00149   0.00146   2.10622
    A9        2.10947   0.00120   0.00000   0.00139   0.00136   2.11083
   A10        2.02888  -0.00095   0.00000   0.00104   0.00100   2.02989
   A11        1.69779  -0.00383   0.00000  -0.00700  -0.00700   1.69080
   A12        2.09423  -0.00324   0.00000  -0.00867  -0.00867   2.08556
   A13        1.80238  -0.00382   0.00000  -0.00219  -0.00219   1.80019
   A14        1.55254  -0.00140   0.00000  -0.00295  -0.00295   1.54958
    D1       -2.98270  -0.00310   0.00000  -0.00763  -0.00764  -2.99034
    D2       -0.15269   0.00150   0.00000   0.00740   0.00741  -0.14528
    D3        0.16628  -0.00154   0.00000  -0.00722  -0.00723   0.15905
    D4        2.99628   0.00307   0.00000   0.00782   0.00782   3.00410
         Item               Value     Threshold  Converged?
 Maximum Force            0.006014     0.000450     NO 
 RMS     Force            0.002331     0.000300     NO 
 Maximum Displacement     0.009537     0.001800     NO 
 RMS     Displacement     0.003179     0.001200     NO 
 Predicted change in Energy=-1.056519D-04
 GradGradGradGradGradGradGradGradGradGradGradGradGradGradGradGradGradGrad

                          Input orientation:                          
 ---------------------------------------------------------------------
 Center     Atomic      Atomic             Coordinates (Angstroms)
 Number     Number       Type             X           Y           Z
 ---------------------------------------------------------------------
      1          6           0       -0.461280    0.767235    0.661439
      2          1           0        0.053623   -0.183955    0.580218
      3          1           0       -1.532378    0.767194    0.502653
      4          6           0        0.210741    1.918153    0.942768
      5          1           0       -0.326301    2.832385    1.158293
      6          1           0        1.256437    1.897803    1.224863
      7          8           0        0.287433    2.168518   -1.263201
      8          1           0        0.888541    1.416967   -1.402889
 ---------------------------------------------------------------------
                    Distance matrix (angstroms):
                    1          2          3          4          5
     1  C    0.000000
     2  H    1.084659   0.000000
     3  H    1.082803   1.850972   0.000000
     4  C    1.362119   2.138922   2.134682   0.000000
     5  H    2.128363   3.094644   2.479818   1.081982   0.000000
     6  H    2.132178   2.489186   3.094729   1.083269   1.839276
     7  O    2.495677   2.997831   2.897181   2.221455   2.584767
     8  H    2.550612   2.681931   3.148673   2.492530   3.168423
                    6          7          8
     6  H    0.000000
     7  O    2.683788   0.000000
     8  H    2.696596   0.972457   0.000000
 Stoichiometry    C2H5O(2)
 Framework group  C1[X(C2H5O)]
 Deg. of freedom    18
 Full point group                 C1      NOp   1
 Largest Abelian subgroup         C1      NOp   1
 Largest concise Abelian subgroup C1      NOp   1
                         Standard orientation:                         
 ---------------------------------------------------------------------
 Center     Atomic      Atomic             Coordinates (Angstroms)
 Number     Number       Type             X           Y           Z
 ---------------------------------------------------------------------
      1          6           0       -0.994906   -0.574719   -0.025683
      2          1           0       -1.179712   -1.147513    0.876668
      3          1           0       -1.126731   -1.083392   -0.972434
      4          6           0       -0.604088    0.729069    0.026914
      5          1           0       -0.557816    1.328229   -0.872838
      6          1           0       -0.595239    1.270464    0.965149
      7          8           0        1.453777   -0.098195   -0.098348
      8          1           0        1.423248   -0.508332    0.782860
 ---------------------------------------------------------------------
 Rotational constants (GHZ):     24.2315008      8.4833136      7.0128615
 Standard basis: 6-31+G(d,p) (6D, 7F)
 There are    82 symmetry adapted basis functions of A   symmetry.
 Integral buffers will be    262144 words long.
 Raffenetti 2 integral format.
 Two-electron integral symmetry is turned on.
    82 basis functions,   131 primitive gaussians,    82 cartesian basis functions
    13 alpha electrons       12 beta electrons
       nuclear repulsion energy        68.3063026240 Hartrees.
 NAtoms=    8 NActive=    8 NUniq=    8 SFac= 7.50D-01 NAtFMM=   80 NAOKFM=F Big=F
 One-electron integrals computed using PRISM.
 NBasis=    82 RedAO= T  NBF=    82
 NBsUse=    82 1.00D-06 NBFU=    82
 Initial guess read from the read-write file.
 B after Tr=     0.000000    0.000000    0.000000
         Rot=    1.000000    0.000000    0.000000    0.000000 Ang=   0.00 deg.
 Initial guess orbital symmetries:
 Alpha Orbitals:
       Occupied  (A) (A) (A) (A) (A) (A) (A) (A) (A) (A) (A) (A)
                 (A)
       Virtual   (A) (A) (A) (A) (A) (A) (A) (A) (A) (A) (A) (A)
                 (A) (A) (A) (A) (A) (A) (A) (A) (A) (A) (A) (A)
                 (A) (A) (A) (A) (A) (A) (A) (A) (A) (A) (A) (A)
                 (A) (A) (A) (A) (A) (A) (A) (A) (A) (A) (A) (A)
                 (A) (A) (A) (A) (A) (A) (A) (A) (A) (A) (A) (A)
                 (A) (A) (A) (A) (A) (A) (A) (A) (A)
 Beta  Orbitals:
       Occupied  (A) (A) (A) (A) (A) (A) (A) (A) (A) (A) (A) (A)
       Virtual   (A) (A) (A) (A) (A) (A) (A) (A) (A) (A) (A) (A)
                 (A) (A) (A) (A) (A) (A) (A) (A) (A) (A) (A) (A)
                 (A) (A) (A) (A) (A) (A) (A) (A) (A) (A) (A) (A)
                 (A) (A) (A) (A) (A) (A) (A) (A) (A) (A) (A) (A)
                 (A) (A) (A) (A) (A) (A) (A) (A) (A) (A) (A) (A)
                 (A) (A) (A) (A) (A) (A) (A) (A) (A) (A)
 Initial guess <Sx>= 0.0000 <Sy>= 0.0000 <Sz>= 0.5000 <S**2>= 0.7620 S= 0.5060
 Requested convergence on RMS density matrix=1.00D-08 within 128 cycles.
 Requested convergence on MAX density matrix=1.00D-06.
 Requested convergence on             energy=1.00D-06.
 No special actions if energy rises.
 Keep R1 and R2 ints in memory in canonical form, NReq=12587911.
 SCF Done:  E(UB3LYP) =  -154.345797267     A.U. after   14 cycles
             Convg  =    0.1432D-08             -V/T =  2.0099
 <Sx>= 0.0000 <Sy>= 0.0000 <Sz>= 0.5000 <S**2>= 0.7615 S= 0.5057
 <L.S>= 0.000000000000E+00
 Annihilation of the first spin contaminant:
 S**2 before annihilation     0.7615,   after     0.7500
 Calling FoFJK, ICntrl=      2127 FMM=F ISym2X=0 I1Cent= 0 IOpClX= 1 NMat=1 NMatS=1 NMatT=0.
 ***** Axes restored to original set *****
 -------------------------------------------------------------------
 Center     Atomic                   Forces (Hartrees/Bohr)
 Number     Number              X              Y              Z
 -------------------------------------------------------------------
      1        6           0.002646994    0.005229584    0.003891316
      2        1           0.000480601   -0.001142859   -0.000841573
      3        1          -0.000949230    0.000007416   -0.001487563
      4        6          -0.006198205   -0.009750585    0.005055516
      5        1           0.000054775    0.002968834   -0.005074516
      6        1           0.002805280    0.001184777   -0.004018527
      7        8          -0.000554373    0.002192984    0.004653812
      8        1           0.001714158   -0.000690150   -0.002178464
 -------------------------------------------------------------------
 Cartesian Forces:  Max     0.009750585 RMS     0.003587194

 GradGradGradGradGradGradGradGradGradGradGradGradGradGradGradGradGradGrad
 Berny optimization.
 Internal  Forces:  Max     0.005606350 RMS     0.002186949
 Search for a saddle point.
 Step number   4 out of a maximum of   38
 All quantities printed in internal units (Hartrees-Bohrs-Radians)
 Swaping is turned off.
 Update second derivatives using D2CorX and points    1    2    3    4
     Eigenvalues ---   -0.04626   0.00313   0.00775   0.01611   0.01807
     Eigenvalues ---    0.02640   0.02741   0.05646   0.09235   0.09627
     Eigenvalues ---    0.13980   0.15988   0.29604   0.39549   0.39878
     Eigenvalues ---    0.39952   0.40009   0.515631000.000001000.00000
     Eigenvalues --- 1000.000001000.000001000.000001000.000001000.00000
     Eigenvalues --- 1000.000001000.000001000.00000
 Eigenvectors required to have negative eigenvalues:
                          R8        R5        A11       A12       R4
   1                    0.82255  -0.22898   0.21879   0.18296  -0.17809
                          R3        A3        A13       A4        R9
   1                   -0.17059  -0.16123   0.14807  -0.14532   0.13174
 RFO step:  Lambda0=6.653820210D-04 Lambda=-2.14920963D-03.
 Linear search not attempted -- option 19 set.
 Maximum step size (   0.030) exceeded in Quadratic search.
    -- Step size scaled by   0.066
 Iteration  1 RMS(Cart)=  0.00324940 RMS(Int)=  0.00001629
 Iteration  2 RMS(Cart)=  0.00001234 RMS(Int)=  0.00001058
 Iteration  3 RMS(Cart)=  0.00000000 RMS(Int)=  0.00001058
 Variable       Old X    -DE/DX   Delta X   Delta X   Delta X     New X
                                 (Linear)    (Quad)   (Total)
    R1        2.04971   0.00130   0.00000   0.00026   0.00026   2.04997
    R2        2.04620   0.00115   0.00000   0.00022   0.00022   2.04642
    R3        2.57403  -0.00561   0.00000  -0.00186  -0.00186   2.57217
    R4        4.71615   0.00094   0.00000   0.00216   0.00216   4.71831
    R5        4.81996   0.00120   0.00000   0.00972   0.00972   4.82967
    R6        2.04465   0.00147   0.00000   0.00022   0.00022   2.04487
    R7        2.04708   0.00164   0.00000   0.00029   0.00029   2.04737
    R8        4.19794  -0.00499   0.00000   0.01405   0.01405   4.21199
    R9        4.71020   0.00071   0.00000   0.01443   0.01443   4.72462
   R10        1.83768   0.00183   0.00000   0.00030   0.00030   1.83798
    A1        2.04718  -0.00027   0.00000  -0.00045  -0.00045   2.04673
    A2        2.12026   0.00014   0.00000   0.00023   0.00022   2.12049
    A3        1.86735   0.00045   0.00000   0.00010   0.00010   1.86745
    A4        1.48224  -0.00011   0.00000   0.00083   0.00083   1.48307
    A5        2.11572   0.00012   0.00000   0.00022   0.00022   2.11594
    A6        1.75554   0.00048   0.00000  -0.00471  -0.00472   1.75082
    A7        1.98758  -0.00146   0.00000  -0.00387  -0.00388   1.98370
    A8        2.10622   0.00093   0.00000   0.00140   0.00137   2.10759
    A9        2.11083   0.00111   0.00000   0.00131   0.00128   2.11211
   A10        2.02989  -0.00090   0.00000   0.00094   0.00091   2.03080
   A11        1.69080  -0.00360   0.00000  -0.00683  -0.00682   1.68397
   A12        2.08556  -0.00305   0.00000  -0.00855  -0.00855   2.07701
   A13        1.80019  -0.00357   0.00000  -0.00192  -0.00192   1.79827
   A14        1.54958  -0.00132   0.00000  -0.00280  -0.00281   1.54678
    D1       -2.99034  -0.00293   0.00000  -0.00744  -0.00745  -2.99779
    D2       -0.14528   0.00143   0.00000   0.00730   0.00730  -0.13798
    D3        0.15905  -0.00146   0.00000  -0.00715  -0.00716   0.15189
    D4        3.00410   0.00289   0.00000   0.00759   0.00760   3.01170
         Item               Value     Threshold  Converged?
 Maximum Force            0.005606     0.000450     NO 
 RMS     Force            0.002187     0.000300     NO 
 Maximum Displacement     0.009532     0.001800     NO 
 RMS     Displacement     0.003252     0.001200     NO 
 Predicted change in Energy=-9.515918D-05
 GradGradGradGradGradGradGradGradGradGradGradGradGradGradGradGradGradGrad

                          Input orientation:                          
 ---------------------------------------------------------------------
 Center     Atomic      Atomic             Coordinates (Angstroms)
 Number     Number       Type             X           Y           Z
 ---------------------------------------------------------------------
      1          6           0       -0.461100    0.767346    0.662827
      2          1           0        0.053323   -0.184259    0.581569
      3          1           0       -1.531785    0.768018    0.500502
      4          6           0        0.210284    1.916571    0.947812
      5          1           0       -0.325524    2.833211    1.156660
      6          1           0        1.257028    1.897089    1.226654
      7          8           0        0.284337    2.167037   -1.265724
      8          1           0        0.890253    1.419288   -1.406157
 ---------------------------------------------------------------------
                    Distance matrix (angstroms):
                    1          2          3          4          5
     1  C    0.000000
     2  H    1.084798   0.000000
     3  H    1.082921   1.850938   0.000000
     4  C    1.361135   2.138284   2.134025   0.000000
     5  H    2.128391   3.095058   2.480047   1.082099   0.000000
     6  H    2.132177   2.489388   3.095089   1.083423   1.840025
     7  O    2.496821   2.999075   2.893978   2.228891   2.585278
     8  H    2.555754   2.687540   3.150520   2.500164   3.169437
                    6          7          8
     6  H    0.000000
     7  O    2.689042   0.000000
     8  H    2.700836   0.972618   0.000000
 Stoichiometry    C2H5O(2)
 Framework group  C1[X(C2H5O)]
 Deg. of freedom    18
 Full point group                 C1      NOp   1
 Largest Abelian subgroup         C1      NOp   1
 Largest concise Abelian subgroup C1      NOp   1
                         Standard orientation:                         
 ---------------------------------------------------------------------
 Center     Atomic      Atomic             Coordinates (Angstroms)
 Number     Number       Type             X           Y           Z
 ---------------------------------------------------------------------
      1          6           0       -0.992802   -0.577030   -0.025580
      2          1           0       -1.176812   -1.149930    0.877034
      3          1           0       -1.118038   -1.088329   -0.971945
      4          6           0       -0.611030    0.728441    0.026229
      5          1           0       -0.558756    1.325866   -0.874487
      6          1           0       -0.601903    1.270593    0.964202
      7          8           0        1.456130   -0.095787   -0.098085
      8          1           0        1.429461   -0.500372    0.785989
 ---------------------------------------------------------------------
 Rotational constants (GHZ):     24.2078894      8.4596993      6.9956511
 Standard basis: 6-31+G(d,p) (6D, 7F)
 There are    82 symmetry adapted basis functions of A   symmetry.
 Integral buffers will be    262144 words long.
 Raffenetti 2 integral format.
 Two-electron integral symmetry is turned on.
    82 basis functions,   131 primitive gaussians,    82 cartesian basis functions
    13 alpha electrons       12 beta electrons
       nuclear repulsion energy        68.2625151575 Hartrees.
 NAtoms=    8 NActive=    8 NUniq=    8 SFac= 7.50D-01 NAtFMM=   80 NAOKFM=F Big=F
 One-electron integrals computed using PRISM.
 NBasis=    82 RedAO= T  NBF=    82
 NBsUse=    82 1.00D-06 NBFU=    82
 Initial guess read from the read-write file.
 B after Tr=     0.000000    0.000000    0.000000
         Rot=    1.000000    0.000000    0.000000    0.000000 Ang=   0.00 deg.
 Initial guess orbital symmetries:
 Alpha Orbitals:
       Occupied  (A) (A) (A) (A) (A) (A) (A) (A) (A) (A) (A) (A)
                 (A)
       Virtual   (A) (A) (A) (A) (A) (A) (A) (A) (A) (A) (A) (A)
                 (A) (A) (A) (A) (A) (A) (A) (A) (A) (A) (A) (A)
                 (A) (A) (A) (A) (A) (A) (A) (A) (A) (A) (A) (A)
                 (A) (A) (A) (A) (A) (A) (A) (A) (A) (A) (A) (A)
                 (A) (A) (A) (A) (A) (A) (A) (A) (A) (A) (A) (A)
                 (A) (A) (A) (A) (A) (A) (A) (A) (A)
 Beta  Orbitals:
       Occupied  (A) (A) (A) (A) (A) (A) (A) (A) (A) (A) (A) (A)
       Virtual   (A) (A) (A) (A) (A) (A) (A) (A) (A) (A) (A) (A)
                 (A) (A) (A) (A) (A) (A) (A) (A) (A) (A) (A) (A)
                 (A) (A) (A) (A) (A) (A) (A) (A) (A) (A) (A) (A)
                 (A) (A) (A) (A) (A) (A) (A) (A) (A) (A) (A) (A)
                 (A) (A) (A) (A) (A) (A) (A) (A) (A) (A) (A) (A)
                 (A) (A) (A) (A) (A) (A) (A) (A) (A) (A)
 Initial guess <Sx>= 0.0000 <Sy>= 0.0000 <Sz>= 0.5000 <S**2>= 0.7615 S= 0.5057
 Requested convergence on RMS density matrix=1.00D-08 within 128 cycles.
 Requested convergence on MAX density matrix=1.00D-06.
 Requested convergence on             energy=1.00D-06.
 No special actions if energy rises.
 Keep R1 and R2 ints in memory in canonical form, NReq=12587911.
 SCF Done:  E(UB3LYP) =  -154.345892351     A.U. after   14 cycles
             Convg  =    0.1457D-08             -V/T =  2.0099
 <Sx>= 0.0000 <Sy>= 0.0000 <Sz>= 0.5000 <S**2>= 0.7610 S= 0.5055
 <L.S>= 0.000000000000E+00
 Annihilation of the first spin contaminant:
 S**2 before annihilation     0.7610,   after     0.7500
 Calling FoFJK, ICntrl=      2127 FMM=F ISym2X=0 I1Cent= 0 IOpClX= 1 NMat=1 NMatS=1 NMatT=0.
 ***** Axes restored to original set *****
 -------------------------------------------------------------------
 Center     Atomic                   Forces (Hartrees/Bohr)
 Number     Number              X              Y              Z
 -------------------------------------------------------------------
      1        6           0.002448482    0.004846828    0.003671812
      2        1           0.000449220   -0.001067601   -0.000782542
      3        1          -0.000881336    0.000014303   -0.001401748
      4        6          -0.005824480   -0.009099643    0.004830816
      5        1           0.000084482    0.002764412   -0.004797730
      6        1           0.002615390    0.001119802   -0.003786197
      7        8          -0.000520681    0.002048545    0.004356234
      8        1           0.001628922   -0.000626646   -0.002090646
 -------------------------------------------------------------------
 Cartesian Forces:  Max     0.009099643 RMS     0.003364569

 GradGradGradGradGradGradGradGradGradGradGradGradGradGradGradGradGradGrad
 Berny optimization.
 Internal  Forces:  Max     0.005217792 RMS     0.002049079
 Search for a saddle point.
 Step number   5 out of a maximum of   38
 All quantities printed in internal units (Hartrees-Bohrs-Radians)
 Swaping is turned off.
 Update second derivatives using D2CorX and points    1    2    3    4    5
     Eigenvalues ---   -0.04568   0.00298   0.00775   0.01608   0.01805
     Eigenvalues ---    0.02626   0.02745   0.05644   0.09221   0.09624
     Eigenvalues ---    0.13958   0.15977   0.29606   0.39549   0.39878
     Eigenvalues ---    0.39951   0.40009   0.515601000.000001000.00000
     Eigenvalues --- 1000.000001000.000001000.000001000.000001000.00000
     Eigenvalues --- 1000.000001000.000001000.00000
 Eigenvectors required to have negative eigenvalues:
                          R8        R5        A11       A12       R4
   1                    0.81737  -0.23617   0.22450   0.18808  -0.18134
                          R3        A3        A13       A4        A6
   1                   -0.17035  -0.16354   0.14912  -0.14658  -0.12565
 RFO step:  Lambda0=6.121010049D-04 Lambda=-1.91985539D-03.
 Linear search not attempted -- option 19 set.
 Maximum step size (   0.030) exceeded in Quadratic search.
    -- Step size scaled by   0.067
 Iteration  1 RMS(Cart)=  0.00333078 RMS(Int)=  0.00001619
 Iteration  2 RMS(Cart)=  0.00001233 RMS(Int)=  0.00001014
 Iteration  3 RMS(Cart)=  0.00000000 RMS(Int)=  0.00001014
 Variable       Old X    -DE/DX   Delta X   Delta X   Delta X     New X
                                 (Linear)    (Quad)   (Total)
    R1        2.04997   0.00121   0.00000   0.00025   0.00025   2.05022
    R2        2.04642   0.00108   0.00000   0.00021   0.00021   2.04663
    R3        2.57217  -0.00522   0.00000  -0.00178  -0.00178   2.57039
    R4        4.71831   0.00090   0.00000   0.00202   0.00202   4.72033
    R5        4.82967   0.00115   0.00000   0.00987   0.00987   4.83955
    R6        2.04487   0.00138   0.00000   0.00021   0.00021   2.04508
    R7        2.04737   0.00153   0.00000   0.00029   0.00029   2.04766
    R8        4.21199  -0.00468   0.00000   0.01432   0.01431   4.22631
    R9        4.72462   0.00070   0.00000   0.01462   0.01462   4.73924
   R10        1.83798   0.00170   0.00000   0.00030   0.00030   1.83828
    A1        2.04673  -0.00025   0.00000  -0.00043  -0.00043   2.04630
    A2        2.12049   0.00013   0.00000   0.00022   0.00022   2.12071
    A3        1.86745   0.00043   0.00000   0.00011   0.00011   1.86756
    A4        1.48307  -0.00010   0.00000   0.00088   0.00088   1.48396
    A5        2.11594   0.00011   0.00000   0.00021   0.00021   2.11615
    A6        1.75082   0.00044   0.00000  -0.00480  -0.00480   1.74602
    A7        1.98370  -0.00138   0.00000  -0.00385  -0.00385   1.97985
    A8        2.10759   0.00085   0.00000   0.00132   0.00129   2.10888
    A9        2.11211   0.00102   0.00000   0.00122   0.00119   2.11330
   A10        2.03080  -0.00086   0.00000   0.00085   0.00082   2.03162
   A11        1.68397  -0.00339   0.00000  -0.00665  -0.00664   1.67733
   A12        2.07701  -0.00287   0.00000  -0.00842  -0.00842   2.06859
   A13        1.79827  -0.00333   0.00000  -0.00163  -0.00163   1.79664
   A14        1.54678  -0.00124   0.00000  -0.00266  -0.00266   1.54412
    D1       -2.99779  -0.00276   0.00000  -0.00725  -0.00726  -3.00505
    D2       -0.13798   0.00135   0.00000   0.00719   0.00719  -0.13079
    D3        0.15189  -0.00139   0.00000  -0.00707  -0.00708   0.14481
    D4        3.01170   0.00272   0.00000   0.00737   0.00737   3.01907
         Item               Value     Threshold  Converged?
 Maximum Force            0.005218     0.000450     NO 
 RMS     Force            0.002049     0.000300     NO 
 Maximum Displacement     0.009533     0.001800     NO 
 RMS     Displacement     0.003334     0.001200     NO 
 Predicted change in Energy=-8.521158D-05
 GradGradGradGradGradGradGradGradGradGradGradGradGradGradGradGradGradGrad

                          Input orientation:                          
 ---------------------------------------------------------------------
 Center     Atomic      Atomic             Coordinates (Angstroms)
 Number     Number       Type             X           Y           Z
 ---------------------------------------------------------------------
      1          6           0       -0.460903    0.767492    0.664169
      2          1           0        0.053024   -0.184534    0.582930
      3          1           0       -1.531160    0.768901    0.498320
      4          6           0        0.209857    1.915039    0.952856
      5          1           0       -0.324705    2.834007    1.155150
      6          1           0        1.257581    1.896342    1.228640
      7          8           0        0.281062    2.165369   -1.268415
      8          1           0        0.892059    1.421683   -1.409508
 ---------------------------------------------------------------------
                    Distance matrix (angstroms):
                    1          2          3          4          5
     1  C    0.000000
     2  H    1.084931   0.000000
     3  H    1.083032   1.850901   0.000000
     4  C    1.360192   2.137674   2.133395   0.000000
     5  H    2.128403   3.095433   2.480247   1.082211   0.000000
     6  H    2.132163   2.489568   3.095411   1.083574   1.840719
     7  O    2.497890   3.000254   2.890609   2.236466   2.586058
     8  H    2.560978   2.693273   3.152446   2.507900   3.170591
                    6          7          8
     6  H    0.000000
     7  O    2.694670   0.000000
     8  H    2.705316   0.972776   0.000000
 Stoichiometry    C2H5O(2)
 Framework group  C1[X(C2H5O)]
 Deg. of freedom    18
 Full point group                 C1      NOp   1
 Largest Abelian subgroup         C1      NOp   1
 Largest concise Abelian subgroup C1      NOp   1
                         Standard orientation:                         
 ---------------------------------------------------------------------
 Center     Atomic      Atomic             Coordinates (Angstroms)
 Number     Number       Type             X           Y           Z
 ---------------------------------------------------------------------
      1          6           0       -0.990538   -0.579461   -0.025460
      2          1           0       -1.173705   -1.152453    0.877427
      3          1           0       -1.109035   -1.093380   -0.971400
      4          6           0       -0.618130    0.727764    0.025506
      5          1           0       -0.560083    1.323477   -0.876125
      6          1           0       -0.609088    1.270727    0.963185
      7          8           0        1.458513   -0.093286   -0.097826
      8          1           0        1.435818   -0.491896    0.789242
 ---------------------------------------------------------------------
 Rotational constants (GHZ):     24.1831638      8.4359297      6.9782338
 Standard basis: 6-31+G(d,p) (6D, 7F)
 There are    82 symmetry adapted basis functions of A   symmetry.
 Integral buffers will be    262144 words long.
 Raffenetti 2 integral format.
 Two-electron integral symmetry is turned on.
    82 basis functions,   131 primitive gaussians,    82 cartesian basis functions
    13 alpha electrons       12 beta electrons
       nuclear repulsion energy        68.2178866441 Hartrees.
 NAtoms=    8 NActive=    8 NUniq=    8 SFac= 7.50D-01 NAtFMM=   80 NAOKFM=F Big=F
 One-electron integrals computed using PRISM.
 NBasis=    82 RedAO= T  NBF=    82
 NBsUse=    82 1.00D-06 NBFU=    82
 Initial guess read from the read-write file.
 B after Tr=     0.000000    0.000000    0.000000
         Rot=    1.000000    0.000000    0.000000    0.000000 Ang=   0.00 deg.
 Initial guess orbital symmetries:
 Alpha Orbitals:
       Occupied  (A) (A) (A) (A) (A) (A) (A) (A) (A) (A) (A) (A)
                 (A)
       Virtual   (A) (A) (A) (A) (A) (A) (A) (A) (A) (A) (A) (A)
                 (A) (A) (A) (A) (A) (A) (A) (A) (A) (A) (A) (A)
                 (A) (A) (A) (A) (A) (A) (A) (A) (A) (A) (A) (A)
                 (A) (A) (A) (A) (A) (A) (A) (A) (A) (A) (A) (A)
                 (A) (A) (A) (A) (A) (A) (A) (A) (A) (A) (A) (A)
                 (A) (A) (A) (A) (A) (A) (A) (A) (A)
 Beta  Orbitals:
       Occupied  (A) (A) (A) (A) (A) (A) (A) (A) (A) (A) (A) (A)
       Virtual   (A) (A) (A) (A) (A) (A) (A) (A) (A) (A) (A) (A)
                 (A) (A) (A) (A) (A) (A) (A) (A) (A) (A) (A) (A)
                 (A) (A) (A) (A) (A) (A) (A) (A) (A) (A) (A) (A)
                 (A) (A) (A) (A) (A) (A) (A) (A) (A) (A) (A) (A)
                 (A) (A) (A) (A) (A) (A) (A) (A) (A) (A) (A) (A)
                 (A) (A) (A) (A) (A) (A) (A) (A) (A) (A)
 Initial guess <Sx>= 0.0000 <Sy>= 0.0000 <Sz>= 0.5000 <S**2>= 0.7610 S= 0.5055
 Requested convergence on RMS density matrix=1.00D-08 within 128 cycles.
 Requested convergence on MAX density matrix=1.00D-06.
 Requested convergence on             energy=1.00D-06.
 No special actions if energy rises.
 Keep R1 and R2 ints in memory in canonical form, NReq=12587911.
 SCF Done:  E(UB3LYP) =  -154.345977504     A.U. after   14 cycles
             Convg  =    0.1495D-08             -V/T =  2.0099
 <Sx>= 0.0000 <Sy>= 0.0000 <Sz>= 0.5000 <S**2>= 0.7605 S= 0.5052
 <L.S>= 0.000000000000E+00
 Annihilation of the first spin contaminant:
 S**2 before annihilation     0.7605,   after     0.7500
 Calling FoFJK, ICntrl=      2127 FMM=F ISym2X=0 I1Cent= 0 IOpClX= 1 NMat=1 NMatS=1 NMatT=0.
 ***** Axes restored to original set *****
 -------------------------------------------------------------------
 Center     Atomic                   Forces (Hartrees/Bohr)
 Number     Number              X              Y              Z
 -------------------------------------------------------------------
      1        6           0.002260495    0.004483903    0.003458925
[...]
 Frequencies --  1650.9081              3161.9701              3172.4043
 Red. masses --     2.5352                 1.0497                 1.0704
 Frc consts  --     4.0711                 6.1835                 6.3472
 IR Inten    --    24.3885                 6.3591                10.4766
  Atom  AN      X      Y      Z        X      Y      Z        X      Y      Z
     1   6     0.00   0.26   0.00     0.00   0.04  -0.01     0.00  -0.05   0.01
     2   1     0.04  -0.28  -0.36    -0.06  -0.30   0.49     0.06   0.29  -0.48
     3   1    -0.04  -0.29   0.36     0.04  -0.20  -0.35    -0.04   0.21   0.37
     4   6     0.00  -0.26   0.00     0.00   0.04   0.01     0.00   0.05   0.01
     5   1    -0.04   0.29   0.36    -0.04  -0.20   0.35    -0.04  -0.22   0.37
     6   1     0.04   0.28  -0.36     0.06  -0.30  -0.49     0.06  -0.29  -0.48
     7   8    -0.01   0.00   0.00     0.00   0.00   0.00     0.00   0.00   0.00
     8   1     0.01   0.00   0.00     0.00   0.00   0.00     0.00   0.00   0.00
                    16                     17                     18
                     A                      A                      A
 Frequencies --  3249.2354              3273.8074              3747.1846
 Red. masses --     1.1146                 1.1177                 1.0676
 Frc consts  --     6.9334                 7.0582                 8.8318
 IR Inten    --     0.0236                 7.9322                28.1673
  Atom  AN      X      Y      Z        X      Y      Z        X      Y      Z
     1   6     0.01  -0.01  -0.07    -0.01   0.01   0.07     0.00   0.00   0.00
     2   1    -0.04  -0.21   0.33     0.04   0.22  -0.35     0.00   0.00   0.00
     3   1    -0.06   0.31   0.49     0.06  -0.30  -0.48     0.00   0.00   0.00
     4   6    -0.01  -0.01   0.07    -0.01  -0.01   0.07     0.00   0.00   0.00
     5   1     0.06   0.31  -0.49     0.06   0.30  -0.48     0.00   0.00   0.00
     6   1     0.04  -0.21  -0.33     0.04  -0.22  -0.35     0.00   0.00   0.00
     7   8     0.00   0.00   0.00     0.00   0.00   0.00     0.01   0.00   0.06
     8   1     0.00   0.00   0.00     0.00   0.00   0.00    -0.10   0.00  -0.99

 -------------------
 - Thermochemistry -
 -------------------
 Temperature   298.150 Kelvin.  Pressure   1.00000 Atm.
 Atom     1 has atomic number  6 and mass  12.00000
 Atom     2 has atomic number  1 and mass   1.00783
 Atom     3 has atomic number  1 and mass   1.00783
 Atom     4 has atomic number  6 and mass  12.00000
 Atom     5 has atomic number  1 and mass   1.00783
 Atom     6 has atomic number  1 and mass   1.00783
 Atom     7 has atomic number  8 and mass  15.99491
 Atom     8 has atomic number  1 and mass   1.00783
 Molecular mass:    45.03404 amu.
 Principal axes and moments of inertia in atomic units:
                           1         2         3
     Eigenvalues --    76.51347 220.25875 266.21203
           X            0.99983  -0.00002   0.01838
           Y            0.00003   1.00000  -0.00007
           Z           -0.01838   0.00007   0.99983
 This molecule is an asymmetric top.
 Rotational symmetry number  1.
 Rotational temperatures (Kelvin)      1.13201     0.39324     0.32536
 Rotational constants (GHZ):          23.58723     8.19373     6.77934
    1 imaginary frequencies ignored.
 Zero-point vibrational energy     163934.2 (Joules/Mol)
                                   39.18121 (Kcal/Mol)
 Warning -- explicit consideration of   4 degrees of freedom as
           vibrations may cause significant error
 Vibrational temperatures:    256.52   339.98   428.42   836.05  1202.20
          (Kelvin)           1385.44  1414.30  1431.21  1781.94  1964.49
                             2127.34  2375.29  4549.36  4564.38  4674.92
                             4710.27  5391.36
 
 Zero-point correction=                           0.062439 (Hartree/Particle)
 Thermal correction to Energy=                    0.067186
 Thermal correction to Enthalpy=                  0.068130
 Thermal correction to Gibbs Free Energy=         0.035637
 Sum of electronic and zero-point Energies=           -154.283992
 Sum of electronic and thermal Energies=              -154.279246
 Sum of electronic and thermal Enthalpies=            -154.278301
 Sum of electronic and thermal Free Energies=         -154.310795
 
                     E (Thermal)             CV                S
                      KCal/Mol        Cal/Mol-Kelvin    Cal/Mol-Kelvin
 Total                   42.160             14.584             68.388
 Electronic               0.000              0.000              1.377
 Translational            0.889              2.981             37.340
 Rotational               0.889              2.981             23.021
 Vibrational             40.382              8.622              6.649
 Vibration     1          0.629              1.869              2.346
 Vibration     2          0.655              1.785              1.831
 Vibration     3          0.691              1.678              1.429
 Vibration     4          0.938              1.072              0.483
                       Q            Log10(Q)             Ln(Q)
 Total Bot       0.405755D-16        -16.391736        -37.743367
 Total V=0       0.212941D+13         12.328259         28.386864
 Vib (Bot)       0.712314D-28        -28.147328        -64.811619
 Vib (Bot)    1  0.112720D+01          0.052000          0.119735
 Vib (Bot)    2  0.831198D+00         -0.080296         -0.184887
 Vib (Bot)    3  0.639478D+00         -0.194174         -0.447103
 Vib (Bot)    4  0.261954D+00         -0.581775         -1.339586
 Vib (V=0)       0.373823D+01          0.572666          1.318613
 Vib (V=0)    1  0.173312D+01          0.238828          0.549921
 Vib (V=0)    2  0.146999D+01          0.167316          0.385259
 Vib (V=0)    3  0.131175D+01          0.117850          0.271359
 Vib (V=0)    4  0.106446D+01          0.027131          0.062472
 Electronic      0.200000D+01          0.301030          0.693147
 Translational   0.118786D+08          7.074767         16.290252
 Rotational      0.239771D+05          4.379796         10.084852
 ***** Axes restored to original set *****
 -------------------------------------------------------------------
 Center     Atomic                   Forces (Hartrees/Bohr)
 Number     Number              X              Y              Z
 -------------------------------------------------------------------
      1        6          -0.000002446    0.000008515   -0.000006585
      2        1           0.000000595    0.000000668   -0.000012542
      3        1          -0.000005107   -0.000008295    0.000021910
      4        6           0.000001671   -0.000005495    0.000007204
      5        1           0.000002773    0.000000592   -0.000018026
      6        1          -0.000003088   -0.000000144    0.000010417
      7        8          -0.000005415    0.000009231   -0.000009000
      8        1           0.000011018   -0.000005072    0.000006621
 -------------------------------------------------------------------
 Cartesian Forces:  Max     0.000021910 RMS     0.000008606

 GradGradGradGradGradGradGradGradGradGradGradGradGradGradGradGradGradGrad
 Berny optimization.
 Internal  Forces:  Max     0.000013945 RMS     0.000006151
 Search for a saddle point.
 Step number   1 out of a maximum of    2
 All quantities printed in internal units (Hartrees-Bohrs-Radians)
 Swaping is turned off.
 Second derivative matrix not updated -- analytic derivatives used.
     Eigenvalues ---   -0.00574   0.00326   0.00775   0.01095   0.01496
     Eigenvalues ---    0.02135   0.02292   0.02898   0.10208   0.10503
     Eigenvalues ---    0.10831   0.13313   0.36163   0.36190   0.36822
     Eigenvalues ---    0.36877   0.47671   0.574371000.000001000.00000
     Eigenvalues --- 1000.000001000.000001000.000001000.000001000.00000
     Eigenvalues --- 1000.000001000.000001000.00000
 Eigenvectors required to have negative eigenvalues:
                          R8        R4        A6        A11       A13
   1                    0.62782  -0.62744  -0.19327   0.19319   0.18666
                          A3        D3        R9        R5        D2
   1                   -0.18659  -0.14414   0.13253  -0.13121   0.10093
 Angle between quadratic step and forces=  40.46 degrees.
 Linear search not attempted -- option 19 set.
 Iteration  1 RMS(Cart)=  0.00048150 RMS(Int)=  0.00000040
 Iteration  2 RMS(Cart)=  0.00000027 RMS(Int)=  0.00000011
 Variable       Old X    -DE/DX   Delta X   Delta X   Delta X     New X
                                 (Linear)    (Quad)   (Total)
    R1        2.05311   0.00000   0.00000   0.00000   0.00000   2.05311
    R2        2.04871   0.00000   0.00000   0.00000   0.00000   2.04872
    R3        2.54934   0.00000   0.00000  -0.00001  -0.00001   2.54932
    R4        4.56930   0.00001   0.00000  -0.00010  -0.00010   4.56920
    R5        5.03992   0.00000   0.00000  -0.00005  -0.00005   5.03987
    R6        2.04872   0.00000   0.00000   0.00000   0.00000   2.04872
    R7        2.05311   0.00000   0.00000   0.00000   0.00000   2.05311
    R8        4.56847   0.00000   0.00000   0.00071   0.00071   4.56918
    R9        5.04052  -0.00001   0.00000  -0.00066  -0.00066   5.03986
   R10        1.84325   0.00001   0.00000   0.00002   0.00002   1.84327
    A1        2.03919   0.00000   0.00000  -0.00006  -0.00006   2.03912
    A2        2.12383   0.00000   0.00000   0.00003   0.00003   2.12386
    A3        1.85378   0.00000   0.00000  -0.00061  -0.00061   1.85317
    A4        1.52084   0.00000   0.00000  -0.00033  -0.00033   1.52051
    A5        2.12009   0.00000   0.00000   0.00003   0.00003   2.12012
    A6        1.59529   0.00001   0.00000   0.00051   0.00051   1.59580
    A7        1.90331   0.00001   0.00000   0.00087   0.00087   1.90418
    A8        2.12016   0.00000   0.00000  -0.00005  -0.00005   2.12012
    A9        2.12382   0.00000   0.00000   0.00004   0.00004   2.12386
   A10        2.03912   0.00000   0.00000   0.00001   0.00001   2.03912
   A11        1.59561  -0.00001   0.00000   0.00019   0.00019   1.59579
   A12        1.90420   0.00000   0.00000  -0.00002  -0.00002   1.90418
   A13        1.85327   0.00000   0.00000  -0.00010  -0.00010   1.85316
   A14        1.52089   0.00000   0.00000  -0.00038  -0.00038   1.52050
    D1       -3.12660  -0.00001   0.00000  -0.00048  -0.00048  -3.12709
    D2        0.00025  -0.00001   0.00000  -0.00025  -0.00025   0.00000
    D3        0.00078  -0.00001   0.00000  -0.00078  -0.00078   0.00000
    D4        3.12763  -0.00001   0.00000  -0.00054  -0.00054   3.12709
         Item               Value     Threshold  Converged?
 Maximum Force            0.000014     0.000450     YES
 RMS     Force            0.000006     0.000300     YES
 Maximum Displacement     0.001113     0.001800     YES
 RMS     Displacement     0.000481     0.001200     YES
 Predicted change in Energy=-2.431090D-08
 Optimization completed.
    -- Stationary point found.
                           ----------------------------
                           !   Optimized Parameters   !
                           ! (Angstroms and Degrees)  !
 --------------------------                            --------------------------
 ! Name  Definition              Value          Derivative Info.                !
 --------------------------------------------------------------------------------
 ! R1    R(1,2)                  1.0865         -DE/DX =    0.0                 !
 ! R2    R(1,3)                  1.0841         -DE/DX =    0.0                 !
 ! R3    R(1,4)                  1.3491         -DE/DX =    0.0                 !
 ! R4    R(1,7)                  2.418          -DE/DX =    0.0                 !
 ! R5    R(1,8)                  2.667          -DE/DX =    0.0                 !
 ! R6    R(4,5)                  1.0841         -DE/DX =    0.0                 !
 ! R7    R(4,6)                  1.0865         -DE/DX =    0.0                 !
 ! R8    R(4,7)                  2.4175         -DE/DX =    0.0                 !
 ! R9    R(4,8)                  2.6673         -DE/DX =    0.0                 !
 ! R10   R(7,8)                  0.9754         -DE/DX =    0.0                 !
 ! A1    A(2,1,3)              116.8367         -DE/DX =    0.0                 !
 ! A2    A(2,1,4)              121.6863         -DE/DX =    0.0                 !
 ! A3    A(2,1,7)              106.2137         -DE/DX =    0.0                 !
 ! A4    A(2,1,8)               87.1375         -DE/DX =    0.0                 !
 ! A5    A(3,1,4)              121.4723         -DE/DX =    0.0                 !
 ! A6    A(3,1,7)               91.4032         -DE/DX =    0.0                 !
 ! A7    A(3,1,8)              109.0518         -DE/DX =    0.0                 !
 ! A8    A(1,4,5)              121.4763         -DE/DX =    0.0                 !
 ! A9    A(1,4,6)              121.6859         -DE/DX =    0.0                 !
 ! A10   A(5,4,6)              116.8327         -DE/DX =    0.0                 !
 ! A11   A(5,4,7)               91.4214         -DE/DX =    0.0                 !
 ! A12   A(5,4,8)              109.1025         -DE/DX =    0.0                 !
 ! A13   A(6,4,7)              106.1844         -DE/DX =    0.0                 !
 ! A14   A(6,4,8)               87.1404         -DE/DX =    0.0                 !
 ! D1    D(2,1,4,5)           -179.141          -DE/DX =    0.0                 !
 ! D2    D(2,1,4,6)              0.0142         -DE/DX =    0.0                 !
 ! D3    D(3,1,4,5)              0.0446         -DE/DX =    0.0                 !
 ! D4    D(3,1,4,6)            179.1998         -DE/DX =    0.0                 !
 --------------------------------------------------------------------------------
 GradGradGradGradGradGradGradGradGradGradGradGradGradGradGradGradGradGrad


 Test job not archived.
 1|1|UNPC-DESKTOP-319GPER|Freq|UB3LYP|6-31+G(d,p)|C2H5O1(2)|SAGAD|17-Ja
 n-2021|0||#N Geom=AllCheck Guess=TCheck SCRF=Check Test GenChk UB3LYP/
 6-31+G(d,p) Freq||Transition state Ethene OH radical with B3LYP||0,2|C
 ,-0.4476497205,0.7898009092,0.6674407591|H,0.0468053342,-0.1746354408,
 0.591461094|H,-1.5030419748,0.8194646093,0.4212502422|C,0.2142981214,1
 .8961529815,1.0646188133|H,-0.2857376794,2.8540692994,1.1524180178|H,1
 .2688485413,1.8677845642,1.32445207|O,0.1174827975,1.9989470927,-1.348
 7831457|H,0.9658109704,1.5327164746,-1.4687157708||Version=IA32W-G09Re
 vA.02|State=2-A|HF=-154.3464317|S2=0.7541|S2-1=0.|S2A=0.750012|RMSD=2.
 156e-010|RMSF=8.606e-006|ZeroPoint=0.0624392|Thermal=0.0671861|Dipole=
 0.453228,-0.4795557,0.5773678|DipoleDeriv=0.1013731,-0.0033342,-0.1702
 798,-0.0437434,0.1102872,-0.2841571,0.137158,0.1620108,-0.4496563,0.02
 92516,0.0688312,-0.0106992,0.039996,-0.0502832,-0.0042092,-0.0100879,-
 0.0151267,0.1247303,-0.0285335,-0.0082776,-0.0216781,0.0153496,0.05377
 74,-0.0036768,-0.0422933,-0.0273202,0.1428903,0.0574768,-0.121844,0.27
 57999,-0.108026,-0.0722122,0.4672851,0.0423268,-0.0232292,-0.2231059,0
 .038538,0.0496791,-0.0175094,0.0332614,-0.0067766,-0.0532183,-0.017023
 ,-0.01765,0.1365771,-0.0610479,0.0020257,-0.0663634,0.0224037,0.060977
 ,-0.0172091,-0.0434351,-0.0203863,0.1035782,-0.262729,-0.1190561,0.108
 6425,-0.0521678,-0.3047416,-0.1663398,-0.0775761,-0.054535,-0.1141746,
 0.125671,0.131976,-0.0979126,0.0929265,0.208972,0.0615253,0.0109305,-0
 .0037634,0.2791609|Polar=30.828948,5.2682078,36.8727702,-1.8111583,-4.
 111832,52.9904142|PG=C01 [X(C2H5O1)]|NImag=1||0.66664373,0.04301394,0.
 73656130,0.14138954,0.14226962,0.16076191,-0.12125161,0.12093975,0.004
 29203,0.11688383,0.11695331,-0.27637661,-0.02027702,-0.12597777,0.2941
 2062,0.00377538,-0.01979017,-0.03937789,-0.00383641,0.02465842,0.02817
 403,-0.33350475,0.01254313,-0.06804795,-0.00765248,-0.00165797,-0.0033
 7139,0.34946142,0.01696979,-0.05709034,-0.00119832,0.02457226,0.002442
 34,0.00508173,-0.01095344,0.05337427,-0.06946565,-0.00279740,-0.051278
 03,0.00244732,-0.00099434,0.00404962,0.07622692,0.00364408,0.04357182,
 -0.20812313,-0.16350374,-0.07007926,0.01095748,0.01403328,0.00553470,-
 0.01056322,-0.02764110,-0.01099517,0.65766343,-0.16058680,-0.38527753,
 -0.10713850,-0.01608332,-0.01978573,-0.00995923,0.00163956,0.00425025,
 0.00077582,0.03594043,0.73814929,-0.08011134,-0.12567201,-0.07474663,-
 0.00192993,-0.00161159,0.00435633,-0.00332186,-0.00638877,0.00186186,0
 .14473313,0.15307889,0.16815147,0.01175542,-0.01648108,-0.00203460,-0.
 00020087,-0.00261958,-0.00349653,0.00075135,-0.00028802,0.00185026,-0.
 12357531,0.12504981,0.00635482,0.12017369,0.01349872,-0.01962016,-0.00
 193803,-0.00239109,-0.00139901,-0.00324429,-0.00029879,0.00097016,0.00
 160885,0.12161005,-0.28061999,-0.02491695,-0.12963974,0.29718237,0.003
 70327,-0.00791396,0.00342161,-0.00299698,-0.00316191,0.00896033,0.0017
 2952,0.00140233,-0.00583664,0.00501108,-0.02169875,-0.03768049,-0.0047
 9570,0.02731377,0.02905261,-0.01187892,0.00266021,-0.00376338,0.000876
 75,-0.00049445,0.00178848,0.00136231,-0.00194003,-0.00258313,-0.324718
 31,0.01238760,-0.06999024,-0.00861233,-0.00230872,-0.00327266,0.342060
 03,-0.02825141,0.00466413,-0.00715133,-0.00016399,0.00100257,0.0017577
 9,-0.00153015,-0.00319045,-0.00339722,0.01607245,-0.05810323,-0.001038
 26,0.02393782,0.00296287,0.00576594,-0.01008699,0.05256288,-0.00901234
 ,-0.00012963,0.00274546,0.00178789,0.00155113,-0.00618876,-0.00259422,
 -0.00301599,0.00918771,-0.06863187,-0.00202278,-0.05419709,0.00250709,
 -0.00028170,0.00448866,0.07732883,0.00417323,0.04456955,-0.00196556,0.
 00213723,-0.00042161,0.00008450,0.00007178,-0.00068722,-0.00001325,-0.
 00079910,0.00243417,-0.00367797,0.00043303,0.00498407,-0.00024419,-0.0
 0038561,0.00100638,0.00089478,0.00003362,-0.00113732,0.38685104,0.0003
 9735,-0.00470709,-0.00624639,-0.00095662,0.00044005,0.00113648,0.00038
 928,-0.00044670,0.00059719,0.00405170,0.00326599,0.00669086,0.00009447
 ,0.00039770,-0.00174470,0.00000515,-0.00027548,0.00015315,-0.21362836,
 0.11940585,0.00811443,0.01557482,-0.00060224,0.00016985,-0.00046927,-0
 .00020274,-0.00073586,0.00034595,-0.00104610,-0.00879059,-0.01198011,-
 0.00683895,-0.00046357,0.00128117,-0.00166500,0.00095083,-0.00000079,-
 0.00029761,-0.05310759,0.02246715,0.02542301,-0.00167519,-0.00130944,-
 0.00133478,0.00030241,-0.00030860,0.00029300,0.00015863,0.00007964,0.0
 0008527,0.00203704,0.00121969,-0.00071865,-0.00004776,-0.00008482,-0.0
 0038491,0.00001569,-0.00001133,-0.00024806,-0.38192935,0.20964702,0.05
 386249,0.38113854,-0.00199489,0.00184631,0.00167997,0.00006078,-0.0004
 4423,0.00035926,-0.00013162,-0.00030953,0.00056301,-0.00056308,-0.0018
 7906,-0.00014217,-0.00005368,0.00012606,0.00003729,-0.00022277,0.00037
 671,-0.00042741,0.21213741,-0.11808033,-0.02721892,-0.20923215,0.11836
 406,0.00160670,-0.00154127,-0.00092419,0.00006622,0.00030458,0.0002290
 8,0.00011484,0.00012899,-0.00051022,0.00321798,-0.00105534,-0.00090650
 ,0.00007822,0.00017717,-0.00074109,-0.00045873,-0.00010936,-0.00030793
 ,0.04692913,-0.02305374,-0.01477037,-0.05155437,0.02514897,0.01793122|
 |0.00000245,-0.00000851,0.00000659,-0.00000059,-0.00000067,0.00001254,
 0.00000511,0.00000829,-0.00002191,-0.00000167,0.00000549,-0.00000720,-
 0.00000277,-0.00000059,0.00001803,0.00000309,0.00000014,-0.00001042,0.
 00000542,-0.00000923,0.00000900,-0.00001102,0.00000507,-0.00000662|||@


 PENOTUS DIED A HUNDRED YEARS OLD WANTING BUT TWO...
 AND HE USED TO SAY BEFORE HE DIED, HAVING SPENT HIS
 WHOLE LIFE IN VAINLY SEARCHING AFTER THE PHILOSOPHER'S
 STONE, THAT IF HE HAD A MORTAL ENEMY HE DID NOT DARE
 TO ENCOUNTER OPENLY, HE WOULD ADVISE HIM ABOVE ALL
 THINGS TO GIVE HIMSELF UP TO THE STUDY AND PRACTICE
 OF ALCHEMY.  --  NICOLAS LEMERY, M.D.
 "A COURSE OF CHYMISTRY", WALTER KETTILBY, LONDON, 1686
 Job cpu time:  0 days  0 hours  0 minutes 28.0 seconds.
 File lengths (MBytes):  RWF=     15 Int=      0 D2E=      0 Chk=      2 Scr=      1
 Normal termination of Gaussian 09 at Sun Jan 17 12:40:24 2021.
