 Entering Link 1 = C:\G09W\l1.exe PID=      7980.
  
 Copyright (c) 1988,1990,1992,1993,1995,1998,2003,2009, Gaussian, Inc.
                  All Rights Reserved.
  
 This is part of the Gaussian(R) 09 program.  It is based on
 the Gaussian(R) 03 system (copyright 2003, Gaussian, Inc.),
 the Gaussian(R) 98 system (copyright 1998, Gaussian, Inc.),
 the Gaussian(R) 94 system (copyright 1995, Gaussian, Inc.),
 the Gaussian 92(TM) system (copyright 1992, Gaussian, Inc.),
 the Gaussian 90(TM) system (copyright 1990, Gaussian, Inc.),
 the Gaussian 88(TM) system (copyright 1988, Gaussian, Inc.),
 the Gaussian 86(TM) system (copyright 1986, Carnegie Mellon
 University), and the Gaussian 82(TM) system (copyright 1983,
 Carnegie Mellon University). Gaussian is a federally registered
 trademark of Gaussian, Inc.
  
 This software contains proprietary and confidential information,
 including trade secrets, belonging to Gaussian, Inc.
  
 This software is provided under written license and may be
 used, copied, transmitted, or stored only in accord with that
 written license.
  
 The following legend is applicable only to US Government
 contracts under FAR:
  
                    RESTRICTED RIGHTS LEGEND
  
 Use, reproduction and disclosure by the US Government is
 subject to restrictions as set forth in subparagraphs (a)
 and (c) of the Commercial Computer Software - Restricted
 Rights clause in FAR 52.227-19.
  
 Gaussian, Inc.
 340 Quinnipiac St., Bldg. 40, Wallingford CT 06492
  
  
 ---------------------------------------------------------------
 Warning -- This program may not be used in any manner that
 competes with the business of Gaussian, Inc. or will provide
 assistance to any competitor of Gaussian, Inc.  The licensee
 of this program is prohibited from giving any competitor of
 Gaussian, Inc. access to this program.  By using this program,
 the user acknowledges that Gaussian, Inc. is engaged in the
 business of creating and licensing software in the field of
 computational chemistry and represents and warrants to the
 licensee that it is not a competitor of Gaussian, Inc. and that
 it will not use this program in any manner prohibited above.
 ---------------------------------------------------------------
  

 Cite this work as:
 Gaussian 09, Revision A.02,
 M. J. Frisch, G. W. Trucks, H. B. Schlegel, G. E. Scuseria, 
 M. A. Robb, J. R. Cheeseman, G. Scalmani, V. Barone, B. Mennucci, 
 G. A. Petersson, H. Nakatsuji, M. Caricato, X. Li, H. P. Hratchian, 
 A. F. Izmaylov, J. Bloino, G. Zheng, J. L. Sonnenberg, M. Hada, 
 M. Ehara, K. Toyota, R. Fukuda, J. Hasegawa, M. Ishida, T. Nakajima, 
 Y. Honda, O. Kitao, H. Nakai, T. Vreven, J. A. Montgomery, Jr., 
 J. E. Peralta, F. Ogliaro, M. Bearpark, J. J. Heyd, E. Brothers, 
 K. N. Kudin, V. N. Staroverov, R. Kobayashi, J. Normand, 
 K. Raghavachari, A. Rendell, J. C. Burant, S. S. Iyengar, J. Tomasi, 
 M. Cossi, N. Rega, J. M. Millam, M. Klene, J. E. Knox, J. B. Cross, 
 V. Bakken, C. Adamo, J. Jaramillo, R. Gomperts, R. E. Stratmann, 
 O. Yazyev, A. J. Austin, R. Cammi, C. Pomelli, J. W. Ochterski, 
 R. L. Martin, K. Morokuma, V. G. Zakrzewski, G. A. Voth, 
 P. Salvador, J. J. Dannenberg, S. Dapprich, A. D. Daniels, 
 O. Farkas, J. B. Foresman, J. V. Ortiz, J. Cioslowski, 
 and D. J. Fox, Gaussian, Inc., Wallingford CT, 2009.
 
 ******************************************
 Gaussian 09:  IA32W-G09RevA.02 11-Jun-2009
                17-Jan-2021 
 ******************************************
 %chk=D:\Documents\rayGit\FQ\quimicaComputacional\p3Eteno\estadoDeTransicion\TSET
 HENEOHRADICALHF.chk
 %nprocshared=4
 Will use up to    4 processors via shared memory.
 %mem=1500mb
 ----------------------------------------------------------------
 # opt=(calcfc,ts,noeigen) freq=noraman 6-31+g(d,p) iop(1/8=3) hf
 ----------------------------------------------------------------
 1/5=1,8=3,10=4,11=1,18=20,38=1/1,3;
 2/9=110,12=2,17=6,18=5,40=1/2;
 3/5=1,6=6,7=111,11=9,16=1,25=1,30=1,71=2/1,2,3;
 4//1;
 5/5=2,38=5/2;
 8/6=4,10=90,11=11/1;
 11/6=1,8=1,9=11,15=111,16=1/1,2,10;
 10/6=1,7=6,13=1/2;
 6/7=2,8=2,9=2,10=2,28=1/1;
 7/10=1,18=20,25=1/1,2,3,16;
 1/5=1,8=3,10=4,11=1,18=20/3(2);
 2/9=110/2;
 99//99;
 2/9=110/2;
 3/5=1,6=6,7=111,11=9,16=1,25=1,30=1,71=1/1,2,3;
 4/5=5,16=3/1;
 5/5=2,38=5/2;
 7//1,2,3,16;
 1/5=1,8=3,11=1,18=20/3(-5);
 2/9=110/2;
 6/7=2,8=2,9=2,10=2,19=2,28=1/1;
 99/9=1/99;
 ------------------------------------------
 Transition state Ethene OH radical with HF
 ------------------------------------------
 Symbolic Z-matrix:
 Charge =  0 Multiplicity = 2
 C                    -0.47616   0.7481    0.59177 
 H                     0.057    -0.17961   0.59177 
 H                    -1.54616   0.7481    0.59177 
 C                     0.25615   2.02258   0.74029 
 H                    -0.32396   2.76735   1.24396 
 H                     1.19098   1.8967    1.24541 
 O                     0.35777   2.19607  -1.24958 
 H                     0.8612    1.38501  -1.35125 
 

 GradGradGradGradGradGradGradGradGradGradGradGradGradGradGradGradGradGrad
 Berny optimization.
 Initialization pass.
                           ----------------------------
                           !    Initial Parameters    !
                           ! (Angstroms and Degrees)  !
 --------------------------                            --------------------------
 ! Name  Definition              Value          Derivative Info.                !
 --------------------------------------------------------------------------------
 ! R1    R(1,2)                  1.07           calculate D2E/DX2 analytically  !
 ! R2    R(1,3)                  1.07           calculate D2E/DX2 analytically  !
 ! R3    R(1,4)                  1.4774         calculate D2E/DX2 analytically  !
 ! R4    R(1,7)                  2.4865         calculate D2E/DX2 analytically  !
 ! R5    R(1,8)                  2.4433         calculate D2E/DX2 analytically  !
 ! R6    R(4,5)                  1.07           calculate D2E/DX2 analytically  !
 ! R7    R(4,6)                  1.07           calculate D2E/DX2 analytically  !
 ! R8    R(4,7)                  2.0            calculate D2E/DX2 analytically  !
 ! R9    R(4,8)                  2.2687         calculate D2E/DX2 analytically  !
 ! R10   R(7,8)                  0.96           calculate D2E/DX2 analytically  !
 ! A1    A(2,1,3)              119.8865         calculate D2E/DX2 analytically  !
 ! A2    A(2,1,4)              120.0628         calculate D2E/DX2 analytically  !
 ! A3    A(2,1,7)              109.7414         calculate D2E/DX2 analytically  !
 ! A4    A(2,1,8)               87.3215         calculate D2E/DX2 analytically  !
 ! A5    A(3,1,4)              119.7151         calculate D2E/DX2 analytically  !
 ! A6    A(3,1,7)              109.5959         calculate D2E/DX2 analytically  !
 ! A7    A(3,1,8)              123.1866         calculate D2E/DX2 analytically  !
 ! A8    A(1,4,5)              112.2738         calculate D2E/DX2 analytically  !
 ! A9    A(1,4,6)              112.2738         calculate D2E/DX2 analytically  !
 ! A10   A(5,4,6)              109.4712         calculate D2E/DX2 analytically  !
 ! A11   A(5,4,7)              115.8176         calculate D2E/DX2 analytically  !
 ! A12   A(5,4,8)              140.7288         calculate D2E/DX2 analytically  !
 ! A13   A(6,4,7)              115.8176         calculate D2E/DX2 analytically  !
 ! A14   A(6,4,8)               99.7386         calculate D2E/DX2 analytically  !
 ! D1    D(2,1,4,5)           -148.6203         calculate D2E/DX2 analytically  !
 ! D2    D(2,1,4,6)            -24.77           calculate D2E/DX2 analytically  !
 ! D3    D(3,1,4,5)             24.7212         calculate D2E/DX2 analytically  !
 ! D4    D(3,1,4,6)            148.5715         calculate D2E/DX2 analytically  !
 --------------------------------------------------------------------------------
 Trust Radius=3.00D-02 FncErr=1.00D-07 GrdErr=1.00D-07
 Number of steps in this run=  38 maximum allowed number of steps= 100.
 Search for a saddle point of order  1.
 GradGradGradGradGradGradGradGradGradGradGradGradGradGradGradGradGradGrad

                          Input orientation:                          
 ---------------------------------------------------------------------
 Center     Atomic      Atomic             Coordinates (Angstroms)
 Number     Number       Type             X           Y           Z
 ---------------------------------------------------------------------
      1          6           0       -0.476164    0.748099    0.591772
      2          1           0        0.057000   -0.179606    0.591772
      3          1           0       -1.546164    0.748099    0.591772
      4          6           0        0.256154    2.022581    0.740285
      5          1           0       -0.323955    2.767350    1.243962
      6          1           0        1.190980    1.896698    1.245413
      7          8           0        0.357767    2.196070   -1.249583
      8          1           0        0.861198    1.385009   -1.351252
 ---------------------------------------------------------------------
                    Distance matrix (angstroms):
                    1          2          3          4          5
     1  C    0.000000
     2  H    1.070000   0.000000
     3  H    1.070000   1.852234   0.000000
     4  C    1.477379   2.216155   2.212399   0.000000
     5  H    2.127415   3.042208   2.448780   1.070000   0.000000
     6  H    2.127415   2.454424   3.039487   1.070000   1.747303
     7  O    2.486493   3.020742   3.018635   2.000000   2.647428
     8  H    2.443263   2.621086   3.158542   2.268723   3.170267
                    6          7          8
     6  H    0.000000
     7  O    2.647428   0.000000
     8  H    2.667068   0.960000   0.000000
 Stoichiometry    C2H5O(2)
 Framework group  C1[X(C2H5O)]
 Deg. of freedom    18
 Full point group                 C1      NOp   1
 Largest Abelian subgroup         C1      NOp   1
 Largest concise Abelian subgroup C1      NOp   1
                         Standard orientation:                         
 ---------------------------------------------------------------------
 Center     Atomic      Atomic             Coordinates (Angstroms)
 Number     Number       Type             X           Y           Z
 ---------------------------------------------------------------------
      1          6           0       -1.063630   -0.533824   -0.026691
      2          1           0       -1.327523   -1.043244    0.876499
      3          1           0       -1.401677   -0.910367   -0.969474
      4          6           0       -0.361062    0.764390    0.034030
      5          1           0       -0.613513    1.401001   -0.788098
      6          1           0       -0.541844    1.280752    0.953588
      7          8           0        1.396401   -0.180283   -0.103510
      8          1           0        1.261497   -0.669277    0.711527
 ---------------------------------------------------------------------
 Rotational constants (GHZ):     24.1838312      8.9988806      7.3018204
 Standard basis: 6-31+G(d,p) (6D, 7F)
 There are    82 symmetry adapted basis functions of A   symmetry.
 Integral buffers will be    262144 words long.
 Raffenetti 2 integral format.
 Two-electron integral symmetry is turned on.
    82 basis functions,   131 primitive gaussians,    82 cartesian basis functions
    13 alpha electrons       12 beta electrons
       nuclear repulsion energy        68.7463623045 Hartrees.
 NAtoms=    8 NActive=    8 NUniq=    8 SFac= 7.50D-01 NAtFMM=   80 NAOKFM=F Big=F
 One-electron integrals computed using PRISM.
 NBasis=    82 RedAO= T  NBF=    82
 NBsUse=    82 1.00D-06 NBFU=    82
 Harris functional with IExCor=  205 diagonalized for initial guess.
 ExpMin= 4.38D-02 ExpMax= 5.48D+03 ExpMxC= 8.25D+02 IAcc=2 IRadAn=         0 AccDes= 0.00D+00
 HarFok:  IExCor=  205 AccDes= 0.00D+00 IRadAn=         0 IDoV= 1
 ScaDFX=  1.000000  1.000000  1.000000  1.000000
 FoFCou: FMM=F IPFlag=           0 FMFlag=      100000 FMFlg1=           0
         NFxFlg=           0 DoJE=T BraDBF=F KetDBF=T FulRan=T
         Omega=  0.000000  0.000000  1.000000  0.000000  0.000000 ICntrl=     500 IOpCl=  0
         NMat0=    1 NMatS0=    1 NMatT0=    0 NMatD0=    1 NMtDS0=    0 NMtDT0=    0
         I1Cent=           4 NGrid=           0.
 Petite list used in FoFCou.
 Initial guess orbital symmetries:
 Alpha Orbitals:
       Occupied  (A) (A) (A) (A) (A) (A) (A) (A) (A) (A) (A) (A)
                 (A)
       Virtual   (A) (A) (A) (A) (A) (A) (A) (A) (A) (A) (A) (A)
                 (A) (A) (A) (A) (A) (A) (A) (A) (A) (A) (A) (A)
                 (A) (A) (A) (A) (A) (A) (A) (A) (A) (A) (A) (A)
                 (A) (A) (A) (A) (A) (A) (A) (A) (A) (A) (A) (A)
                 (A) (A) (A) (A) (A) (A) (A) (A) (A) (A) (A) (A)
                 (A) (A) (A) (A) (A) (A) (A) (A) (A)
 Beta  Orbitals:
       Occupied  (A) (A) (A) (A) (A) (A) (A) (A) (A) (A) (A) (A)
       Virtual   (A) (A) (A) (A) (A) (A) (A) (A) (A) (A) (A) (A)
                 (A) (A) (A) (A) (A) (A) (A) (A) (A) (A) (A) (A)
                 (A) (A) (A) (A) (A) (A) (A) (A) (A) (A) (A) (A)
                 (A) (A) (A) (A) (A) (A) (A) (A) (A) (A) (A) (A)
                 (A) (A) (A) (A) (A) (A) (A) (A) (A) (A) (A) (A)
                 (A) (A) (A) (A) (A) (A) (A) (A) (A) (A)
 The electronic state of the initial guess is 2-A.
 Initial guess <Sx>= 0.0000 <Sy>= 0.0000 <Sz>= 0.5000 <S**2>= 0.7500 S= 0.5000
 Requested convergence on RMS density matrix=1.00D-08 within 128 cycles.
 Requested convergence on MAX density matrix=1.00D-06.
 Requested convergence on             energy=1.00D-06.
 No special actions if energy rises.
 Keep R1 and R2 ints in memory in canonical form, NReq=12443148.
 SCF Done:  E(UHF) =  -153.393001386     A.U. after   21 cycles
             Convg  =    0.7484D-08             -V/T =  2.0026
 <Sx>= 0.0000 <Sy>= 0.0000 <Sz>= 0.5000 <S**2>= 1.1473 S= 0.6821
 <L.S>= 0.000000000000E+00
 Annihilation of the first spin contaminant:
 S**2 before annihilation     1.1473,   after     0.7674
 Range of M.O.s used for correlation:     1    82
 NBasis=    82 NAE=    13 NBE=    12 NFC=     0 NFV=     0
 NROrb=     82 NOA=    13 NOB=    12 NVA=    69 NVB=    70

 **** Warning!!: The largest alpha MO coefficient is  0.31901669D+02


 **** Warning!!: The largest beta MO coefficient is  0.27520798D+02

 Symmetrizing basis deriv contribution to polar:
 IMax=3 JMax=2 DiffMx= 0.00D+00
 G2DrvN: will do     9 centers at a time, making    1 passes doing MaxLOS=2.
 Calling FoFCou, ICntrl=  3107 FMM=F I1Cent=   0 AccDes= 0.00D+00.
 FoFDir/FoFCou used for L=0 through L=2.
 End of G2Drv Frequency-dependent properties file   721 does not exist.
 End of G2Drv Frequency-dependent properties file   722 does not exist.
          IDoAtm=11111111
          Differentiating once with respect to nuclear coordinates.
          Keep R1 and R2 ints in memory in canonical form, NReq=12404469.
          There are    27 degrees of freedom in the 1st order CPHF.  IDoFFX=5.
     21 vectors produced by pass  0 Test12= 6.43D-11 3.70D-07 XBig12= 8.62D-02 9.39D-02.
 AX will form    21 AO Fock derivatives at one time.
     21 vectors produced by pass  1 Test12= 6.43D-11 3.70D-07 XBig12= 3.21D-03 1.34D-02.
     21 vectors produced by pass  2 Test12= 6.43D-11 3.70D-07 XBig12= 1.55D-04 3.27D-03.
     21 vectors produced by pass  3 Test12= 6.43D-11 3.70D-07 XBig12= 3.34D-06 6.56D-04.
     21 vectors produced by pass  4 Test12= 6.43D-11 3.70D-07 XBig12= 6.85D-08 5.11D-05.
     19 vectors produced by pass  5 Test12= 6.43D-11 3.70D-07 XBig12= 1.51D-09 6.68D-06.
      3 vectors produced by pass  6 Test12= 6.43D-11 3.70D-07 XBig12= 1.74D-11 6.44D-07.
 Inverted reduced A of dimension   127 with in-core refinement.
 End of Minotr Frequency-dependent properties file   721 does not exist.
 End of Minotr Frequency-dependent properties file   722 does not exist.

 **********************************************************************

            Population analysis using the SCF density.

 **********************************************************************

 Orbital symmetries:
 Alpha Orbitals:
       Occupied  (A) (A) (A) (A) (A) (A) (A) (A) (A) (A) (A) (A)
                 (A)
       Virtual   (A) (A) (A) (A) (A) (A) (A) (A) (A) (A) (A) (A)
                 (A) (A) (A) (A) (A) (A) (A) (A) (A) (A) (A) (A)
                 (A) (A) (A) (A) (A) (A) (A) (A) (A) (A) (A) (A)
                 (A) (A) (A) (A) (A) (A) (A) (A) (A) (A) (A) (A)
                 (A) (A) (A) (A) (A) (A) (A) (A) (A) (A) (A) (A)
                 (A) (A) (A) (A) (A) (A) (A) (A) (A)
 Beta  Orbitals:
       Occupied  (A) (A) (A) (A) (A) (A) (A) (A) (A) (A) (A) (A)
       Virtual   (A) (A) (A) (A) (A) (A) (A) (A) (A) (A) (A) (A)
                 (A) (A) (A) (A) (A) (A) (A) (A) (A) (A) (A) (A)
                 (A) (A) (A) (A) (A) (A) (A) (A) (A) (A) (A) (A)
                 (A) (A) (A) (A) (A) (A) (A) (A) (A) (A) (A) (A)
                 (A) (A) (A) (A) (A) (A) (A) (A) (A) (A) (A) (A)
                 (A) (A) (A) (A) (A) (A) (A) (A) (A) (A)
 The electronic state is 2-A.
 Alpha  occ. eigenvalues --  -20.61529 -11.25857 -11.24932  -1.35500  -1.02641
 Alpha  occ. eigenvalues --   -0.82339  -0.66361  -0.63155  -0.62267  -0.55432
 Alpha  occ. eigenvalues --   -0.53012  -0.51557  -0.37958
 Alpha virt. eigenvalues --    0.08702   0.09390   0.10284   0.11457   0.13085
 Alpha virt. eigenvalues --    0.14280   0.14801   0.21731   0.22558   0.24183
 Alpha virt. eigenvalues --    0.27076   0.33027   0.35091   0.36072   0.38166
 Alpha virt. eigenvalues --    0.44243   0.44678   0.45634   0.48683   0.80244
 Alpha virt. eigenvalues --    0.82493   0.89063   0.92101   0.94089   1.00586
 Alpha virt. eigenvalues --    1.14937   1.17363   1.23766   1.25119   1.28586
 Alpha virt. eigenvalues --    1.30776   1.37965   1.41909   1.46500   1.49721
 Alpha virt. eigenvalues --    1.58502   1.67969   1.78990   1.85905   1.88920
 Alpha virt. eigenvalues --    1.90018   2.01611   2.11505   2.24939   2.25336
 Alpha virt. eigenvalues --    2.27978   2.43298   2.46486   2.52375   2.58354
 Alpha virt. eigenvalues --    2.66581   2.70343   2.79191   2.81058   2.89707
 Alpha virt. eigenvalues --    2.92331   2.98987   3.01838   3.09147   3.15000
 Alpha virt. eigenvalues --    3.25969   3.65588   3.79454   3.81634   3.84498
 Alpha virt. eigenvalues --    3.93588   4.47500   4.72060   4.90979
  Beta  occ. eigenvalues --  -20.58076 -11.27569 -11.22816  -1.23500  -1.01065
  Beta  occ. eigenvalues --   -0.80609  -0.65065  -0.60548  -0.56492  -0.52910
  Beta  occ. eigenvalues --   -0.47524  -0.42202
  Beta virt. eigenvalues --    0.07285   0.09021   0.09450   0.11277   0.12285
  Beta virt. eigenvalues --    0.14276   0.14703   0.17585   0.21779   0.22829
  Beta virt. eigenvalues --    0.26063   0.29516   0.34616   0.35135   0.36831
  Beta virt. eigenvalues --    0.39510   0.43900   0.44468   0.45788   0.49232
  Beta virt. eigenvalues --    0.80434   0.82512   0.88688   0.94136   0.99287
  Beta virt. eigenvalues --    1.00605   1.15716   1.17176   1.25567   1.26350
  Beta virt. eigenvalues --    1.27949   1.30538   1.37957   1.47615   1.49922
  Beta virt. eigenvalues --    1.53924   1.59753   1.73296   1.81055   1.85389
  Beta virt. eigenvalues --    1.89913   1.93441   2.04995   2.16404   2.25758
  Beta virt. eigenvalues --    2.28748   2.30931   2.42706   2.47317   2.52317
  Beta virt. eigenvalues --    2.60456   2.67514   2.69803   2.80668   2.82489
  Beta virt. eigenvalues --    2.91773   2.92312   2.99174   3.03263   3.08681
  Beta virt. eigenvalues --    3.14967   3.25917   3.65445   3.79802   3.81626
  Beta virt. eigenvalues --    3.85350   3.93643   4.50076   4.72899   4.90648
          Condensed to atoms (all electrons):
              1          2          3          4          5          6
     1  C    5.299063   0.372441   0.375088   0.303073  -0.023362  -0.025621
     2  H    0.372441   0.526265  -0.023705  -0.011513   0.002978  -0.004141
     3  H    0.375088  -0.023705   0.502582  -0.003527  -0.004059   0.002908
     4  C    0.303073  -0.011513  -0.003527   5.196663   0.393621   0.378047
     5  H   -0.023362   0.002978  -0.004059   0.393621   0.523940  -0.034859
     6  H   -0.025621  -0.004141   0.002908   0.378047  -0.034859   0.549618
     7  O   -0.049122   0.000630  -0.000841   0.004632  -0.007805  -0.007732
     8  H    0.013195  -0.000432   0.000284  -0.005971   0.001191  -0.001056
              7          8
     1  C   -0.049122   0.013195
     2  H    0.000630  -0.000432
     3  H   -0.000841   0.000284
     4  C    0.004632  -0.005971
     5  H   -0.007805   0.001191
     6  H   -0.007732  -0.001056
     7  O    8.217412   0.242040
     8  H    0.242040   0.411693
 Mulliken atomic charges:
              1
     1  C   -0.264754
     2  H    0.137477
     3  H    0.151270
     4  C   -0.255025
     5  H    0.148355
     6  H    0.142836
     7  O   -0.399214
     8  H    0.339055
 Sum of Mulliken atomic charges =   0.00000
 Mulliken charges with hydrogens summed into heavy atoms:
              1
     1  C    0.023993
     4  C    0.036166
     7  O   -0.060159
 Sum of Mulliken charges with hydrogens summed into heavy atoms =   0.00000
          Atomic-Atomic Spin Densities.
              1          2          3          4          5          6
     1  C    1.253463   0.011158   0.010123   0.034309  -0.004020  -0.007701
     2  H    0.011158  -0.079382   0.000113  -0.020732   0.000120   0.000497
     3  H    0.010123   0.000113  -0.078105  -0.020122   0.000389   0.000124
     4  C    0.034309  -0.020732  -0.020122  -0.930933   0.006198   0.016795
     5  H   -0.004020   0.000120   0.000389   0.006198   0.052254  -0.001297
     6  H   -0.007701   0.000497   0.000124   0.016795  -0.001297   0.041875
     7  O   -0.066853   0.001071   0.000495  -0.009217  -0.000723  -0.003590
     8  H    0.002797  -0.000063  -0.000035  -0.001847  -0.000028   0.000457
              7          8
     1  C   -0.066853   0.002797
     2  H    0.001071  -0.000063
     3  H    0.000495  -0.000035
     4  C   -0.009217  -0.001847
     5  H   -0.000723  -0.000028
     6  H   -0.003590   0.000457
     7  O    0.878217   0.005318
     8  H    0.005318  -0.044858
 Mulliken atomic spin densities:
              1
     1  C    1.233276
     2  H   -0.087218
     3  H   -0.087019
     4  C   -0.925549
     5  H    0.052893
     6  H    0.047158
     7  O    0.804718
     8  H   -0.038259
 Sum of Mulliken atomic spin densities =   1.00000
 APT atomic charges:
              1
     1  C   -0.714363
     2  H    0.391168
     3  H    0.416908
     4  C   -0.804622
     5  H    0.431816
     6  H    0.406225
     7  O   -0.600285
     8  H    0.473154
 Sum of APT charges=   0.00000
 APT Atomic charges with hydrogens summed into heavy atoms:
              1
     1  C    0.093714
     2  H    0.000000
     3  H    0.000000
     4  C    0.033418
     5  H    0.000000
     6  H    0.000000
     7  O   -0.127132
     8  H    0.000000
 Sum of APT charges=   0.00000
 Electronic spatial extent (au):  <R**2>=            202.2107
 Charge=              0.0000 electrons
 Dipole moment (field-independent basis, Debye):
    X=             -1.7077    Y=             -0.2588    Z=              1.4237  Tot=              2.2383
 Quadrupole moment (field-independent basis, Debye-Ang):
   XX=            -22.4623   YY=            -18.2850   ZZ=            -17.7620
   XY=             -1.1698   XZ=              2.1806   YZ=             -1.3494
 Traceless Quadrupole moment (field-independent basis, Debye-Ang):
   XX=             -2.9592   YY=              1.2181   ZZ=              1.7411
   XY=             -1.1698   XZ=              2.1806   YZ=             -1.3494
 Octapole moment (field-independent basis, Debye-Ang**2):
  XXX=              4.9356  YYY=              0.4847  ZZZ=              1.1554  XYY=              0.9463
  XXY=             -3.5205  XXZ=              2.0841  XZZ=              1.0705  YZZ=             -0.8119
  YYZ=              0.9148  XYZ=             -1.6080
 Hexadecapole moment (field-independent basis, Debye-Ang**3):
 XXXX=           -164.7221 YYYY=            -73.5294 ZZZZ=            -32.1986 XXXY=             -4.2038
 XXXZ=              4.2493 YYYX=             -3.8496 YYYZ=             -1.9979 ZZZX=              2.2111
 ZZZY=             -1.2173 XXYY=            -35.5949 XXZZ=            -28.3714 YYZZ=            -15.2426
 XXYZ=             -2.3072 YYXZ=              1.3580 ZZXY=             -0.8202
 N-N= 6.874636230450D+01 E-N=-7.400838393721D+02  KE= 2.281392777550D+02
  Exact polarizability:   0.000   0.000   0.000   0.000   0.000   0.000
 Approx polarizability:  25.350   0.087  24.790  -0.347  -0.372  22.050
                          Isotropic Fermi Contact Couplings
        Atom                 a.u.       MegaHertz       Gauss      10(-4) cm-1
     1  C(13)              0.18383     206.65750      73.74053      68.93352
     2  H(1)              -0.02465    -110.17431     -39.31293     -36.75019
     3  H(1)              -0.02507    -112.04783     -39.98145     -37.37513
     4  C(13)             -0.22188    -249.43468     -89.00449     -83.20245
     5  H(1)               0.01375      61.45444      21.92847      20.49900
     6  H(1)               0.01154      51.59092      18.40892      17.20888
     7  O(17)              0.12901     -78.20237     -27.90455     -26.08550
     8  H(1)              -0.02023     -90.43880     -32.27081     -30.16714
 --------------------------------------------------------
       Center         ----  Spin Dipole Couplings  ----
                      3XX-RR        3YY-RR        3ZZ-RR
 --------------------------------------------------------
     1   Atom        0.591836     -0.150965     -0.440871
     2   Atom       -0.005639     -0.027844      0.033483
     3   Atom        0.000520     -0.042139      0.041619
     4   Atom       -0.543785      0.267971      0.275815
     5   Atom        0.003348      0.023631     -0.026979
     6   Atom        0.004997      0.031275     -0.036272
     7   Atom        2.210537     -0.741981     -1.468556
     8   Atom       -0.043367     -0.045072      0.088439
 --------------------------------------------------------
                        XY            XZ            YZ
 --------------------------------------------------------
     1   Atom       -0.565874     -0.090829      0.048712
     2   Atom       -0.015446     -0.032113     -0.051699
     3   Atom       -0.015781      0.034429      0.041128
     4   Atom        0.145949      0.049613     -0.007193
     5   Atom        0.014315     -0.008902      0.030476
     6   Atom        0.010304      0.006147     -0.023586
     7   Atom       -1.530841     -0.267819      0.120217
     8   Atom        0.002643     -0.028380     -0.115171
 --------------------------------------------------------


 ---------------------------------------------------------------------------------
              Anisotropic Spin Dipole Couplings in Principal Axis System
 ---------------------------------------------------------------------------------

       Atom             a.u.   MegaHertz   Gauss  10(-4) cm-1        Axes

              Baa    -0.4564   -61.250   -21.856   -20.431  0.4771  0.8781  0.0363
     1 C(13)  Bbb    -0.4488   -60.218   -21.487   -20.087  0.0498 -0.0683  0.9964
              Bcc     0.9052   121.469    43.343    40.518  0.8774 -0.4736 -0.0763
 
              Baa    -0.0711   -37.919   -13.530   -12.648  0.4245  0.7530  0.5027
     2 H(1)   Bbb     0.0021     1.114     0.397     0.372  0.8592 -0.5102  0.0387
              Bcc     0.0690    36.805    13.133    12.277 -0.2856 -0.4155  0.8636
 
              Baa    -0.0706   -37.644   -13.432   -12.557  0.3857  0.8217 -0.4196
     3 H(1)   Bbb     0.0014     0.755     0.269     0.252  0.8404 -0.5006 -0.2076
              Bcc     0.0691    36.889    13.163    12.305  0.3807  0.2726  0.8836
 
              Baa    -0.5722   -76.782   -27.398   -25.612  0.9834 -0.1713 -0.0590
     4 C(13)  Bbb     0.2786    37.390    13.342    12.472  0.0413 -0.1051  0.9936
              Bcc     0.2936    39.392    14.056    13.140  0.1764  0.9796  0.0963
 
              Baa    -0.0455   -24.260    -8.657    -8.092  0.2835 -0.4355  0.8544
     5 H(1)   Bbb     0.0051     2.719     0.970     0.907  0.9241 -0.1140 -0.3648
              Bcc     0.0404    21.541     7.686     7.185  0.2562  0.8929  0.3702
 
              Baa    -0.0453   -24.176    -8.627    -8.064 -0.1778  0.3114  0.9335
     6 H(1)   Bbb     0.0048     2.547     0.909     0.849  0.9580 -0.1620  0.2366
              Bcc     0.0405    21.629     7.718     7.215  0.2249  0.9364 -0.2695
 
              Baa    -1.4887   107.723    38.438    35.933  0.0379 -0.0825  0.9959
     7 O(17)  Bbb    -1.3921   100.728    35.942    33.599  0.3942  0.9170  0.0610
              Bcc     2.8808  -208.451   -74.380   -69.532  0.9182 -0.3902 -0.0673
 
              Baa    -0.1135   -60.569   -21.613   -20.204  0.1729  0.8449  0.5061
     8 H(1)   Bbb    -0.0446   -23.808    -8.495    -7.941  0.9766 -0.2138  0.0233
              Bcc     0.1581    84.377    30.108    28.145 -0.1279 -0.4903  0.8621
 

 ---------------------------------------------------------------------------------

 Calling FoFJK, ICntrl=    100147 FMM=F ISym2X=0 I1Cent= 0 IOpClX= 1 NMat=1 NMatS=1 NMatT=0.
 ***** Axes restored to original set *****
 -------------------------------------------------------------------
 Center     Atomic                   Forces (Hartrees/Bohr)
 Number     Number              X              Y              Z
 -------------------------------------------------------------------
      1        6           0.020970550    0.039921527    0.022268689
      2        1           0.000414377   -0.004498671   -0.004182076
      3        1          -0.002601463   -0.002044122   -0.005686688
      4        6          -0.039615725   -0.069772177    0.016889193
      5        1          -0.003846416    0.017557056   -0.018396188
      6        1           0.017542895    0.005204300   -0.015714292
      7        8           0.012466557    0.004187252    0.006348379
      8        1          -0.005330777    0.009444835   -0.001527017
 -------------------------------------------------------------------
 Cartesian Forces:  Max     0.069772177 RMS     0.021320788

 GradGradGradGradGradGradGradGradGradGradGradGradGradGradGradGradGradGrad
 Berny optimization.
 Internal  Forces:  Max     0.048513834 RMS     0.013247841
 Search for a saddle point.
 Step number   1 out of a maximum of   38
 All quantities printed in internal units (Hartrees-Bohrs-Radians)
 Swaping is turned off.
 Second derivative matrix not updated -- analytic derivatives used.
     Eigenvalues ---   -0.06643   0.00630   0.00969   0.01298   0.01665
     Eigenvalues ---    0.03623   0.04276   0.05634   0.10226   0.10776
     Eigenvalues ---    0.16419   0.18366   0.29966   0.40659   0.40918
     Eigenvalues ---    0.41099   0.41207   0.526901000.000001000.00000
     Eigenvalues --- 1000.000001000.000001000.000001000.000001000.00000
     Eigenvalues --- 1000.000001000.000001000.00000
 Eigenvectors required to have negative eigenvalues:
                          R8        R9        A6        R3        A13
   1                    0.92132   0.27139  -0.13035  -0.10149   0.09809
                          A4        A3        D2        A11       R5
   1                   -0.08676  -0.07906   0.06594   0.06295  -0.06284
 RFO step:  Lambda0=2.711465811D-03 Lambda=-3.34885488D-02.
 Linear search not attempted -- option 19 set.
 Maximum step size (   0.030) exceeded in Quadratic search.
    -- Step size scaled by   0.049
 Iteration  1 RMS(Cart)=  0.00365285 RMS(Int)=  0.00002975
 Iteration  2 RMS(Cart)=  0.00002532 RMS(Int)=  0.00001786
 Iteration  3 RMS(Cart)=  0.00000000 RMS(Int)=  0.00001786
 Variable       Old X    -DE/DX   Delta X   Delta X   Delta X     New X
                                 (Linear)    (Quad)   (Total)
    R1        2.02201   0.00411   0.00000   0.00054   0.00054   2.02255
    R2        2.02201   0.00260   0.00000   0.00038   0.00038   2.02238
    R3        2.79184  -0.04851   0.00000  -0.01058  -0.01058   2.78127
    R4        4.69879   0.01409   0.00000   0.00829   0.00828   4.70707
    R5        4.61710   0.00220   0.00000   0.00123   0.00123   4.61833
    R6        2.02201   0.00565   0.00000   0.00042   0.00042   2.02242
    R7        2.02201   0.00730   0.00000   0.00053   0.00053   2.02254
    R8        3.77945  -0.01677   0.00000   0.00757   0.00758   3.78703
    R9        4.28726  -0.00201   0.00000   0.00529   0.00528   4.29255
   R10        1.81414  -0.00572   0.00000  -0.00078  -0.00078   1.81336
    A1        2.09241  -0.00272   0.00000  -0.00194  -0.00195   2.09047
    A2        2.09549   0.00215   0.00000   0.00120   0.00120   2.09669
    A3        1.91535  -0.00137   0.00000  -0.00194  -0.00194   1.91341
    A4        1.52405   0.00125   0.00000  -0.00122  -0.00122   1.52283
    A5        2.08942   0.00131   0.00000   0.00137   0.00136   2.09079
    A6        1.91281   0.00586   0.00000  -0.00151  -0.00150   1.91131
    A7        2.15001  -0.00820   0.00000  -0.00523  -0.00524   2.14477
    A8        1.95955   0.01264   0.00000   0.00540   0.00536   1.96490
    A9        1.95955   0.01308   0.00000   0.00558   0.00554   1.96509
   A10        1.91063  -0.00315   0.00000   0.00432   0.00426   1.91489
   A11        2.02140  -0.01538   0.00000  -0.00878  -0.00879   2.01261
   A12        2.45618  -0.01744   0.00000  -0.00963  -0.00964   2.44654
   A13        2.02140  -0.02499   0.00000  -0.00941  -0.00943   2.01197
   A14        1.74077  -0.00353   0.00000  -0.00369  -0.00369   1.73707
    D1       -2.59391  -0.01132   0.00000  -0.01005  -0.01007  -2.60398
    D2       -0.43232   0.00425   0.00000   0.00410   0.00412  -0.42820
    D3        0.43147  -0.00422   0.00000  -0.00391  -0.00393   0.42753
    D4        2.59306   0.01136   0.00000   0.01024   0.01025   2.60331
         Item               Value     Threshold  Converged?
 Maximum Force            0.048514     0.000450     NO 
 RMS     Force            0.013248     0.000300     NO 
 Maximum Displacement     0.008046     0.001800     NO 
 RMS     Displacement     0.003659     0.001200     NO 
 Predicted change in Energy=-1.473904D-03
 GradGradGradGradGradGradGradGradGradGradGradGradGradGradGradGradGradGrad

                          Input orientation:                          
 ---------------------------------------------------------------------
 Center     Atomic      Atomic             Coordinates (Angstroms)
 Number     Number       Type             X           Y           Z
 ---------------------------------------------------------------------
      1          6           0       -0.475519    0.748672    0.594739
      2          1           0        0.057037   -0.179709    0.591917
      3          1           0       -1.545709    0.747472    0.590734
      4          6           0        0.253792    2.018323    0.743861
      5          1           0       -0.325101    2.768854    1.240810
      6          1           0        1.192638    1.896990    1.243205
      7          8           0        0.361634    2.199211   -1.249054
      8          1           0        0.858044    1.384488   -1.352070
 ---------------------------------------------------------------------
                    Distance matrix (angstroms):
                    1          2          3          4          5
     1  C    0.000000
     2  H    1.070288   0.000000
     3  H    1.070199   1.851611   0.000000
     4  C    1.471782   2.212045   2.208328   0.000000
     5  H    2.126304   3.043208   2.449177   1.070220   0.000000
     6  H    2.126473   2.454882   3.040667   1.070280   1.750339
     7  O    2.490875   3.023444   3.021642   2.004011   2.644904
     8  H    2.443914   2.620574   3.155678   2.271518   3.168489
                    6          7          8
     6  H    0.000000
     7  O    2.644478   0.000000
     8  H    2.666470   0.959588   0.000000
 Stoichiometry    C2H5O(2)
 Framework group  C1[X(C2H5O)]
 Deg. of freedom    18
 Full point group                 C1      NOp   1
 Largest Abelian subgroup         C1      NOp   1
 Largest concise Abelian subgroup C1      NOp   1
                         Standard orientation:                         
 ---------------------------------------------------------------------
 Center     Atomic      Atomic             Coordinates (Angstroms)
 Number     Number       Type             X           Y           Z
 ---------------------------------------------------------------------
      1          6           0       -1.065270   -0.531559   -0.026975
      2          1           0       -1.327482   -1.043968    0.875353
      3          1           0       -1.401423   -0.909951   -0.969921
      4          6           0       -0.365040    0.761517    0.034477
      5          1           0       -0.608553    1.400261   -0.788978
      6          1           0       -0.536721    1.278680    0.955654
      7          8           0        1.399325   -0.178787   -0.103013
      8          1           0        1.261444   -0.674478    0.706980
 ---------------------------------------------------------------------
 Rotational constants (GHZ):     24.2917926      8.9681110      7.2906609
 Standard basis: 6-31+G(d,p) (6D, 7F)
 There are    82 symmetry adapted basis functions of A   symmetry.
 Integral buffers will be    262144 words long.
 Raffenetti 2 integral format.
 Two-electron integral symmetry is turned on.
    82 basis functions,   131 primitive gaussians,    82 cartesian basis functions
    13 alpha electrons       12 beta electrons
       nuclear repulsion energy        68.7562038298 Hartrees.
 NAtoms=    8 NActive=    8 NUniq=    8 SFac= 7.50D-01 NAtFMM=   80 NAOKFM=F Big=F
 One-electron integrals computed using PRISM.
 NBasis=    82 RedAO= T  NBF=    82
 NBsUse=    82 1.00D-06 NBFU=    82
 Initial guess read from the read-write file.
 B after Tr=     0.000000    0.000000    0.000000
         Rot=    1.000000    0.000000    0.000000    0.000000 Ang=   0.00 deg.
 Initial guess orbital symmetries:
 Alpha Orbitals:
       Occupied  (A) (A) (A) (A) (A) (A) (A) (A) (A) (A) (A) (A)
                 (A)
       Virtual   (A) (A) (A) (A) (A) (A) (A) (A) (A) (A) (A) (A)
                 (A) (A) (A) (A) (A) (A) (A) (A) (A) (A) (A) (A)
                 (A) (A) (A) (A) (A) (A) (A) (A) (A) (A) (A) (A)
                 (A) (A) (A) (A) (A) (A) (A) (A) (A) (A) (A) (A)
                 (A) (A) (A) (A) (A) (A) (A) (A) (A) (A) (A) (A)
                 (A) (A) (A) (A) (A) (A) (A) (A) (A)
 Beta  Orbitals:
       Occupied  (A) (A) (A) (A) (A) (A) (A) (A) (A) (A) (A) (A)
       Virtual   (A) (A) (A) (A) (A) (A) (A) (A) (A) (A) (A) (A)
                 (A) (A) (A) (A) (A) (A) (A) (A) (A) (A) (A) (A)
                 (A) (A) (A) (A) (A) (A) (A) (A) (A) (A) (A) (A)
                 (A) (A) (A) (A) (A) (A) (A) (A) (A) (A) (A) (A)
                 (A) (A) (A) (A) (A) (A) (A) (A) (A) (A) (A) (A)
                 (A) (A) (A) (A) (A) (A) (A) (A) (A) (A)
 Initial guess <Sx>= 0.0000 <Sy>= 0.0000 <Sz>= 0.5000 <S**2>= 1.1465 S= 0.6817
 Requested convergence on RMS density matrix=1.00D-08 within 128 cycles.
 Requested convergence on MAX density matrix=1.00D-06.
 Requested convergence on             energy=1.00D-06.
 No special actions if energy rises.
 Keep R1 and R2 ints in memory in canonical form, NReq=12443148.
 SCF Done:  E(UHF) =  -153.394475326     A.U. after   16 cycles
             Convg  =    0.3704D-08             -V/T =  2.0025
 <Sx>= 0.0000 <Sy>= 0.0000 <Sz>= 0.5000 <S**2>= 1.1435 S= 0.6805
 <L.S>= 0.000000000000E+00
 Annihilation of the first spin contaminant:
 S**2 before annihilation     1.1435,   after     0.7670
 Calling FoFJK, ICntrl=      2127 FMM=F ISym2X=0 I1Cent= 0 IOpClX= 1 NMat=1 NMatS=1 NMatT=0.
 ***** Axes restored to original set *****
 -------------------------------------------------------------------
 Center     Atomic                   Forces (Hartrees/Bohr)
 Number     Number              X              Y              Z
 -------------------------------------------------------------------
      1        6           0.019996754    0.038104278    0.021786491
      2        1           0.000381574   -0.004294315   -0.004140119
      3        1          -0.002464978   -0.001963327   -0.005639462
      4        6          -0.038094822   -0.067129919    0.017374646
      5        1          -0.003589084    0.016946326   -0.018177169
      6        1           0.016849180    0.005104875   -0.015524628
      7        8           0.011943236    0.004141409    0.005923504
      8        1          -0.005021860    0.009090672   -0.001603262
 -------------------------------------------------------------------
 Cartesian Forces:  Max     0.067129919 RMS     0.020565127

 GradGradGradGradGradGradGradGradGradGradGradGradGradGradGradGradGradGrad
 Berny optimization.
 Internal  Forces:  Max     0.046396071 RMS     0.012749826
 Search for a saddle point.
 Step number   2 out of a maximum of   38
 All quantities printed in internal units (Hartrees-Bohrs-Radians)
 Swaping is turned off.
 Update second derivatives using D2CorX and points    1    2
     Eigenvalues ---   -0.06642   0.00630   0.00968   0.01305   0.01664
     Eigenvalues ---    0.03623   0.04223   0.05631   0.10227   0.10780
     Eigenvalues ---    0.16403   0.18364   0.30011   0.40659   0.40918
     Eigenvalues ---    0.41099   0.41206   0.526891000.000001000.00000
     Eigenvalues --- 1000.000001000.000001000.000001000.000001000.00000
     Eigenvalues --- 1000.000001000.000001000.00000
 Eigenvectors required to have negative eigenvalues:
                          R8        R9        A6        R3        A13
   1                    0.92037   0.27203  -0.13123  -0.10092   0.09959
                          A4        A3        D2        R5        A11
   1                   -0.08752  -0.07890   0.06766  -0.06326   0.06325
 RFO step:  Lambda0=2.473436404D-03 Lambda=-3.19566075D-02.
 Linear search not attempted -- option 19 set.
 Maximum step size (   0.030) exceeded in Quadratic search.
    -- Step size scaled by   0.049
 Iteration  1 RMS(Cart)=  0.00369809 RMS(Int)=  0.00003012
 Iteration  2 RMS(Cart)=  0.00002563 RMS(Int)=  0.00001781
 Iteration  3 RMS(Cart)=  0.00000000 RMS(Int)=  0.00001781
 Variable       Old X    -DE/DX   Delta X   Delta X   Delta X     New X
                                 (Linear)    (Quad)   (Total)
    R1        2.02255   0.00393   0.00000   0.00053   0.00053   2.02308
    R2        2.02238   0.00249   0.00000   0.00036   0.00036   2.02275
    R3        2.78127  -0.04640   0.00000  -0.01020  -0.01019   2.77107
    R4        4.70707   0.01358   0.00000   0.00837   0.00836   4.71543
    R5        4.61833   0.00218   0.00000   0.00136   0.00137   4.61969
    R6        2.02242   0.00539   0.00000   0.00039   0.00039   2.02281
    R7        2.02254   0.00696   0.00000   0.00049   0.00049   2.02303
    R8        3.78703  -0.01593   0.00000   0.00728   0.00729   3.79432
    R9        4.29255  -0.00186   0.00000   0.00527   0.00527   4.29781
   R10        1.81336  -0.00541   0.00000  -0.00075  -0.00075   1.81261
    A1        2.09047  -0.00264   0.00000  -0.00188  -0.00189   2.08858
    A2        2.09669   0.00206   0.00000   0.00115   0.00115   2.09784
    A3        1.91341  -0.00136   0.00000  -0.00188  -0.00189   1.91152
    A4        1.52283   0.00123   0.00000  -0.00114  -0.00114   1.52169
    A5        2.09079   0.00126   0.00000   0.00133   0.00132   2.09211
    A6        1.91131   0.00566   0.00000  -0.00153  -0.00152   1.90978
    A7        2.14477  -0.00804   0.00000  -0.00534  -0.00536   2.13941
    A8        1.96490   0.01205   0.00000   0.00530   0.00526   1.97016
    A9        1.96509   0.01245   0.00000   0.00545   0.00541   1.97050
   A10        1.91489  -0.00309   0.00000   0.00433   0.00427   1.91916
   A11        2.01261  -0.01503   0.00000  -0.00894  -0.00894   2.00367
   A12        2.44654  -0.01703   0.00000  -0.00979  -0.00980   2.43674
   A13        2.01197  -0.02431   0.00000  -0.00946  -0.00948   2.00249
   A14        1.73707  -0.00347   0.00000  -0.00367  -0.00368   1.73340
    D1       -2.60398  -0.01113   0.00000  -0.01018  -0.01019  -2.61417
    D2       -0.42820   0.00416   0.00000   0.00417   0.00418  -0.42402
    D3        0.42753  -0.00414   0.00000  -0.00398  -0.00400   0.42353
    D4        2.60331   0.01115   0.00000   0.01036   0.01037   2.61369
         Item               Value     Threshold  Converged?
 Maximum Force            0.046396     0.000450     NO 
 RMS     Force            0.012750     0.000300     NO 
 Maximum Displacement     0.007908     0.001800     NO 
 RMS     Displacement     0.003705     0.001200     NO 
 Predicted change in Energy=-1.423285D-03
 GradGradGradGradGradGradGradGradGradGradGradGradGradGradGradGradGradGrad

                          Input orientation:                          
 ---------------------------------------------------------------------
 Center     Atomic      Atomic             Coordinates (Angstroms)
 Number     Number       Type             X           Y           Z
 ---------------------------------------------------------------------
      1          6           0       -0.474915    0.749141    0.597736
      2          1           0        0.057065   -0.179879    0.592145
      3          1           0       -1.545274    0.746794    0.589672
      4          6           0        0.251495    2.014138    0.747422
      5          1           0       -0.326217    2.770373    1.237489
      6          1           0        1.194279    1.897272    1.240939
      7          8           0        0.365597    2.202441   -1.248337
      8          1           0        0.854785    1.384022   -1.352924
 ---------------------------------------------------------------------
                    Distance matrix (angstroms):
                    1          2          3          4          5
     1  C    0.000000
     2  H    1.070567   0.000000
     3  H    1.070392   1.851005   0.000000
     4  C    1.466388   2.208082   2.204410   0.000000
     5  H    2.125270   3.044235   2.449620   1.070425   0.000000
     6  H    2.125588   2.455351   3.041858   1.070541   1.753348
     7  O    2.495300   3.026221   3.024668   2.007867   2.642061
     8  H    2.444637   2.620198   3.152780   2.274304   3.166540
                    6          7          8
     6  H    0.000000
     7  O    2.641276   0.000000
     8  H    2.665860   0.959194   0.000000
 Stoichiometry    C2H5O(2)
 Framework group  C1[X(C2H5O)]
 Deg. of freedom    18
 Full point group                 C1      NOp   1
 Largest Abelian subgroup         C1      NOp   1
 Largest concise Abelian subgroup C1      NOp   1
                         Standard orientation:                         
 ---------------------------------------------------------------------
 Center     Atomic      Atomic             Coordinates (Angstroms)
 Number     Number       Type             X           Y           Z
 ---------------------------------------------------------------------
      1          6           0       -1.067079   -0.529196   -0.027259
      2          1           0       -1.327732   -1.044481    0.874215
      3          1           0       -1.401358   -0.909347   -0.970382
      4          6           0       -0.368770    0.758745    0.034933
      5          1           0       -0.603128    1.399523   -0.789864
      6          1           0       -0.531257    1.276598    0.957692
      7          8           0        1.402159   -0.177446   -0.102496
      8          1           0        1.261291   -0.680017    0.702260
 ---------------------------------------------------------------------
 Rotational constants (GHZ):     24.3991410      8.9377347      7.2794679
 Standard basis: 6-31+G(d,p) (6D, 7F)
 There are    82 symmetry adapted basis functions of A   symmetry.
 Integral buffers will be    262144 words long.
 Raffenetti 2 integral format.
 Two-electron integral symmetry is turned on.
    82 basis functions,   131 primitive gaussians,    82 cartesian basis functions
    13 alpha electrons       12 beta electrons
       nuclear repulsion energy        68.7656682333 Hartrees.
 NAtoms=    8 NActive=    8 NUniq=    8 SFac= 7.50D-01 NAtFMM=   80 NAOKFM=F Big=F
 One-electron integrals computed using PRISM.
 NBasis=    82 RedAO= T  NBF=    82
 NBsUse=    82 1.00D-06 NBFU=    82
 Initial guess read from the read-write file.
 B after Tr=     0.000000    0.000000    0.000000
         Rot=    1.000000    0.000000    0.000000    0.000000 Ang=   0.00 deg.
 Initial guess orbital symmetries:
 Alpha Orbitals:
       Occupied  (A) (A) (A) (A) (A) (A) (A) (A) (A) (A) (A) (A)
                 (A)
       Virtual   (A) (A) (A) (A) (A) (A) (A) (A) (A) (A) (A) (A)
                 (A) (A) (A) (A) (A) (A) (A) (A) (A) (A) (A) (A)
                 (A) (A) (A) (A) (A) (A) (A) (A) (A) (A) (A) (A)
                 (A) (A) (A) (A) (A) (A) (A) (A) (A) (A) (A) (A)
                 (A) (A) (A) (A) (A) (A) (A) (A) (A) (A) (A) (A)
                 (A) (A) (A) (A) (A) (A) (A) (A) (A)
 Beta  Orbitals:
       Occupied  (A) (A) (A) (A) (A) (A) (A) (A) (A) (A) (A) (A)
       Virtual   (A) (A) (A) (A) (A) (A) (A) (A) (A) (A) (A) (A)
                 (A) (A) (A) (A) (A) (A) (A) (A) (A) (A) (A) (A)
                 (A) (A) (A) (A) (A) (A) (A) (A) (A) (A) (A) (A)
                 (A) (A) (A) (A) (A) (A) (A) (A) (A) (A) (A) (A)
                 (A) (A) (A) (A) (A) (A) (A) (A) (A) (A) (A) (A)
                 (A) (A) (A) (A) (A) (A) (A) (A) (A) (A)
 Initial guess <Sx>= 0.0000 <Sy>= 0.0000 <Sz>= 0.5000 <S**2>= 1.1427 S= 0.6801
 Requested convergence on RMS density matrix=1.00D-08 within 128 cycles.
 Requested convergence on MAX density matrix=1.00D-06.
 Requested convergence on             energy=1.00D-06.
 No special actions if energy rises.
 Keep R1 and R2 ints in memory in canonical form, NReq=12443148.
 SCF Done:  E(UHF) =  -153.395898618     A.U. after   16 cycles
             Convg  =    0.3668D-08             -V/T =  2.0025
 <Sx>= 0.0000 <Sy>= 0.0000 <Sz>= 0.5000 <S**2>= 1.1395 S= 0.6788
 <L.S>= 0.000000000000E+00
 Annihilation of the first spin contaminant:
 S**2 before annihilation     1.1395,   after     0.7666
 Calling FoFJK, ICntrl=      2127 FMM=F ISym2X=0 I1Cent= 0 IOpClX= 1 NMat=1 NMatS=1 NMatT=0.
 ***** Axes restored to original set *****
 -------------------------------------------------------------------
 Center     Atomic                   Forces (Hartrees/Bohr)
 Number     Number              X              Y              Z
 -------------------------------------------------------------------
      1        6           0.019035141    0.036310537    0.021283292
      2        1           0.000351034   -0.004097417   -0.004088285
      3        1          -0.002333466   -0.001883752   -0.005582715
      4        6          -0.036601509   -0.064525983    0.017819461
      5        1          -0.003338491    0.016347029   -0.017946126
      6        1           0.016173928    0.005006347   -0.015322232
      7        8           0.011440169    0.004095918    0.005510439
      8        1          -0.004726805    0.008747321   -0.001673833
 -------------------------------------------------------------------
 Cartesian Forces:  Max     0.064525983 RMS     0.019822027

 GradGradGradGradGradGradGradGradGradGradGradGradGradGradGradGradGradGrad
 Berny optimization.
 Internal  Forces:  Max     0.044310496 RMS     0.012261800
 Search for a saddle point.
 Step number   3 out of a maximum of   38
 All quantities printed in internal units (Hartrees-Bohrs-Radians)
 Swaping is turned off.
 Update second derivatives using D2CorX and points    1    2    3
     Eigenvalues ---   -0.06643   0.00630   0.00967   0.01319   0.01663
     Eigenvalues ---    0.03624   0.04131   0.05625   0.10228   0.10788
     Eigenvalues ---    0.16377   0.18361   0.30095   0.40659   0.40918
     Eigenvalues ---    0.41099   0.41205   0.526891000.000001000.00000
     Eigenvalues --- 1000.000001000.000001000.000001000.000001000.00000
     Eigenvalues --- 1000.000001000.000001000.00000
 Eigenvectors required to have negative eigenvalues:
                          R8        R9        A6        A13       R3
   1                    0.91947   0.27284  -0.13186   0.10060  -0.09956
                          A4        A3        D2        R5        A11
   1                   -0.08811  -0.07854   0.06986  -0.06371   0.06317
 RFO step:  Lambda0=2.248183362D-03 Lambda=-3.04887033D-02.
 Linear search not attempted -- option 19 set.
 Maximum step size (   0.030) exceeded in Quadratic search.
    -- Step size scaled by   0.049
 Iteration  1 RMS(Cart)=  0.00376392 RMS(Int)=  0.00003080
 Iteration  2 RMS(Cart)=  0.00002613 RMS(Int)=  0.00001790
 Iteration  3 RMS(Cart)=  0.00000000 RMS(Int)=  0.00001790
 Variable       Old X    -DE/DX   Delta X   Delta X   Delta X     New X
                                 (Linear)    (Quad)   (Total)
    R1        2.02308   0.00375   0.00000   0.00051   0.00051   2.02359
    R2        2.02275   0.00238   0.00000   0.00035   0.00035   2.02310
    R3        2.77107  -0.04431   0.00000  -0.00970  -0.00969   2.76138
    R4        4.71543   0.01309   0.00000   0.00854   0.00853   4.72397
    R5        4.61969   0.00215   0.00000   0.00150   0.00150   4.62119
    R6        2.02281   0.00513   0.00000   0.00036   0.00036   2.02317
    R7        2.02303   0.00663   0.00000   0.00046   0.00046   2.02349
    R8        3.79432  -0.01513   0.00000   0.00697   0.00697   3.80129
    R9        4.29781  -0.00173   0.00000   0.00526   0.00525   4.30306
   R10        1.81261  -0.00512   0.00000  -0.00072  -0.00072   1.81190
    A1        2.08858  -0.00255   0.00000  -0.00181  -0.00181   2.08677
    A2        2.09784   0.00198   0.00000   0.00109   0.00109   2.09892
    A3        1.91152  -0.00135   0.00000  -0.00179  -0.00180   1.90972
    A4        1.52169   0.00121   0.00000  -0.00102  -0.00101   1.52068
    A5        2.09211   0.00121   0.00000   0.00128   0.00127   2.09338
    A6        1.90978   0.00546   0.00000  -0.00149  -0.00148   1.90830
    A7        2.13941  -0.00789   0.00000  -0.00542  -0.00543   2.13398
    A8        1.97016   0.01148   0.00000   0.00522   0.00518   1.97534
    A9        1.97050   0.01186   0.00000   0.00535   0.00531   1.97580
   A10        1.91916  -0.00303   0.00000   0.00434   0.00428   1.92344
   A11        2.00367  -0.01466   0.00000  -0.00910  -0.00911   1.99456
   A12        2.43674  -0.01662   0.00000  -0.00998  -0.00999   2.42675
   A13        2.00249  -0.02363   0.00000  -0.00955  -0.00956   1.99293
   A14        1.73340  -0.00341   0.00000  -0.00365  -0.00365   1.72975
    D1       -2.61417  -0.01093   0.00000  -0.01026  -0.01027  -2.62444
    D2       -0.42402   0.00407   0.00000   0.00431   0.00432  -0.41969
    D3        0.42353  -0.00406   0.00000  -0.00412  -0.00414   0.41939
    D4        2.61369   0.01094   0.00000   0.01044   0.01045   2.62414
         Item               Value     Threshold  Converged?
 Maximum Force            0.044310     0.000450     NO 
 RMS     Force            0.012262     0.000300     NO 
 Maximum Displacement     0.007779     0.001800     NO 
 RMS     Displacement     0.003771     0.001200     NO 
 Predicted change in Energy=-1.372023D-03
 GradGradGradGradGradGradGradGradGradGradGradGradGradGradGradGradGradGrad

                          Input orientation:                          
 ---------------------------------------------------------------------
 Center     Atomic      Atomic             Coordinates (Angstroms)
 Number     Number       Type             X           Y           Z
 ---------------------------------------------------------------------
      1          6           0       -0.474376    0.749464    0.600738
      2          1           0        0.057070   -0.180154    0.592485
      3          1           0       -1.544881    0.746025    0.588608
      4          6           0        0.249269    2.010037    0.750966
      5          1           0       -0.327288    2.771936    1.233985
      6          1           0        1.195916    1.897573    1.238604
      7          8           0        0.369714    2.205803   -1.247416
      8          1           0        0.851392    1.383617   -1.353827
 ---------------------------------------------------------------------
                    Distance matrix (angstroms):
                    1          2          3          4          5
     1  C    0.000000
     2  H    1.070837   0.000000
     3  H    1.070580   1.850424   0.000000
     4  C    1.461258   2.204312   2.200696   0.000000
     5  H    2.124389   3.045339   2.450176   1.070614   0.000000
     6  H    2.124830   2.455889   3.043111   1.070784   1.756326
     7  O    2.499817   3.029154   3.027806   2.011557   2.638876
     8  H    2.445431   2.620011   3.149873   2.277083   3.164409
                    6          7          8
     6  H    0.000000
     7  O    2.637785   0.000000
     8  H    2.665248   0.958815   0.000000
 Stoichiometry    C2H5O(2)
 Framework group  C1[X(C2H5O)]
 Deg. of freedom    18
 Full point group                 C1      NOp   1
 Largest Abelian subgroup         C1      NOp   1
 Largest concise Abelian subgroup C1      NOp   1
                         Standard orientation:                         
 ---------------------------------------------------------------------
 Center     Atomic      Atomic             Coordinates (Angstroms)
 Number     Number       Type             X           Y           Z
 ---------------------------------------------------------------------
      1          6           0       -1.069103   -0.526728   -0.027542
      2          1           0       -1.328381   -1.044730    0.873091
      3          1           0       -1.401601   -0.908489   -0.970858
      4          6           0       -0.372203    0.756099    0.035397
      5          1           0       -0.597135    1.398837   -0.790743
      6          1           0       -0.525338    1.274539    0.959707
      7          8           0        1.404911   -0.176298   -0.101954
      8          1           0        1.260996   -0.685999    0.697308
 ---------------------------------------------------------------------
 Rotational constants (GHZ):     24.5050981      8.9075494      7.2680293
 Standard basis: 6-31+G(d,p) (6D, 7F)
 There are    82 symmetry adapted basis functions of A   symmetry.
 Integral buffers will be    262144 words long.
 Raffenetti 2 integral format.
 Two-electron integral symmetry is turned on.
    82 basis functions,   131 primitive gaussians,    82 cartesian basis functions
    13 alpha electrons       12 beta electrons
       nuclear repulsion energy        68.7737960595 Hartrees.
 NAtoms=    8 NActive=    8 NUniq=    8 SFac= 7.50D-01 NAtFMM=   80 NAOKFM=F Big=F
 One-electron integrals computed using PRISM.
 NBasis=    82 RedAO= T  NBF=    82
 NBsUse=    82 1.00D-06 NBFU=    82
 Initial guess read from the read-write file.
 B after Tr=     0.000000    0.000000    0.000000
         Rot=    1.000000    0.000000    0.000000    0.000000 Ang=   0.00 deg.
 Initial guess orbital symmetries:
 Alpha Orbitals:
       Occupied  (A) (A) (A) (A) (A) (A) (A) (A) (A) (A) (A) (A)
                 (A)
       Virtual   (A) (A) (A) (A) (A) (A) (A) (A) (A) (A) (A) (A)
                 (A) (A) (A) (A) (A) (A) (A) (A) (A) (A) (A) (A)
                 (A) (A) (A) (A) (A) (A) (A) (A) (A) (A) (A) (A)
                 (A) (A) (A) (A) (A) (A) (A) (A) (A) (A) (A) (A)
                 (A) (A) (A) (A) (A) (A) (A) (A) (A) (A) (A) (A)
                 (A) (A) (A) (A) (A) (A) (A) (A) (A)
 Beta  Orbitals:
       Occupied  (A) (A) (A) (A) (A) (A) (A) (A) (A) (A) (A) (A)
       Virtual   (A) (A) (A) (A) (A) (A) (A) (A) (A) (A) (A) (A)
                 (A) (A) (A) (A) (A) (A) (A) (A) (A) (A) (A) (A)
                 (A) (A) (A) (A) (A) (A) (A) (A) (A) (A) (A) (A)
                 (A) (A) (A) (A) (A) (A) (A) (A) (A) (A) (A) (A)
                 (A) (A) (A) (A) (A) (A) (A) (A) (A) (A) (A) (A)
                 (A) (A) (A) (A) (A) (A) (A) (A) (A) (A)
 Initial guess <Sx>= 0.0000 <Sy>= 0.0000 <Sz>= 0.5000 <S**2>= 1.1387 S= 0.6784
 Requested convergence on RMS density matrix=1.00D-08 within 128 cycles.
 Requested convergence on MAX density matrix=1.00D-06.
 Requested convergence on             energy=1.00D-06.
 No special actions if energy rises.
 Keep R1 and R2 ints in memory in canonical form, NReq=12443148.
 SCF Done:  E(UHF) =  -153.397270673     A.U. after   16 cycles
             Convg  =    0.3652D-08             -V/T =  2.0025
 <Sx>= 0.0000 <Sy>= 0.0000 <Sz>= 0.5000 <S**2>= 1.1355 S= 0.6771
 <L.S>= 0.000000000000E+00
 Annihilation of the first spin contaminant:
 S**2 before annihilation     1.1355,   after     0.7662
 Calling FoFJK, ICntrl=      2127 FMM=F ISym2X=0 I1Cent= 0 IOpClX= 1 NMat=1 NMatS=1 NMatT=0.
 ***** Axes restored to original set *****
 -------------------------------------------------------------------
 Center     Atomic                   Forces (Hartrees/Bohr)
 Number     Number              X              Y              Z
 -------------------------------------------------------------------
      1        6           0.018105077    0.034574500    0.020767996
      2        1           0.000322407   -0.003907306   -0.004027221
      3        1          -0.002206314   -0.001805322   -0.005517060
      4        6          -0.035148478   -0.061985491    0.018206401
      5        1          -0.003096960    0.015754748   -0.017701846
      6        1           0.015514175    0.004904784   -0.015105470
      7        8           0.010954990    0.004048980    0.005115281
      8        1          -0.004444897    0.008415107   -0.001738081
 -------------------------------------------------------------------
 Cartesian Forces:  Max     0.061985491 RMS     0.019098416

 GradGradGradGradGradGradGradGradGradGradGradGradGradGradGradGradGradGrad
 Berny optimization.
 Internal  Forces:  Max     0.042295737 RMS     0.011787773
 Search for a saddle point.
 Step number   4 out of a maximum of   38
 All quantities printed in internal units (Hartrees-Bohrs-Radians)
 Swaping is turned off.
 Update second derivatives using D2CorX and points    1    2    3    4
     Eigenvalues ---   -0.06648   0.00630   0.00966   0.01331   0.01662
     Eigenvalues ---    0.03625   0.04049   0.05620   0.10229   0.10794
     Eigenvalues ---    0.16349   0.18358   0.30163   0.40659   0.40918
     Eigenvalues ---    0.41099   0.41203   0.526881000.000001000.00000
     Eigenvalues --- 1000.000001000.000001000.000001000.000001000.00000
     Eigenvalues --- 1000.000001000.000001000.00000
 Eigenvectors required to have negative eigenvalues:
                          R8        R9        A6        A13       R3
   1                    0.91852   0.27370  -0.13252   0.10152  -0.09854
                          A4        A3        D2        R5        A11
   1                   -0.08876  -0.07814   0.07200  -0.06413   0.06290
 RFO step:  Lambda0=2.031098471D-03 Lambda=-2.90858052D-02.
 Linear search not attempted -- option 19 set.
 Maximum step size (   0.030) exceeded in Quadratic search.
    -- Step size scaled by   0.050
 Iteration  1 RMS(Cart)=  0.00383774 RMS(Int)=  0.00003153
 Iteration  2 RMS(Cart)=  0.00002666 RMS(Int)=  0.00001799
 Iteration  3 RMS(Cart)=  0.00000000 RMS(Int)=  0.00001799
 Variable       Old X    -DE/DX   Delta X   Delta X   Delta X     New X
                                 (Linear)    (Quad)   (Total)
    R1        2.02359   0.00358   0.00000   0.00049   0.00049   2.02408
    R2        2.02310   0.00227   0.00000   0.00034   0.00034   2.02345
    R3        2.76138  -0.04230   0.00000  -0.00923  -0.00922   2.75216
    R4        4.72397   0.01261   0.00000   0.00871   0.00870   4.73267
    R5        4.62119   0.00213   0.00000   0.00164   0.00164   4.62284
    R6        2.02317   0.00489   0.00000   0.00033   0.00033   2.02350
    R7        2.02349   0.00632   0.00000   0.00043   0.00043   2.02391
    R8        3.80129  -0.01435   0.00000   0.00663   0.00664   3.80793
    R9        4.30306  -0.00160   0.00000   0.00523   0.00523   4.30829
   R10        1.81190  -0.00483   0.00000  -0.00069  -0.00068   1.81121
    A1        2.08677  -0.00247   0.00000  -0.00173  -0.00174   2.08503
    A2        2.09892   0.00190   0.00000   0.00103   0.00102   2.09995
    A3        1.90972  -0.00134   0.00000  -0.00169  -0.00169   1.90803
    A4        1.52068   0.00120   0.00000  -0.00088  -0.00087   1.51981
    A5        2.09338   0.00116   0.00000   0.00123   0.00122   2.09460
    A6        1.90830   0.00526   0.00000  -0.00145  -0.00144   1.90686
    A7        2.13398  -0.00773   0.00000  -0.00550  -0.00551   2.12847
    A8        1.97534   0.01093   0.00000   0.00515   0.00510   1.98045
    A9        1.97580   0.01128   0.00000   0.00524   0.00520   1.98100
   A10        1.92344  -0.00297   0.00000   0.00433   0.00427   1.92771
   A11        1.99456  -0.01429   0.00000  -0.00927  -0.00927   1.98529
   A12        2.42675  -0.01621   0.00000  -0.01016  -0.01017   2.41658
   A13        1.99293  -0.02295   0.00000  -0.00962  -0.00964   1.98329
   A14        1.72975  -0.00334   0.00000  -0.00361  -0.00361   1.72613
    D1       -2.62444  -0.01072   0.00000  -0.01033  -0.01034  -2.63479
    D2       -0.41969   0.00399   0.00000   0.00444   0.00445  -0.41524
    D3        0.41939  -0.00399   0.00000  -0.00426  -0.00427   0.41512
    D4        2.62414   0.01072   0.00000   0.01051   0.01052   2.63467
         Item               Value     Threshold  Converged?
 Maximum Force            0.042296     0.000450     NO 
 RMS     Force            0.011788     0.000300     NO 
 Maximum Displacement     0.008082     0.001800     NO 
 RMS     Displacement     0.003845     0.001200     NO 
 Predicted change in Energy=-1.323288D-03
 GradGradGradGradGradGradGradGradGradGradGradGradGradGradGradGradGradGrad

                          Input orientation:                          
 ---------------------------------------------------------------------
 Center     Atomic      Atomic             Coordinates (Angstroms)
 Number     Number       Type             X           Y           Z
 ---------------------------------------------------------------------
      1          6           0       -0.473898    0.749645    0.603745
      2          1           0        0.057055   -0.180530    0.592948
      3          1           0       -1.544528    0.745170    0.587545
      4          6           0        0.247110    2.006014    0.754484
      5          1           0       -0.328314    2.773533    1.230291
      6          1           0        1.197541    1.897888    1.236200
      7          8           0        0.373991    2.209299   -1.246286
      8          1           0        0.847861    1.383281   -1.354785
 ---------------------------------------------------------------------
                    Distance matrix (angstroms):
                    1          2          3          4          5
     1  C    0.000000
     2  H    1.071099   0.000000
     3  H    1.070762   1.849870   0.000000
     4  C    1.456379   2.200725   2.197172   0.000000
     5  H    2.123647   3.046506   2.450828   1.070789   0.000000
     6  H    2.124187   2.456482   3.044414   1.071009   1.759268
     7  O    2.504421   3.032246   3.031060   2.015069   2.635342
     8  H    2.446300   2.620027   3.146961   2.279850   3.162089
                    6          7          8
     6  H    0.000000
     7  O    2.633999   0.000000
     8  H    2.664639   0.958453   0.000000
 Stoichiometry    C2H5O(2)
 Framework group  C1[X(C2H5O)]
 Deg. of freedom    18
 Full point group                 C1      NOp   1
 Largest Abelian subgroup         C1      NOp   1
 Largest concise Abelian subgroup C1      NOp   1
                         Standard orientation:                         
 ---------------------------------------------------------------------
 Center     Atomic      Atomic             Coordinates (Angstroms)
 Number     Number       Type             X           Y           Z
 ---------------------------------------------------------------------
      1          6           0       -1.071338   -0.524151   -0.027826
      2          1           0       -1.329433   -1.044711    0.871984
      3          1           0       -1.402155   -0.907374   -0.971347
      4          6           0       -0.375340    0.753569    0.035870
      5          1           0       -0.590581    1.398185   -0.791615
      6          1           0       -0.518975    1.272489    0.961695
      7          8           0        1.407581   -0.175334   -0.101387
      8          1           0        1.260563   -0.692421    0.692111
 ---------------------------------------------------------------------
 Rotational constants (GHZ):     24.6101226      8.8775700      7.2563974
 Standard basis: 6-31+G(d,p) (6D, 7F)
 There are    82 symmetry adapted basis functions of A   symmetry.
 Integral buffers will be    262144 words long.
 Raffenetti 2 integral format.
 Two-electron integral symmetry is turned on.
    82 basis functions,   131 primitive gaussians,    82 cartesian basis functions
    13 alpha electrons       12 beta electrons
       nuclear repulsion energy        68.7807873439 Hartrees.
 NAtoms=    8 NActive=    8 NUniq=    8 SFac= 7.50D-01 NAtFMM=   80 NAOKFM=F Big=F
 One-electron integrals computed using PRISM.
 NBasis=    82 RedAO= T  NBF=    82
 NBsUse=    82 1.00D-06 NBFU=    82
 Initial guess read from the read-write file.
 B after Tr=     0.000000    0.000000    0.000000
         Rot=    1.000000    0.000000    0.000000    0.000000 Ang=   0.00 deg.
 Initial guess orbital symmetries:
 Alpha Orbitals:
       Occupied  (A) (A) (A) (A) (A) (A) (A) (A) (A) (A) (A) (A)
                 (A)
       Virtual   (A) (A) (A) (A) (A) (A) (A) (A) (A) (A) (A) (A)
                 (A) (A) (A) (A) (A) (A) (A) (A) (A) (A) (A) (A)
                 (A) (A) (A) (A) (A) (A) (A) (A) (A) (A) (A) (A)
                 (A) (A) (A) (A) (A) (A) (A) (A) (A) (A) (A) (A)
                 (A) (A) (A) (A) (A) (A) (A) (A) (A) (A) (A) (A)
                 (A) (A) (A) (A) (A) (A) (A) (A) (A)
 Beta  Orbitals:
       Occupied  (A) (A) (A) (A) (A) (A) (A) (A) (A) (A) (A) (A)
       Virtual   (A) (A) (A) (A) (A) (A) (A) (A) (A) (A) (A) (A)
                 (A) (A) (A) (A) (A) (A) (A) (A) (A) (A) (A) (A)
                 (A) (A) (A) (A) (A) (A) (A) (A) (A) (A) (A) (A)
                 (A) (A) (A) (A) (A) (A) (A) (A) (A) (A) (A) (A)
                 (A) (A) (A) (A) (A) (A) (A) (A) (A) (A) (A) (A)
                 (A) (A) (A) (A) (A) (A) (A) (A) (A) (A)
 Initial guess <Sx>= 0.0000 <Sy>= 0.0000 <Sz>= 0.5000 <S**2>= 1.1346 S= 0.6767
 Requested convergence on RMS density matrix=1.00D-08 within 128 cycles.
 Requested convergence on MAX density matrix=1.00D-06.
 Requested convergence on             energy=1.00D-06.
 No special actions if energy rises.
 Keep R1 and R2 ints in memory in canonical form, NReq=12443148.
 SCF Done:  E(UHF) =  -153.398594017     A.U. after   16 cycles
             Convg  =    0.3646D-08             -V/T =  2.0024
 <Sx>= 0.0000 <Sy>= 0.0000 <Sz>= 0.5000 <S**2>= 1.1313 S= 0.6753
 <L.S>= 0.000000000000E+00
 Annihilation of the first spin contaminant:
 S**2 before annihilation     1.1313,   after     0.7658
 Calling FoFJK, ICntrl=      2127 FMM=F ISym2X=0 I1Cent= 0 IOpClX= 1 NMat=1 NMatS=1 NMatT=0.
 ***** Axes restored to original set *****
 -------------------------------------------------------------------
 Center     Atomic                   Forces (Hartrees/Bohr)
 Number     Number              X              Y              Z
 -------------------------------------------------------------------
      1        6           0.017206477    0.032895945    0.020241607
      2        1           0.000295445   -0.003724019   -0.003957557
      3        1          -0.002083536   -0.001728307   -0.005443040
      4        6          -0.033735404   -0.059508378    0.018537050
      5        1          -0.002864281    0.015170001   -0.017444681
      6        1           0.014870038    0.004800590   -0.014874830
      7        8           0.010487130    0.004000312    0.004737586
      8        1          -0.004175870    0.008093855   -0.001796135
 -------------------------------------------------------------------
 Cartesian Forces:  Max     0.059508378 RMS     0.018393980

 GradGradGradGradGradGradGradGradGradGradGradGradGradGradGradGradGradGrad
 Berny optimization.
 Internal  Forces:  Max     0.040350322 RMS     0.011327431
 Search for a saddle point.
 Step number   5 out of a maximum of   38
 All quantities printed in internal units (Hartrees-Bohrs-Radians)
 Swaping is turned off.
 Update second derivatives using D2CorX and points    1    2    3    4    5
     Eigenvalues ---   -0.06655   0.00631   0.00965   0.01343   0.01662
     Eigenvalues ---    0.03625   0.03977   0.05615   0.10229   0.10799
     Eigenvalues ---    0.16318   0.18355   0.30211   0.40659   0.40918
     Eigenvalues ---    0.41099   0.41202   0.526871000.000001000.00000
     Eigenvalues --- 1000.000001000.000001000.000001000.000001000.00000
     Eigenvalues --- 1000.000001000.000001000.00000
 Eigenvectors required to have negative eigenvalues:
                          R8        R9        A6        A13       R3
   1                    0.91752   0.27463  -0.13323   0.10233  -0.09784
                          A4        A3        D2        R5        A11
   1                   -0.08945  -0.07768   0.07408  -0.06449   0.06239
 RFO step:  Lambda0=1.822290507D-03 Lambda=-2.77432567D-02.
 Linear search not attempted -- option 19 set.
 Maximum step size (   0.030) exceeded in Quadratic search.
    -- Step size scaled by   0.050
 Iteration  1 RMS(Cart)=  0.00391994 RMS(Int)=  0.00003233
 Iteration  2 RMS(Cart)=  0.00002722 RMS(Int)=  0.00001807
 Iteration  3 RMS(Cart)=  0.00000000 RMS(Int)=  0.00001807
 Variable       Old X    -DE/DX   Delta X   Delta X   Delta X     New X
                                 (Linear)    (Quad)   (Total)
    R1        2.02408   0.00342   0.00000   0.00048   0.00048   2.02456
    R2        2.02345   0.00217   0.00000   0.00034   0.00034   2.02378
    R3        2.75216  -0.04035   0.00000  -0.00878  -0.00877   2.74339
    R4        4.73267   0.01215   0.00000   0.00887   0.00886   4.74153
    R5        4.62284   0.00211   0.00000   0.00179   0.00179   4.62463
    R6        2.02350   0.00466   0.00000   0.00031   0.00031   2.02380
    R7        2.02391   0.00602   0.00000   0.00039   0.00039   2.02431
    R8        3.80793  -0.01360   0.00000   0.00627   0.00628   3.81420
    R9        4.30829  -0.00148   0.00000   0.00520   0.00519   4.31348
   R10        1.81121  -0.00456   0.00000  -0.00066  -0.00066   1.81056
    A1        2.08503  -0.00239   0.00000  -0.00166  -0.00167   2.08336
    A2        2.09995   0.00181   0.00000   0.00097   0.00096   2.10091
    A3        1.90803  -0.00132   0.00000  -0.00158  -0.00158   1.90644
    A4        1.51981   0.00120   0.00000  -0.00073  -0.00072   1.51909
    A5        2.09460   0.00111   0.00000   0.00118   0.00117   2.09577
    A6        1.90686   0.00508   0.00000  -0.00139  -0.00139   1.90548
    A7        2.12847  -0.00757   0.00000  -0.00557  -0.00559   2.12288
    A8        1.98045   0.01040   0.00000   0.00506   0.00502   1.98547
    A9        1.98100   0.01072   0.00000   0.00513   0.00508   1.98608
   A10        1.92771  -0.00291   0.00000   0.00432   0.00426   1.93197
   A11        1.98529  -0.01391   0.00000  -0.00943  -0.00943   1.97586
   A12        2.41658  -0.01581   0.00000  -0.01034  -0.01035   2.40623
   A13        1.98329  -0.02228   0.00000  -0.00970  -0.00971   1.97358
   A14        1.72613  -0.00326   0.00000  -0.00357  -0.00357   1.72256
    D1       -2.63479  -0.01051   0.00000  -0.01038  -0.01040  -2.64518
    D2       -0.41524   0.00391   0.00000   0.00457   0.00458  -0.41066
    D3        0.41512  -0.00392   0.00000  -0.00438  -0.00440   0.41072
    D4        2.63467   0.01050   0.00000   0.01056   0.01058   2.64524
         Item               Value     Threshold  Converged?
 Maximum Force            0.040350     0.000450     NO 
 RMS     Force            0.011327     0.000300     NO 
 Maximum Displacement     0.008398     0.001800     NO 
 RMS     Displacement     0.003928     0.001200     NO 
 Predicted change in Energy=-1.276872D-03
 GradGradGradGradGradGradGradGradGradGradGradGradGradGradGradGradGradGrad

                          Input orientation:                          
 ---------------------------------------------------------------------
 Center     Atomic      Atomic             Coordinates (Angstroms)
 Number     Number       Type             X           Y           Z
 ---------------------------------------------------------------------
      1          6           0       -0.473480    0.749689    0.606760
      2          1           0        0.057019   -0.181005    0.593545
      3          1           0       -1.544214    0.744231    0.586488
      4          6           0        0.245015    2.002064    0.757966
      5          1           0       -0.329297    2.775156    1.226400
      6          1           0        1.199149    1.898210    1.233728
      7          8           0        0.378435    2.212932   -1.244940
      8          1           0        0.844189    1.383023   -1.355806
 ---------------------------------------------------------------------
                    Distance matrix (angstroms):
                    1          2          3          4          5
     1  C    0.000000
     2  H    1.071352   0.000000
     3  H    1.070939   1.849340   0.000000
     4  C    1.451737   2.197309   2.193829   0.000000
     5  H    2.123030   3.047726   2.451563   1.070951   0.000000
     6  H    2.123647   2.457118   3.045755   1.071218   1.762168
     7  O    2.509110   3.035501   3.034434   2.018390   2.631445
     8  H    2.447249   2.620264   3.144046   2.282598   3.159571
                    6          7          8
     6  H    0.000000
     7  O    2.629908   0.000000
     8  H    2.664039   0.958106   0.000000
 Stoichiometry    C2H5O(2)
 Framework group  C1[X(C2H5O)]
 Deg. of freedom    18
 Full point group                 C1      NOp   1
 Largest Abelian subgroup         C1      NOp   1
 Largest concise Abelian subgroup C1      NOp   1
                         Standard orientation:                         
 ---------------------------------------------------------------------
 Center     Atomic      Atomic             Coordinates (Angstroms)
 Number     Number       Type             X           Y           Z
 ---------------------------------------------------------------------
      1          6           0       -1.073782   -0.521460   -0.028108
      2          1           0       -1.330896   -1.044415    0.870895
      3          1           0       -1.403022   -0.905999   -0.971846
      4          6           0       -0.378180    0.751144    0.036351
      5          1           0       -0.583470    1.397547   -0.792477
      6          1           0       -0.512175    1.270433    0.963654
      7          8           0        1.410167   -0.174549   -0.100792
      8          1           0        1.259997   -0.699282    0.686654
 ---------------------------------------------------------------------
 Rotational constants (GHZ):     24.7146783      8.8478137      7.2446246
 Standard basis: 6-31+G(d,p) (6D, 7F)
 There are    82 symmetry adapted basis functions of A   symmetry.
 Integral buffers will be    262144 words long.
 Raffenetti 2 integral format.
 Two-electron integral symmetry is turned on.
[...]
   A12        1.98983  -0.00198   0.00000  -0.01490  -0.01498   1.97485
   A13        1.68626  -0.00218   0.00000  -0.00636  -0.00636   1.67990
   A14        1.70740  -0.00008   0.00000   0.00781   0.00782   1.71522
    D1       -2.92398  -0.00111   0.00000  -0.00451  -0.00452  -2.92849
    D2       -0.28301   0.00036   0.00000   0.00083   0.00082  -0.28218
    D3        0.30240  -0.00040   0.00000   0.00132   0.00132   0.30371
    D4        2.94337   0.00108   0.00000   0.00665   0.00666   2.95003
         Item               Value     Threshold  Converged?
 Maximum Force            0.002502     0.000450     NO 
 RMS     Force            0.000907     0.000300     NO 
 Maximum Displacement     0.026874     0.001800     NO 
 RMS     Displacement     0.009319     0.001200     NO 
 Predicted change in Energy=-8.257872D-05
 Optimization stopped.
    -- Number of steps exceeded,  NStep=  38
    -- Flag reset to prevent archiving.
                           ----------------------------
                           ! Non-Optimized Parameters !
                           ! (Angstroms and Degrees)  !
 --------------------------                            --------------------------
 ! Name  Definition              Value          Derivative Info.                !
 --------------------------------------------------------------------------------
 ! R1    R(1,2)                  1.0758         -DE/DX =    0.0002              !
 ! R2    R(1,3)                  1.0749         -DE/DX =    0.0002              !
 ! R3    R(1,4)                  1.3925         -DE/DX =   -0.0025              !
 ! R4    R(1,7)                  2.6662         -DE/DX =    0.0007              !
 ! R5    R(1,8)                  2.5597         -DE/DX =    0.0006              !
 ! R6    R(4,5)                  1.0726         -DE/DX =    0.0003              !
 ! R7    R(4,6)                  1.0734         -DE/DX =    0.0004              !
 ! R8    R(4,7)                  1.9496         -DE/DX =   -0.0004              !
 ! R9    R(4,8)                  2.3215         -DE/DX =   -0.0002              !
 ! R10   R(7,8)                  0.9518         -DE/DX =   -0.0006              !
 ! A1    A(2,1,3)              117.6641         -DE/DX =   -0.0002              !
 ! A2    A(2,1,4)              121.0967         -DE/DX =    0.0001              !
 ! A3    A(2,1,7)              111.2152         -DE/DX =   -0.0004              !
 ! A4    A(2,1,8)               94.8267         -DE/DX =    0.0006              !
 ! A5    A(3,1,4)              121.0443         -DE/DX =    0.0                 !
 ! A6    A(3,1,7)              108.2174         -DE/DX =    0.0005              !
 ! A7    A(3,1,8)              107.2081         -DE/DX =   -0.001               !
 ! A8    A(1,4,5)              119.2525         -DE/DX =    0.0005              !
 ! A9    A(1,4,6)              119.0661         -DE/DX =    0.0005              !
 ! A10   A(5,4,6)              115.6937         -DE/DX =   -0.0003              !
 ! A11   A(5,4,7)               93.4142         -DE/DX =   -0.001               !
 ! A12   A(5,4,8)              113.1506         -DE/DX =   -0.002               !
 ! A13   A(6,4,7)               96.2514         -DE/DX =   -0.0022              !
 ! A14   A(6,4,8)               98.2748         -DE/DX =   -0.0001              !
 ! D1    D(2,1,4,5)           -167.7904         -DE/DX =   -0.0011              !
 ! D2    D(2,1,4,6)            -16.1679         -DE/DX =    0.0004              !
 ! D3    D(3,1,4,5)             17.4015         -DE/DX =   -0.0004              !
 ! D4    D(3,1,4,6)            169.024          -DE/DX =    0.0011              !
 --------------------------------------------------------------------------------
 GradGradGradGradGradGradGradGradGradGradGradGradGradGradGradGradGradGrad

                          Input orientation:                          
 ---------------------------------------------------------------------
 Center     Atomic      Atomic             Coordinates (Angstroms)
 Number     Number       Type             X           Y           Z
 ---------------------------------------------------------------------
      1          6           0       -0.479381    0.697792    0.713238
      2          1           0        0.039774   -0.244209    0.731777
      3          1           0       -1.541576    0.679678    0.549901
      4          6           0        0.213859    1.902416    0.797689
      5          1           0       -0.331114    2.808275    0.979053
      6          1           0        1.230600    1.894950    1.141554
      7          8           0        0.608459    2.357840   -1.062262
      8          1           0        0.636195    1.487558   -1.446808
 ---------------------------------------------------------------------
                    Distance matrix (angstroms):
                    1          2          3          4          5
     1  C    0.000000
     2  H    1.075747   0.000000
     3  H    1.074833   1.840465   0.000000
     4  C    1.392419   2.154681   2.153611   0.000000
     5  H    2.132318   3.084861   2.486025   1.072599   0.000000
     6  H    2.130887   2.482335   3.084137   1.073341   1.816458
     7  O    2.662998   3.211330   3.168273   1.955131   2.291867
     8  H    2.556177   2.846220   3.063038   2.321259   2.926565
                    6          7          8
     6  H    0.000000
     7  O    2.336264   0.000000
     8  H    2.686802   0.951860   0.000000
 Stoichiometry    C2H5O(2)
 Framework group  C1[X(C2H5O)]
 Deg. of freedom    18
 Full point group                 C1      NOp   1
 Largest Abelian subgroup         C1      NOp   1
 Largest concise Abelian subgroup C1      NOp   1
                         Standard orientation:                         
 ---------------------------------------------------------------------
 Center     Atomic      Atomic             Coordinates (Angstroms)
 Number     Number       Type             X           Y           Z
 ---------------------------------------------------------------------
      1          6           0       -1.228067   -0.367433   -0.023425
      2          1           0       -1.577226   -0.848995    0.872911
      3          1           0       -1.550848   -0.771347   -0.965727
      4          6           0       -0.311286    0.679055    0.033203
      5          1           0       -0.135163    1.268667   -0.845322
      6          1           0       -0.149607    1.179472    0.968887
      7          8           0        1.429879   -0.206107   -0.052644
      8          1           0        1.209928   -1.048668    0.331737
 ---------------------------------------------------------------------
 Rotational constants (GHZ):     30.0574965      8.1693193      7.0577026

 **********************************************************************

            Population analysis using the SCF density.

 **********************************************************************

 Orbital symmetries:
 Alpha Orbitals:
       Occupied  (A) (A) (A) (A) (A) (A) (A) (A) (A) (A) (A) (A)
                 (A)
       Virtual   (A) (A) (A) (A) (A) (A) (A) (A) (A) (A) (A) (A)
                 (A) (A) (A) (A) (A) (A) (A) (A) (A) (A) (A) (A)
                 (A) (A) (A) (A) (A) (A) (A) (A) (A) (A) (A) (A)
                 (A) (A) (A) (A) (A) (A) (A) (A) (A) (A) (A) (A)
                 (A) (A) (A) (A) (A) (A) (A) (A) (A) (A) (A) (A)
                 (A) (A) (A) (A) (A) (A) (A) (A) (A)
 Beta  Orbitals:
       Occupied  (A) (A) (A) (A) (A) (A) (A) (A) (A) (A) (A) (A)
       Virtual   (A) (A) (A) (A) (A) (A) (A) (A) (A) (A) (A) (A)
                 (A) (A) (A) (A) (A) (A) (A) (A) (A) (A) (A) (A)
                 (A) (A) (A) (A) (A) (A) (A) (A) (A) (A) (A) (A)
                 (A) (A) (A) (A) (A) (A) (A) (A) (A) (A) (A) (A)
                 (A) (A) (A) (A) (A) (A) (A) (A) (A) (A) (A) (A)
                 (A) (A) (A) (A) (A) (A) (A) (A) (A) (A)
 The electronic state is 2-A.
 Alpha  occ. eigenvalues --  -20.60861 -11.25292 -11.24967  -1.35323  -1.04497
 Alpha  occ. eigenvalues --   -0.82263  -0.66300  -0.64455  -0.60519  -0.58497
 Alpha  occ. eigenvalues --   -0.53753  -0.50364  -0.39314
 Alpha virt. eigenvalues --    0.08485   0.09665   0.11110   0.11711   0.12913
 Alpha virt. eigenvalues --    0.14182   0.15302   0.20682   0.23818   0.25715
 Alpha virt. eigenvalues --    0.28495   0.31486   0.33563   0.35085   0.39516
 Alpha virt. eigenvalues --    0.43498   0.46453   0.48057   0.49580   0.77038
 Alpha virt. eigenvalues --    0.83356   0.88105   0.91854   0.97253   1.12028
 Alpha virt. eigenvalues --    1.15005   1.16631   1.22590   1.26557   1.27460
 Alpha virt. eigenvalues --    1.31278   1.42113   1.45949   1.47767   1.50543
 Alpha virt. eigenvalues --    1.65205   1.69087   1.78354   1.80670   1.87630
 Alpha virt. eigenvalues --    1.92538   2.05210   2.10151   2.24653   2.25590
 Alpha virt. eigenvalues --    2.32410   2.42252   2.46146   2.53180   2.54401
 Alpha virt. eigenvalues --    2.74993   2.78093   2.79531   2.88219   2.94725
 Alpha virt. eigenvalues --    2.95730   3.00302   3.04406   3.08806   3.12073
 Alpha virt. eigenvalues --    3.34787   3.60885   3.75685   3.82378   3.87557
 Alpha virt. eigenvalues --    4.07483   4.51937   4.69940   4.95795
  Beta  occ. eigenvalues --  -20.57514 -11.26577 -11.23157  -1.23689  -1.02640
  Beta  occ. eigenvalues --   -0.80682  -0.65522  -0.61950  -0.57616  -0.52836
  Beta  occ. eigenvalues --   -0.46992  -0.40799
  Beta virt. eigenvalues --    0.06107   0.08756   0.09882   0.11439   0.12602
  Beta virt. eigenvalues --    0.14174   0.14908   0.16844   0.21088   0.23964
  Beta virt. eigenvalues --    0.27626   0.29746   0.33633   0.33922   0.36313
  Beta virt. eigenvalues --    0.40487   0.43694   0.46547   0.48075   0.50213
  Beta virt. eigenvalues --    0.77426   0.83572   0.88779   0.97214   0.98689
  Beta virt. eigenvalues --    1.12481   1.14940   1.16419   1.24245   1.26621
  Beta virt. eigenvalues --    1.28544   1.31286   1.44038   1.48186   1.51555
  Beta virt. eigenvalues --    1.55725   1.67083   1.73049   1.79738   1.81689
  Beta virt. eigenvalues --    1.88268   1.96343   2.08318   2.14927   2.25300
  Beta virt. eigenvalues --    2.26545   2.36100   2.43082   2.46819   2.53345
  Beta virt. eigenvalues --    2.55268   2.75546   2.79970   2.80596   2.89080
  Beta virt. eigenvalues --    2.95639   2.96275   3.00478   3.06115   3.08699
  Beta virt. eigenvalues --    3.12276   3.34916   3.61024   3.75833   3.82928
  Beta virt. eigenvalues --    3.88210   4.07597   4.54417   4.71059   4.95433
          Condensed to atoms (all electrons):
              1          2          3          4          5          6
     1  C    5.157703   0.381852   0.379389   0.414519  -0.028330  -0.018338
     2  H    0.381852   0.513035  -0.024303  -0.014077   0.002368  -0.003054
     3  H    0.379389  -0.024303   0.502783  -0.008656  -0.002919   0.002419
     4  C    0.414519  -0.014077  -0.008656   5.057209   0.412045   0.391552
     5  H   -0.028330   0.002368  -0.002919   0.412045   0.496179  -0.023341
     6  H   -0.018338  -0.003054   0.002419   0.391552  -0.023341   0.510967
     7  O   -0.024729  -0.000049  -0.000646   0.004649  -0.023420  -0.022804
     8  H    0.016753  -0.000068  -0.000035  -0.014849   0.001545   0.000245
              7          8
     1  C   -0.024729   0.016753
     2  H   -0.000049  -0.000068
     3  H   -0.000646  -0.000035
     4  C    0.004649  -0.014849
     5  H   -0.023420   0.001545
     6  H   -0.022804   0.000245
     7  O    8.263325   0.252440
     8  H    0.252440   0.398480
 Mulliken atomic charges:
              1
     1  C   -0.278819
     2  H    0.144294
     3  H    0.151967
     4  C   -0.242393
     5  H    0.165872
     6  H    0.162355
     7  O   -0.448765
     8  H    0.345489
 Sum of Mulliken atomic charges =   0.00000
 Mulliken charges with hydrogens summed into heavy atoms:
              1
     1  C    0.017442
     4  C    0.085835
     7  O   -0.103277
 Sum of Mulliken charges with hydrogens summed into heavy atoms =   0.00000
          Atomic-Atomic Spin Densities.
              1          2          3          4          5          6
     1  C    1.073090   0.013218   0.013363   0.020768   0.002063   0.001018
     2  H    0.013218  -0.070757   0.000837  -0.021129  -0.000008   0.000350
     3  H    0.013363   0.000837  -0.069526  -0.021440   0.000393  -0.000018
     4  C    0.020768  -0.021129  -0.021440  -0.741005   0.006717   0.009361
     5  H    0.002063  -0.000008   0.000393   0.006717   0.046286  -0.000587
     6  H    0.001018   0.000350  -0.000018   0.009361  -0.000587   0.042458
     7  O   -0.021404   0.000360   0.000207  -0.049814  -0.004248  -0.004180
     8  H   -0.000281  -0.000016   0.000014  -0.000015  -0.000023   0.000125
              7          8
     1  C   -0.021404  -0.000281
     2  H    0.000360  -0.000016
     3  H    0.000207   0.000014
     4  C   -0.049814  -0.000015
     5  H   -0.004248  -0.000023
     6  H   -0.004180   0.000125
     7  O    0.861722   0.003517
     8  H    0.003517  -0.040560
 Mulliken atomic spin densities:
              1
     1  C    1.101835
     2  H   -0.077146
     3  H   -0.076170
     4  C   -0.796558
     5  H    0.050592
     6  H    0.048528
     7  O    0.786160
     8  H   -0.037240
 Sum of Mulliken atomic spin densities =   1.00000
 Electronic spatial extent (au):  <R**2>=            205.0542
 Charge=              0.0000 electrons
 Dipole moment (field-independent basis, Debye):
    X=             -1.6307    Y=             -0.8282    Z=              0.7084  Tot=              1.9614
 Quadrupole moment (field-independent basis, Debye-Ang):
   XX=            -23.0623   YY=            -16.9884   ZZ=            -18.6166
   XY=             -0.5516   XZ=              0.9657   YZ=             -0.9924
 Traceless Quadrupole moment (field-independent basis, Debye-Ang):
   XX=             -3.5066   YY=              2.5674   ZZ=              0.9392
   XY=             -0.5516   XZ=              0.9657   YZ=             -0.9924
 Octapole moment (field-independent basis, Debye-Ang**2):
  XXX=              3.4959  YYY=             -2.2709  ZZZ=              0.3641  XYY=              4.4972
  XXY=             -5.0933  XXZ=              0.9366  XZZ=             -0.0043  YZZ=             -0.0524
  YYZ=              0.8776  XYZ=             -1.2247
 Hexadecapole moment (field-independent basis, Debye-Ang**3):
 XXXX=           -181.4704 YYYY=            -59.0549 ZZZZ=            -31.9843 XXXY=             -1.2963
 XXXZ=              1.3398 YYYX=             -3.9258 YYYZ=             -1.9171 ZZZX=              0.8611
 ZZZY=             -0.5151 XXYY=            -35.2617 XXZZ=            -33.2787 YYZZ=            -13.3822
 XXYZ=             -1.7859 YYXZ=              1.0743 ZZXY=              0.9222
 N-N= 6.941777906747D+01 E-N=-7.423304336802D+02  KE= 2.283330948327D+02
                          Isotropic Fermi Contact Couplings
        Atom                 a.u.       MegaHertz       Gauss      10(-4) cm-1
     1  C(13)              0.14624     164.40358      58.66328      54.83913
     2  H(1)              -0.02161     -96.59296     -34.46677     -32.21994
     3  H(1)              -0.02158     -96.45593     -34.41787     -32.17424
     4  C(13)             -0.11322    -127.27945     -45.41647     -42.45585
     5  H(1)               0.01701      76.03241      27.13025      25.36168
     6  H(1)               0.01570      70.18392      25.04337      23.41084
     7  O(17)              0.12238     -74.18900     -26.47248     -24.74679
     8  H(1)              -0.01940     -86.72392     -30.94525     -28.92799
 --------------------------------------------------------
       Center         ----  Spin Dipole Couplings  ----
                      3XX-RR        3YY-RR        3ZZ-RR
 --------------------------------------------------------
     1   Atom        0.347608      0.040949     -0.388558
     2   Atom       -0.008936     -0.017550      0.026485
     3   Atom       -0.009857     -0.024796      0.034653
     4   Atom       -0.278735      0.052266      0.226468
     5   Atom        0.013245      0.013443     -0.026688
     6   Atom        0.012937      0.016909     -0.029846
     7   Atom        2.503837     -1.074376     -1.429461
     8   Atom       -0.028528      0.100573     -0.072045
 --------------------------------------------------------
                        XY            XZ            YZ
 --------------------------------------------------------
     1   Atom       -0.586754     -0.018584      0.012541
     2   Atom       -0.013725     -0.032664     -0.041831
     3   Atom       -0.017207      0.030416      0.036436
     4   Atom        0.332096      0.014714     -0.007425
     5   Atom        0.005380      0.014509      0.020618
     6   Atom        0.007768     -0.014107     -0.015817
     7   Atom       -1.153082     -0.179998      0.061354
     8   Atom        0.036072     -0.024786     -0.098641
 --------------------------------------------------------


 ---------------------------------------------------------------------------------
              Anisotropic Spin Dipole Couplings in Principal Axis System
 ---------------------------------------------------------------------------------

       Atom             a.u.   MegaHertz   Gauss  10(-4) cm-1        Axes

              Baa    -0.4123   -55.322   -19.740   -18.453  0.6110  0.7893  0.0614
     1 C(13)  Bbb    -0.3889   -52.185   -18.621   -17.407 -0.0227 -0.0601  0.9979
              Bcc     0.8012   107.508    38.361    35.861  0.7913 -0.6111 -0.0188
 
              Baa    -0.0601   -32.084   -11.449   -10.702  0.5154  0.6793  0.5224
     2 H(1)   Bbb     0.0011     0.599     0.214     0.200  0.7918 -0.6106  0.0127
              Bcc     0.0590    31.485    11.235    10.502 -0.3276 -0.4071  0.8526
 
              Baa    -0.0598   -31.882   -11.376   -10.635  0.5232  0.7248 -0.4483
     3 H(1)   Bbb     0.0011     0.594     0.212     0.198  0.7920 -0.6077 -0.0581
              Bcc     0.0586    31.288    11.164    10.436  0.3145  0.3247  0.8920
 
              Baa    -0.4847   -65.037   -23.207   -21.694  0.8501 -0.5261 -0.0231
     4 C(13)  Bbb     0.2268    30.432    10.859    10.151 -0.0046 -0.0513  0.9987
              Bcc     0.2579    34.605    12.348    11.543  0.5266  0.8489  0.0460
 
              Baa    -0.0380   -20.258    -7.229    -6.757 -0.2226 -0.3427  0.9127
     5 H(1)   Bbb     0.0081     4.344     1.550     1.449  0.7809 -0.6231 -0.0436
              Bcc     0.0298    15.914     5.679     5.308  0.5837  0.7030  0.4063
 
              Baa    -0.0373   -19.909    -7.104    -6.641  0.2273  0.2426  0.9431
     6 H(1)   Bbb     0.0069     3.702     1.321     1.235  0.7713 -0.6361 -0.0223
              Bcc     0.0304    16.207     5.783     5.406  0.5945  0.7325 -0.3316
 
              Baa    -1.4403   104.220    37.188    34.764 -0.0410 -0.2895  0.9563
     7 O(17)  Bbb    -1.4113   102.124    36.440    34.065  0.2827  0.9146  0.2890
              Bcc     2.8517  -206.344   -73.629   -68.829  0.9583 -0.2822 -0.0443
 
              Baa    -0.1175   -62.705   -22.375   -20.916  0.0931  0.3975  0.9129
     8 H(1)   Bbb    -0.0379   -20.230    -7.219    -6.748  0.9691 -0.2464  0.0084
              Bcc     0.1554    82.935    29.593    27.664  0.2283  0.8839 -0.4082
 

 ---------------------------------------------------------------------------------



 KNOWING HOW CONTENTED, FREE, AND JOYFUL IS LIFE IN
 THE REALMS OF SCIENCE, ONE FERVENTLY WISHES THAT
 MANY WOULD ENTER HER PORTALS.
   --  DMITRI IVANOVICH MENDELEEV
 "FIRST PRINCIPLES OF CHEMISTRY", LONGMANS, GREEN,
 AND CO.  LONDON, 1891
 Error termination request processed by link 9999.
 Error termination via Lnk1e in C:\G09W\l9999.exe at Sun Jan 17 12:43:28 2021.
 Job cpu time:  0 days  0 hours  1 minutes 53.0 seconds.
 File lengths (MBytes):  RWF=     13 Int=      0 D2E=      0 Chk=      2 Scr=      1
