 Entering Link 1 = C:\G09W\l1.exe PID=      6816.
  
 Copyright (c) 1988,1990,1992,1993,1995,1998,2003,2009, Gaussian, Inc.
                  All Rights Reserved.
  
 This is part of the Gaussian(R) 09 program.  It is based on
 the Gaussian(R) 03 system (copyright 2003, Gaussian, Inc.),
 the Gaussian(R) 98 system (copyright 1998, Gaussian, Inc.),
 the Gaussian(R) 94 system (copyright 1995, Gaussian, Inc.),
 the Gaussian 92(TM) system (copyright 1992, Gaussian, Inc.),
 the Gaussian 90(TM) system (copyright 1990, Gaussian, Inc.),
 the Gaussian 88(TM) system (copyright 1988, Gaussian, Inc.),
 the Gaussian 86(TM) system (copyright 1986, Carnegie Mellon
 University), and the Gaussian 82(TM) system (copyright 1983,
 Carnegie Mellon University). Gaussian is a federally registered
 trademark of Gaussian, Inc.
  
 This software contains proprietary and confidential information,
 including trade secrets, belonging to Gaussian, Inc.
  
 This software is provided under written license and may be
 used, copied, transmitted, or stored only in accord with that
 written license.
  
 The following legend is applicable only to US Government
 contracts under FAR:
  
                    RESTRICTED RIGHTS LEGEND
  
 Use, reproduction and disclosure by the US Government is
 subject to restrictions as set forth in subparagraphs (a)
 and (c) of the Commercial Computer Software - Restricted
 Rights clause in FAR 52.227-19.
  
 Gaussian, Inc.
 340 Quinnipiac St., Bldg. 40, Wallingford CT 06492
  
  
 ---------------------------------------------------------------
 Warning -- This program may not be used in any manner that
 competes with the business of Gaussian, Inc. or will provide
 assistance to any competitor of Gaussian, Inc.  The licensee
 of this program is prohibited from giving any competitor of
 Gaussian, Inc. access to this program.  By using this program,
 the user acknowledges that Gaussian, Inc. is engaged in the
 business of creating and licensing software in the field of
 computational chemistry and represents and warrants to the
 licensee that it is not a competitor of Gaussian, Inc. and that
 it will not use this program in any manner prohibited above.
 ---------------------------------------------------------------
  

 Cite this work as:
 Gaussian 09, Revision A.02,
 M. J. Frisch, G. W. Trucks, H. B. Schlegel, G. E. Scuseria, 
 M. A. Robb, J. R. Cheeseman, G. Scalmani, V. Barone, B. Mennucci, 
 G. A. Petersson, H. Nakatsuji, M. Caricato, X. Li, H. P. Hratchian, 
 A. F. Izmaylov, J. Bloino, G. Zheng, J. L. Sonnenberg, M. Hada, 
 M. Ehara, K. Toyota, R. Fukuda, J. Hasegawa, M. Ishida, T. Nakajima, 
 Y. Honda, O. Kitao, H. Nakai, T. Vreven, J. A. Montgomery, Jr., 
 J. E. Peralta, F. Ogliaro, M. Bearpark, J. J. Heyd, E. Brothers, 
 K. N. Kudin, V. N. Staroverov, R. Kobayashi, J. Normand, 
 K. Raghavachari, A. Rendell, J. C. Burant, S. S. Iyengar, J. Tomasi, 
 M. Cossi, N. Rega, J. M. Millam, M. Klene, J. E. Knox, J. B. Cross, 
 V. Bakken, C. Adamo, J. Jaramillo, R. Gomperts, R. E. Stratmann, 
 O. Yazyev, A. J. Austin, R. Cammi, C. Pomelli, J. W. Ochterski, 
 R. L. Martin, K. Morokuma, V. G. Zakrzewski, G. A. Voth, 
 P. Salvador, J. J. Dannenberg, S. Dapprich, A. D. Daniels, 
 O. Farkas, J. B. Foresman, J. V. Ortiz, J. Cioslowski, 
 and D. J. Fox, Gaussian, Inc., Wallingford CT, 2009.
 
 ******************************************
 Gaussian 09:  IA32W-G09RevA.02 11-Jun-2009
                08-Feb-2021 
 ******************************************
 %chk=D:\Documents\rayGit\FQ\quimicaComputacional\proyecto\decompositionHydrogenP
 eroxide\descompositionByRadicals\gasPhase\step4\ts\tsM062X.chk
 %mem=1500MB
 %nprocshared=4
 Will use up to    4 processors via shared memory.
 ----------------------------------------------------------------------
 # opt=(readfc,ts,noeigen) geom=check guess=check freq=noraman 6-31+g(d
 ,p) m062x
 ----------------------------------------------------------------------
 1/5=1,10=3,11=1,14=-1,18=20,26=3,29=2,38=1/1,3;
 2/9=110,12=2,40=1/2;
 3/5=1,6=6,7=111,11=2,14=-4,16=1,25=1,30=1,71=1,74=-55,116=-2/1,2,3;
 4/5=1/1;
 5/5=2,38=6/2;
 6/7=2,8=2,9=2,10=2,28=1/1;
 7//1,2,3,16;
 1/5=1,11=1,14=-1,18=20/3(2);
 2/9=110/2;
 99//99;
 2/9=110/2;
 3/5=1,6=6,7=111,11=2,14=-2,16=1,25=1,30=1,71=1,74=-55/1,2,3;
 4/5=5,16=3/1;
 5/5=2,38=5/2;
 7//1,2,3,16;
 1/5=1,11=1,14=-1,18=20/3(-5);
 2/9=110/2;
 6/7=2,8=2,9=2,10=2,19=2,28=1/1;
 99/9=1/99;
 ---
 ts2
 ---
 Redundant internal coordinates taken from checkpoint file:
 D:\Documents\rayGit\FQ\quimicaComputacional\proyecto\decompositionHydrogenPeroxide\descompositionByRadicals\gasPhase\step4\ts\tsM062X.chk
 Charge =  0 Multiplicity = 1
 O,0,-0.5144610561,-0.0640370042,0.1515720592
 H,0,-1.4907922736,0.3831623684,-1.9278717046
 O,0,0.1233407743,-0.919012131,-0.3855901638
 O,0,-1.6406314819,-0.2686189178,-2.622661648
 H,0,-0.8191167726,-0.7663708654,-2.6820051629
 Recover connectivity data from disk.

 GradGradGradGradGradGradGradGradGradGradGradGradGradGradGradGradGradGrad
 Berny optimization.
 Initialization pass.
 Force constant matrix read from checkpoint file:
 D:\Documents\rayGit\FQ\quimicaComputacional\proyecto\decompositionHydrogenPeroxi
 de\descompositionByRadicals\gasPhase\step4\ts\tsM062X.chk
                           ----------------------------
                           !    Initial Parameters    !
                           ! (Angstroms and Degrees)  !
 --------------------------                            --------------------------
 ! Name  Definition              Value          Derivative Info.                !
 --------------------------------------------------------------------------------
 ! R1    R(1,2)                  2.3404         D2E/DX2 =   -0.0068             !
 ! R2    R(1,3)                  1.1943         D2E/DX2 =    0.7091             !
 ! R3    R(2,4)                  0.9644         D2E/DX2 =    0.2826             !
 ! R4    R(4,5)                  0.9624         D2E/DX2 =    0.5665             !
 ! A1    A(2,1,3)               87.7046         D2E/DX2 =    0.0606             !
 ! A2    A(2,4,5)              105.1506         D2E/DX2 =    0.1125             !
 ! A3    L(1,2,4,3,-1)         128.2434         D2E/DX2 =    0.0183             !
 ! A4    L(1,2,4,3,-2)         154.7949         D2E/DX2 =   -0.0106             !
 ! D1    D(3,1,4,5)            -13.2304         D2E/DX2 =   -0.0183             !
 --------------------------------------------------------------------------------
 Trust Radius=3.00D-01 FncErr=1.00D-07 GrdErr=1.00D-06
 Number of steps in this run=  20 maximum allowed number of steps= 100.
 Search for a saddle point of order  1.
 GradGradGradGradGradGradGradGradGradGradGradGradGradGradGradGradGradGrad

                          Input orientation:                          
 ---------------------------------------------------------------------
 Center     Atomic      Atomic             Coordinates (Angstroms)
 Number     Number       Type             X           Y           Z
 ---------------------------------------------------------------------
      1          8           0       -0.514461   -0.064037    0.151572
      2          1           0       -1.490792    0.383162   -1.927872
      3          8           0        0.123341   -0.919012   -0.385590
      4          8           0       -1.640631   -0.268619   -2.622662
      5          1           0       -0.819117   -0.766371   -2.682005
 ---------------------------------------------------------------------
                    Distance matrix (angstroms):
                    1          2          3          4          5
     1  O    0.000000
     2  H    2.340362   0.000000
     3  O    1.194285   2.584515   0.000000
     4  O    3.001081   0.964367   2.922174   0.000000
     5  H    2.935174   1.530128   2.486976   0.962375   0.000000
 Stoichiometry    H2O3
 Framework group  C1[X(H2O3)]
 Deg. of freedom     9
 Full point group                 C1      NOp   1
 Largest Abelian subgroup         C1      NOp   1
 Largest concise Abelian subgroup C1      NOp   1
                         Standard orientation:                         
 ---------------------------------------------------------------------
 Center     Atomic      Atomic             Coordinates (Angstroms)
 Number     Number       Type             X           Y           Z
 ---------------------------------------------------------------------
      1          8           0        1.128422   -0.581455   -0.008924
      2          1           0       -1.191076   -0.690983    0.283014
      3          8           0        1.024903    0.608312   -0.001565
      4          8           0       -1.823570   -0.042235   -0.047261
      5          1           0       -1.446967    0.814005    0.178985
 ---------------------------------------------------------------------
 Rotational constants (GHZ):     39.9699018      5.3816234      4.7556584
 Standard basis: 6-31+G(d,p) (6D, 7F)
 There are    67 symmetry adapted basis functions of A   symmetry.
 Integral buffers will be    262144 words long.
 Raffenetti 2 integral format.
 Two-electron integral symmetry is turned on.
    67 basis functions,   110 primitive gaussians,    67 cartesian basis functions
    13 alpha electrons       13 beta electrons
       nuclear repulsion energy        66.9586765703 Hartrees.
 NAtoms=    5 NActive=    5 NUniq=    5 SFac= 7.50D-01 NAtFMM=   80 NAOKFM=F Big=F
 One-electron integrals computed using PRISM.
 NBasis=    67 RedAO= T  NBF=    67
 NBsUse=    67 1.00D-06 NBFU=    67
 Initial guess read from the checkpoint file:  D:\Documents\rayGit\FQ\quimicaComp
 utacional\proyecto\decompositionHydrogenPeroxide\descompositionByRadicals\gasPha
 se\step4\ts\tsM062X.chk
 B after Tr=     0.000000    0.000000    0.000000
         Rot=    1.000000    0.000000    0.000000    0.000000 Ang=   0.00 deg.
 Initial guess orbital symmetries:
       Occupied  (A) (A) (A) (A) (A) (A) (A) (A) (A) (A) (A) (A)
                 (A)
       Virtual   (A) (A) (A) (A) (A) (A) (A) (A) (A) (A) (A) (A)
                 (A) (A) (A) (A) (A) (A) (A) (A) (A) (A) (A) (A)
                 (A) (A) (A) (A) (A) (A) (A) (A) (A) (A) (A) (A)
                 (A) (A) (A) (A) (A) (A) (A) (A) (A) (A) (A) (A)
                 (A) (A) (A) (A) (A) (A)
 Requested convergence on RMS density matrix=1.00D-08 within 128 cycles.
 Requested convergence on MAX density matrix=1.00D-06.
 Requested convergence on             energy=1.00D-06.
 No special actions if energy rises.
 Keep R1 ints in memory in canonical form, NReq=3551229.
 SCF Done:  E(RM062X) =  -226.602441891     A.U. after    1 cycles
             Convg  =    0.3977D-10             -V/T =  2.0081

 **********************************************************************

            Population analysis using the SCF density.

 **********************************************************************

 Orbital symmetries:
       Occupied  (A) (A) (A) (A) (A) (A) (A) (A) (A) (A) (A) (A)
                 (A)
       Virtual   (A) (A) (A) (A) (A) (A) (A) (A) (A) (A) (A) (A)
                 (A) (A) (A) (A) (A) (A) (A) (A) (A) (A) (A) (A)
                 (A) (A) (A) (A) (A) (A) (A) (A) (A) (A) (A) (A)
                 (A) (A) (A) (A) (A) (A) (A) (A) (A) (A) (A) (A)
                 (A) (A) (A) (A) (A) (A)
 The electronic state is 1-A.
 Alpha  occ. eigenvalues --  -19.83726 -19.83640 -19.64453  -1.46098  -1.12933
 Alpha  occ. eigenvalues --   -0.93869  -0.65281  -0.64809  -0.62635  -0.60432
 Alpha  occ. eigenvalues --   -0.46296  -0.39163  -0.36457
 Alpha virt. eigenvalues --   -0.13978   0.06541   0.08318   0.12011   0.12762
 Alpha virt. eigenvalues --    0.16427   0.18499   0.20128   0.20660   0.21265
 Alpha virt. eigenvalues --    0.22949   0.27113   0.29071   0.30858   0.33271
 Alpha virt. eigenvalues --    0.37967   1.01035   1.03856   1.04088   1.09316
 Alpha virt. eigenvalues --    1.10486   1.11165   1.16625   1.17438   1.19893
 Alpha virt. eigenvalues --    1.20605   1.22513   1.28296   1.35768   1.53429
 Alpha virt. eigenvalues --    1.55597   1.56854   1.58016   1.60680   1.61978
 Alpha virt. eigenvalues --    1.65323   1.73107   1.96449   1.97651   2.29238
 Alpha virt. eigenvalues --    2.31075   2.55450   2.57465   2.60561   2.62423
 Alpha virt. eigenvalues --    2.69013   2.71141   2.95943   3.06938   3.39582
 Alpha virt. eigenvalues --    3.59953   3.72427   3.97496   4.08588
          Condensed to atoms (all electrons):
              1          2          3          4          5
     1  O    7.683143   0.002242   0.316446   0.000516  -0.005869
     2  H    0.002242   0.377048   0.004371   0.268278  -0.018919
     3  O    0.316446   0.004371   7.674886   0.006826   0.011963
     4  O    0.000516   0.268278   0.006826   8.172379   0.274255
     5  H   -0.005869  -0.018919   0.011963   0.274255   0.372325
 Mulliken atomic charges:
              1
     1  O    0.003522
     2  H    0.366979
     3  O   -0.014493
     4  O   -0.722253
     5  H    0.366245
 Sum of Mulliken atomic charges =   0.00000
 Mulliken charges with hydrogens summed into heavy atoms:
              1
     1  O    0.003522
     3  O   -0.014493
     4  O    0.010971
 Sum of Mulliken charges with hydrogens summed into heavy atoms =   0.00000
 Electronic spatial extent (au):  <R**2>=            240.3614
 Charge=              0.0000 electrons
 Dipole moment (field-independent basis, Debye):
    X=              2.0560    Y=              0.4000    Z=              0.9901  Tot=              2.3168
 Quadrupole moment (field-independent basis, Debye-Ang):
   XX=            -24.0575   YY=            -15.0553   ZZ=            -16.8553
   XY=             -1.1148   XZ=             -0.7009   YZ=             -0.0948
 Traceless Quadrupole moment (field-independent basis, Debye-Ang):
   XX=             -5.4015   YY=              3.6008   ZZ=              1.8007
   XY=             -1.1148   XZ=             -0.7009   YZ=             -0.0948
 Octapole moment (field-independent basis, Debye-Ang**2):
  XXX=             18.2281  YYY=              0.6111  ZZZ=              0.5369  XYY=             -2.6588
  XXY=              2.3157  XXZ=              2.4317  XZZ=              3.2291  YZZ=              0.0620
  YYZ=              0.6276  XYZ=              0.1554
 Hexadecapole moment (field-independent basis, Debye-Ang**3):
 XXXX=           -258.2627 YYYY=            -35.0069 ZZZZ=            -14.1394 XXXY=             -5.1541
 XXXZ=              1.0238 YYYX=             -1.6752 YYYZ=              0.0657 ZZZX=             -0.4362
 ZZZY=             -0.0801 XXYY=            -38.5320 XXZZ=            -39.5773 YYZZ=             -8.1737
 XXYZ=             -0.0768 YYXZ=             -0.3250 ZZXY=             -0.2466
 N-N= 6.695867657033D+01 E-N=-6.682579648566D+02  KE= 2.247885656308D+02
 Calling FoFJK, ICntrl=      2127 FMM=F ISym2X=0 I1Cent= 0 IOpClX= 0 NMat=1 NMatS=1 NMatT=0.
 ***** Axes restored to original set *****
 -------------------------------------------------------------------
 Center     Atomic                   Forces (Hartrees/Bohr)
 Number     Number              X              Y              Z
 -------------------------------------------------------------------
      1        8          -0.001788852    0.002381117    0.001198919
      2        1          -0.000683723   -0.000912972   -0.001204643
      3        8           0.002898972   -0.002895128    0.000055504
      4        8          -0.000064216    0.001274198    0.000022560
      5        1          -0.000362182    0.000152785   -0.000072340
 -------------------------------------------------------------------
 Cartesian Forces:  Max     0.002898972 RMS     0.001452266

 GradGradGradGradGradGradGradGradGradGradGradGradGradGradGradGradGradGrad
 Berny optimization.
 Internal  Forces:  Max     0.004454923 RMS     0.002169276
 Search for a saddle point.
 Step number   1 out of a maximum of   20
 All quantities printed in internal units (Hartrees-Bohrs-Radians)
 Swaping is turned off.
 Second derivative matrix not updated -- first step.
 The second derivative matrix:
                          R1        R2        R3        R4        A1
           R1          -0.00676
           R2          -0.01001   0.70912
           R3          -0.07195  -0.01017   0.28261
           R4          -0.00019  -0.00023  -0.00359   0.56646
           A1          -0.00396   0.00374  -0.02445  -0.00163   0.06057
           A2          -0.00129   0.00646   0.02518   0.01830   0.00482
           A3           0.00933   0.00148  -0.00672  -0.00147  -0.00285
           A4           0.01398   0.00648   0.06498   0.00017   0.00613
           D1           0.02107   0.00430   0.08855  -0.00073   0.00843
                          A2        A3        A4        D1
           A2           0.11252
           A3          -0.00482   0.01831
           A4           0.00260  -0.00117  -0.01063
           D1           0.00329   0.00217  -0.01917  -0.01834
     Eigenvalues ---   -0.09721   0.00288   0.00475   0.02325   0.06075
     Eigenvalues ---    0.11000   0.33265   0.56723   0.70959
 Eigenvectors required to have negative eigenvalues:
                          D1        R1        A4        R3        A1
   1                    0.63370  -0.49402   0.47864  -0.33262  -0.11656
                          A2        R2        A3        R4
   1                    0.02468  -0.01723   0.01188  -0.00232
 RFO step:  Lambda0=1.060684922D-05 Lambda=-7.43133807D-04.
 Linear search not attempted -- option 19 set.
 Iteration  1 RMS(Cart)=  0.13691670 RMS(Int)=  0.00602364
 Iteration  2 RMS(Cart)=  0.00514279 RMS(Int)=  0.00001303
 Iteration  3 RMS(Cart)=  0.00001794 RMS(Int)=  0.00000000
 Iteration  4 RMS(Cart)=  0.00000000 RMS(Int)=  0.00000000
 Variable       Old X    -DE/DX   Delta X   Delta X   Delta X     New X
                                 (Linear)    (Quad)   (Total)
    R1        4.42264   0.00170   0.00000   0.03493   0.03493   4.45758
    R2        2.25687   0.00357   0.00000   0.00403   0.00403   2.26090
    R3        1.82239  -0.00087   0.00000  -0.00118  -0.00118   1.82121
    R4        1.81862  -0.00041   0.00000  -0.00033  -0.00033   1.81829
    A1        1.53073   0.00445   0.00000   0.07292   0.07292   1.60366
    A2        1.83522   0.00023   0.00000   0.00329   0.00329   1.83852
    A3        2.23827   0.00242   0.00000   0.12993   0.12993   2.36820
    A4        2.70168   0.00017   0.00000   0.10187   0.10187   2.80355
    D1       -0.23091   0.00000   0.00000  -0.02289  -0.02289  -0.25381
         Item               Value     Threshold  Converged?
 Maximum Force            0.004455     0.000450     NO 
 RMS     Force            0.002169     0.000300     NO 
 Maximum Displacement     0.257364     0.001800     NO 
 RMS     Displacement     0.137888     0.001200     NO 
 Predicted change in Energy=-3.789868D-04
 GradGradGradGradGradGradGradGradGradGradGradGradGradGradGradGradGradGrad

                          Input orientation:                          
 ---------------------------------------------------------------------
 Center     Atomic      Atomic             Coordinates (Angstroms)
 Number     Number       Type             X           Y           Z
 ---------------------------------------------------------------------
      1          8           0       -0.487831   -0.040109    0.181984
      2          1           0       -1.497109    0.329165   -1.917817
      3          8           0        0.172341   -0.939829   -0.249399
      4          8           0       -1.664146   -0.230067   -2.684731
      5          1           0       -0.864916   -0.754036   -2.796594
 ---------------------------------------------------------------------
                    Distance matrix (angstroms):
                    1          2          3          4          5
     1  O    0.000000
     2  H    2.358849   0.000000
     3  O    1.196417   2.679743   0.000000
     4  O    3.104490   0.963742   3.131660   0.000000
     5  H    3.086067   1.531418   2.756560   0.962199   0.000000
 Stoichiometry    H2O3
 Framework group  C1[X(H2O3)]
 Deg. of freedom     9
 Full point group                 C1      NOp   1
 Largest Abelian subgroup         C1      NOp   1
 Largest concise Abelian subgroup C1      NOp   1
                         Standard orientation:                         
 ---------------------------------------------------------------------
 Center     Atomic      Atomic             Coordinates (Angstroms)
 Number     Number       Type             X           Y           Z
 ---------------------------------------------------------------------
      1          8           0        1.129382   -0.596131    0.000169
      2          1           0       -1.220164   -0.641576    0.204459
      3          8           0        1.144943    0.600153   -0.008624
      4          8           0       -1.922636   -0.029279   -0.041357
      5          1           0       -1.593353    0.843639    0.194044
 ---------------------------------------------------------------------
 Rotational constants (GHZ):     39.8277721      4.8358291      4.3197780
 Standard basis: 6-31+G(d,p) (6D, 7F)
 There are    67 symmetry adapted basis functions of A   symmetry.
 Integral buffers will be    262144 words long.
 Raffenetti 2 integral format.
 Two-electron integral symmetry is turned on.
    67 basis functions,   110 primitive gaussians,    67 cartesian basis functions
    13 alpha electrons       13 beta electrons
       nuclear repulsion energy        65.4509391115 Hartrees.
 NAtoms=    5 NActive=    5 NUniq=    5 SFac= 7.50D-01 NAtFMM=   80 NAOKFM=F Big=F
 One-electron integrals computed using PRISM.
 NBasis=    67 RedAO= T  NBF=    67
 NBsUse=    67 1.00D-06 NBFU=    67
 Initial guess read from the read-write file.
 B after Tr=     0.000000    0.000000    0.000000
         Rot=    1.000000    0.000000    0.000000    0.000000 Ang=   0.00 deg.
 Initial guess orbital symmetries:
       Occupied  (A) (A) (A) (A) (A) (A) (A) (A) (A) (A) (A) (A)
                 (A)
       Virtual   (A) (A) (A) (A) (A) (A) (A) (A) (A) (A) (A) (A)
                 (A) (A) (A) (A) (A) (A) (A) (A) (A) (A) (A) (A)
                 (A) (A) (A) (A) (A) (A) (A) (A) (A) (A) (A) (A)
                 (A) (A) (A) (A) (A) (A) (A) (A) (A) (A) (A) (A)
                 (A) (A) (A) (A) (A) (A)
 Harris functional with IExCor= 1009 diagonalized for initial guess.
 ExpMin= 8.45D-02 ExpMax= 5.48D+03 ExpMxC= 8.25D+02 IAcc=2 IRadAn=         0 AccDes= 0.00D+00
 HarFok:  IExCor= 1009 AccDes= 0.00D+00 IRadAn=         0 IDoV= 1
 ScaDFX=  1.000000  1.000000  1.000000  1.000000
 FoFCou: FMM=F IPFlag=           0 FMFlag=      100000 FMFlg1=           0
         NFxFlg=           0 DoJE=T BraDBF=F KetDBF=T FulRan=T
         Omega=  0.000000  0.000000  1.000000  0.000000  0.000000 ICntrl=     500 IOpCl=  0
         NMat0=    1 NMatS0=    1 NMatT0=    0 NMatD0=    1 NMtDS0=    0 NMtDT0=    0
         I1Cent=           4 NGrid=           0.
 Petite list used in FoFCou.
 Requested convergence on RMS density matrix=1.00D-08 within 128 cycles.
 Requested convergence on MAX density matrix=1.00D-06.
 Requested convergence on             energy=1.00D-06.
 No special actions if energy rises.
 Keep R1 ints in memory in canonical form, NReq=3551375.
 Integral accuracy reduced to 1.0D-05 until final iterations.
 Initial convergence to 1.0D-05 achieved.  Increase integral accuracy.
 SCF Done:  E(RM062X) =  -226.602727688     A.U. after   26 cycles
             Convg  =    0.2561D-08             -V/T =  2.0081
 Calling FoFJK, ICntrl=      2127 FMM=F ISym2X=0 I1Cent= 0 IOpClX= 0 NMat=1 NMatS=1 NMatT=0.
 ***** Axes restored to original set *****
 -------------------------------------------------------------------
 Center     Atomic                   Forces (Hartrees/Bohr)
 Number     Number              X              Y              Z
 -------------------------------------------------------------------
      1        8           0.000177948   -0.000335373   -0.000389153
      2        1          -0.000342868   -0.000378027   -0.000477774
      3        8          -0.000273771    0.000338011    0.000030612
      4        8           0.000501412    0.000531455    0.000788745
      5        1          -0.000062720   -0.000156067    0.000047571
 -------------------------------------------------------------------
 Cartesian Forces:  Max     0.000788745 RMS     0.000379560

 GradGradGradGradGradGradGradGradGradGradGradGradGradGradGradGradGradGrad
 Berny optimization.
 Internal  Forces:  Max     0.000961722 RMS     0.000447962
 Search for a saddle point.
 Step number   2 out of a maximum of   20
 All quantities printed in internal units (Hartrees-Bohrs-Radians)
 Swaping is turned off.
 Update second derivatives using D2CorX and points    1    2
 The second derivative matrix:
                          R1        R2        R3        R4        A1
           R1          -0.00596
           R2          -0.00935   0.70951
           R3          -0.07052  -0.00937   0.28419
           R4          -0.00024  -0.00026  -0.00366   0.56646
           A1          -0.00305   0.00469  -0.02231  -0.00170   0.06137
           A2          -0.00125   0.00651   0.02528   0.01830   0.00486
           A3           0.01117   0.00329  -0.00266  -0.00161  -0.00112
           A4           0.01437   0.00731   0.06699   0.00011   0.00592
           D1           0.02045   0.00382   0.08750  -0.00069   0.00767
                          A2        A3        A4        D1
           A2           0.11253
           A3          -0.00473   0.02199
           A4           0.00260  -0.00126  -0.01216
           D1           0.00325   0.00067  -0.01957  -0.01785
     Eigenvalues ---   -0.09659   0.00260   0.00522   0.02697   0.06124
     Eigenvalues ---    0.10999   0.33344   0.56723   0.70997
 Eigenvectors required to have negative eigenvalues:
                          D1        A4        R1        R3        A1
   1                    0.62635   0.49833  -0.48685  -0.32974  -0.10506
                          A3        A2        R2        R4
   1                    0.04068   0.02510  -0.01672  -0.00230
 RFO step:  Lambda0=6.721298623D-06 Lambda=-2.84991858D-05.
 Linear search not attempted -- option 19 set.
 Iteration  1 RMS(Cart)=  0.03662162 RMS(Int)=  0.00076416
 Iteration  2 RMS(Cart)=  0.00083441 RMS(Int)=  0.00000019
 Iteration  3 RMS(Cart)=  0.00000038 RMS(Int)=  0.00000000
 Variable       Old X    -DE/DX   Delta X   Delta X   Delta X     New X
                                 (Linear)    (Quad)   (Total)
    R1        4.45758  -0.00036   0.00000   0.03855   0.03855   4.49613
    R2        2.26090  -0.00042   0.00000   0.00002   0.00002   2.26092
    R3        1.82121  -0.00096   0.00000  -0.00020  -0.00020   1.82101
    R4        1.81829   0.00003   0.00000   0.00000   0.00000   1.81829
    A1        1.60366  -0.00026   0.00000  -0.00540  -0.00540   1.59826
    A2        1.83852  -0.00002   0.00000  -0.00196  -0.00196   1.83656
    A3        2.36820  -0.00060   0.00000  -0.04733  -0.04733   2.32087
    A4        2.80355   0.00023   0.00000   0.01000   0.01000   2.81355
    D1       -0.25381   0.00030   0.00000   0.01083   0.01083  -0.24297
         Item               Value     Threshold  Converged?
 Maximum Force            0.000962     0.000450     NO 
 RMS     Force            0.000448     0.000300     NO 
 Maximum Displacement     0.078661     0.001800     NO 
 RMS     Displacement     0.037017     0.001200     NO 
 Predicted change in Energy=-1.094461D-05
 GradGradGradGradGradGradGradGradGradGradGradGradGradGradGradGradGradGrad

                          Input orientation:                          
 ---------------------------------------------------------------------
 Center     Atomic      Atomic             Coordinates (Angstroms)
 Number     Number       Type             X           Y           Z
 ---------------------------------------------------------------------
      1          8           0       -0.484005   -0.046459    0.177239
      2          1           0       -1.516966    0.346259   -1.929793
      3          8           0        0.167884   -0.943289   -0.272406
      4          8           0       -1.656349   -0.233712   -2.686628
      5          1           0       -0.852224   -0.757676   -2.754968
 ---------------------------------------------------------------------
                    Distance matrix (angstroms):
                    1          2          3          4          5
     1  O    0.000000
     2  H    2.379248   0.000000
     3  O    1.196430   2.692320   0.000000
     4  O    3.100192   0.963636   3.108021   0.000000
     5  H    3.039614   1.530186   2.690388   0.962198   0.000000
 Stoichiometry    H2O3
 Framework group  C1[X(H2O3)]
 Deg. of freedom     9
 Full point group                 C1      NOp   1
 Largest Abelian subgroup         C1      NOp   1
 Largest concise Abelian subgroup C1      NOp   1
                         Standard orientation:                         
 ---------------------------------------------------------------------
 Center     Atomic      Atomic             Coordinates (Angstroms)
 Number     Number       Type             X           Y           Z
 ---------------------------------------------------------------------
      1          8           0        1.133048   -0.594842   -0.001352
      2          1           0       -1.236283   -0.667093    0.203268
      3          8           0        1.129054    0.601567   -0.007135
      4          8           0       -1.914503   -0.027292   -0.040178
      5          1           0       -1.544508    0.831629    0.186058
 ---------------------------------------------------------------------
 Rotational constants (GHZ):     39.7948178      4.8854613      4.3585659
 Standard basis: 6-31+G(d,p) (6D, 7F)
 There are    67 symmetry adapted basis functions of A   symmetry.
 Integral buffers will be    262144 words long.
 Raffenetti 2 integral format.
 Two-electron integral symmetry is turned on.
    67 basis functions,   110 primitive gaussians,    67 cartesian basis functions
    13 alpha electrons       13 beta electrons
       nuclear repulsion energy        65.5847681757 Hartrees.
 NAtoms=    5 NActive=    5 NUniq=    5 SFac= 7.50D-01 NAtFMM=   80 NAOKFM=F Big=F
 One-electron integrals computed using PRISM.
 NBasis=    67 RedAO= T  NBF=    67
 NBsUse=    67 1.00D-06 NBFU=    67
 Initial guess read from the read-write file.
 B after Tr=     0.000000    0.000000    0.000000
         Rot=    1.000000    0.000000    0.000000    0.000000 Ang=   0.00 deg.
 Initial guess orbital symmetries:
       Occupied  (A) (A) (A) (A) (A) (A) (A) (A) (A) (A) (A) (A)
                 (A)
       Virtual   (A) (A) (A) (A) (A) (A) (A) (A) (A) (A) (A) (A)
                 (A) (A) (A) (A) (A) (A) (A) (A) (A) (A) (A) (A)
                 (A) (A) (A) (A) (A) (A) (A) (A) (A) (A) (A) (A)
                 (A) (A) (A) (A) (A) (A) (A) (A) (A) (A) (A) (A)
                 (A) (A) (A) (A) (A) (A)
 Harris functional with IExCor= 1009 diagonalized for initial guess.
 ExpMin= 8.45D-02 ExpMax= 5.48D+03 ExpMxC= 8.25D+02 IAcc=2 IRadAn=         0 AccDes= 0.00D+00
 HarFok:  IExCor= 1009 AccDes= 0.00D+00 IRadAn=         0 IDoV= 1
 ScaDFX=  1.000000  1.000000  1.000000  1.000000
 FoFCou: FMM=F IPFlag=           0 FMFlag=      100000 FMFlg1=           0
         NFxFlg=           0 DoJE=T BraDBF=F KetDBF=T FulRan=T
         Omega=  0.000000  0.000000  1.000000  0.000000  0.000000 ICntrl=     500 IOpCl=  0
         NMat0=    1 NMatS0=    1 NMatT0=    0 NMatD0=    1 NMtDS0=    0 NMtDT0=    0
         I1Cent=           4 NGrid=           0.
 Petite list used in FoFCou.
 Requested convergence on RMS density matrix=1.00D-08 within 128 cycles.
 Requested convergence on MAX density matrix=1.00D-06.
 Requested convergence on             energy=1.00D-06.
 No special actions if energy rises.
 Keep R1 ints in memory in canonical form, NReq=3551375.
 Integral accuracy reduced to 1.0D-05 until final iterations.
 Initial convergence to 1.0D-05 achieved.  Increase integral accuracy.
 SCF Done:  E(RM062X) =  -226.602742185     A.U. after   18 cycles
             Convg  =    0.7145D-09             -V/T =  2.0081
 Calling FoFJK, ICntrl=      2127 FMM=F ISym2X=0 I1Cent= 0 IOpClX= 0 NMat=1 NMatS=1 NMatT=0.
 ***** Axes restored to original set *****
 -------------------------------------------------------------------
 Center     Atomic                   Forces (Hartrees/Bohr)
 Number     Number              X              Y              Z
 -------------------------------------------------------------------
      1        8           0.000177800   -0.000412124   -0.000522985
      2        1          -0.000375907   -0.000332222   -0.000456199
      3        8          -0.000207340    0.000390435    0.000235686
      4        8           0.000425316    0.000588034    0.000785221
      5        1          -0.000019869   -0.000234123   -0.000041723
 -------------------------------------------------------------------
 Cartesian Forces:  Max     0.000785221 RMS     0.000398827

 GradGradGradGradGradGradGradGradGradGradGradGradGradGradGradGradGradGrad
 Berny optimization.
 Internal  Forces:  Max     0.000866152 RMS     0.000392548
 Search for a saddle point.
 Step number   3 out of a maximum of   20
 All quantities printed in internal units (Hartrees-Bohrs-Radians)
 Swaping is turned off.
 Update second derivatives using D2CorX and points    1    2    3
 The second derivative matrix:
                          R1        R2        R3        R4        A1
           R1           0.00175
           R2          -0.00361   0.70926
           R3          -0.06048  -0.00998   0.28282
           R4          -0.00154  -0.00020  -0.00350   0.56644
           A1          -0.00497   0.00521  -0.02131  -0.00183   0.06085
           A2          -0.00343   0.00640   0.02515   0.01832   0.00474
           A3           0.01174  -0.00147  -0.01116  -0.00052   0.00064
           A4           0.01456   0.01042   0.07256  -0.00061   0.00440
           D1           0.01828   0.00513   0.08991  -0.00099   0.00701
                          A2        A3        A4        D1
           A2           0.11264
           A3          -0.00317   0.01536
           A4           0.00153   0.00175  -0.01434
           D1           0.00289   0.00400  -0.02147  -0.01916
     Eigenvalues ---   -0.09612   0.00138   0.00459   0.02608   0.06068
     Eigenvalues ---    0.10986   0.33220   0.56722   0.70973
 Eigenvectors required to have negative eigenvalues:
                          D1        A4        R1        R3        A1
   1                    0.64568   0.54339  -0.40840  -0.33076  -0.10195
                          A2        A3        R2        R4
   1                    0.02290  -0.02080  -0.01664  -0.00217
 RFO step:  Lambda0=4.556145237D-06 Lambda=-3.53030948D-05.
 Linear search not attempted -- option 19 set.
 Iteration  1 RMS(Cart)=  0.07402373 RMS(Int)=  0.00334783
 Iteration  2 RMS(Cart)=  0.00388167 RMS(Int)=  0.00000475
 Iteration  3 RMS(Cart)=  0.00000908 RMS(Int)=  0.00000000
 Iteration  4 RMS(Cart)=  0.00000000 RMS(Int)=  0.00000000
 Variable       Old X    -DE/DX   Delta X   Delta X   Delta X     New X
                                 (Linear)    (Quad)   (Total)
    R1        4.49613  -0.00026   0.00000   0.08658   0.08658   4.58271
    R2        2.26092  -0.00049   0.00000  -0.00091  -0.00091   2.26002
    R3        1.82101  -0.00087   0.00000  -0.00115  -0.00115   1.81986
    R4        1.81829   0.00011   0.00000   0.00041   0.00041   1.81870
    A1        1.59826   0.00018   0.00000   0.00622   0.00622   1.60448
    A2        1.83656   0.00017   0.00000   0.00028   0.00028   1.83684
    A3        2.32087  -0.00039   0.00000  -0.10227  -0.10227   2.21860
    A4        2.81355   0.00017   0.00000   0.00951   0.00951   2.82306
    D1       -0.24297   0.00027   0.00000   0.03317   0.03317  -0.20980
         Item               Value     Threshold  Converged?
 Maximum Force            0.000866     0.000450     NO 
 RMS     Force            0.000393     0.000300     NO 
 Maximum Displacement     0.165829     0.001800     NO 
 RMS     Displacement     0.076026     0.001200     NO 
 Predicted change in Energy=-1.571110D-05
 GradGradGradGradGradGradGradGradGradGradGradGradGradGradGradGradGradGrad

                          Input orientation:                          
 ---------------------------------------------------------------------
 Center     Atomic      Atomic             Coordinates (Angstroms)
 Number     Number       Type             X           Y           Z
 ---------------------------------------------------------------------
      1          8           0       -0.479530   -0.064381    0.162804
      2          1           0       -1.559325    0.383613   -1.961882
      3          8           0        0.169801   -0.951382   -0.308254
      4          8           0       -1.639632   -0.239193   -2.692010
      5          1           0       -0.832975   -0.763533   -2.667215
 ---------------------------------------------------------------------
                    Distance matrix (angstroms):
                    1          2          3          4          5
     1  O    0.000000
     2  H    2.425066   0.000000
     3  O    1.195950   2.739813   0.000000
     4  O    3.086480   0.963028   3.076288   0.000000
     5  H    2.936451   1.530040   2.570125   0.962415   0.000000
 Stoichiometry    H2O3
 Framework group  C1[X(H2O3)]
 Deg. of freedom     9
 Full point group                 C1      NOp   1
 Largest Abelian subgroup         C1      NOp   1
 Largest concise Abelian subgroup C1      NOp   1
                         Standard orientation:                         
 ---------------------------------------------------------------------
 Center     Atomic      Atomic             Coordinates (Angstroms)
 Number     Number       Type             X           Y           Z
 ---------------------------------------------------------------------
      1          8           0        1.130648   -0.594472   -0.005409
      2          1           0       -1.282270   -0.714894    0.204999
      3          8           0        1.111667    0.601325   -0.002855
      4          8           0       -1.901392   -0.018217   -0.037390
      5          1           0       -1.445115    0.805797    0.160234
 ---------------------------------------------------------------------
 Rotational constants (GHZ):     39.8058664      4.9671161      4.4227103
 Standard basis: 6-31+G(d,p) (6D, 7F)
 There are    67 symmetry adapted basis functions of A   symmetry.
 Integral buffers will be    262144 words long.
 Raffenetti 2 integral format.
 Two-electron integral symmetry is turned on.
    67 basis functions,   110 primitive gaussians,    67 cartesian basis functions
    13 alpha electrons       13 beta electrons
       nuclear repulsion energy        65.8205415318 Hartrees.
 NAtoms=    5 NActive=    5 NUniq=    5 SFac= 7.50D-01 NAtFMM=   80 NAOKFM=F Big=F
 One-electron integrals computed using PRISM.
 NBasis=    67 RedAO= T  NBF=    67
 NBsUse=    67 1.00D-06 NBFU=    67
 Initial guess read from the read-write file.
 B after Tr=     0.000000    0.000000    0.000000
         Rot=    1.000000    0.000000    0.000000    0.000000 Ang=   0.00 deg.
 Initial guess orbital symmetries:
       Occupied  (A) (A) (A) (A) (A) (A) (A) (A) (A) (A) (A) (A)
                 (A)
       Virtual   (A) (A) (A) (A) (A) (A) (A) (A) (A) (A) (A) (A)
                 (A) (A) (A) (A) (A) (A) (A) (A) (A) (A) (A) (A)
                 (A) (A) (A) (A) (A) (A) (A) (A) (A) (A) (A) (A)
                 (A) (A) (A) (A) (A) (A) (A) (A) (A) (A) (A) (A)
                 (A) (A) (A) (A) (A) (A)
 Harris functional with IExCor= 1009 diagonalized for initial guess.
 ExpMin= 8.45D-02 ExpMax= 5.48D+03 ExpMxC= 8.25D+02 IAcc=2 IRadAn=         0 AccDes= 0.00D+00
 HarFok:  IExCor= 1009 AccDes= 0.00D+00 IRadAn=         0 IDoV= 1
 ScaDFX=  1.000000  1.000000  1.000000  1.000000
 FoFCou: FMM=F IPFlag=           0 FMFlag=      100000 FMFlg1=           0
         NFxFlg=           0 DoJE=T BraDBF=F KetDBF=T FulRan=T
         Omega=  0.000000  0.000000  1.000000  0.000000  0.000000 ICntrl=     500 IOpCl=  0
         NMat0=    1 NMatS0=    1 NMatT0=    0 NMatD0=    1 NMtDS0=    0 NMtDT0=    0
         I1Cent=           4 NGrid=           0.
 Petite list used in FoFCou.
 Requested convergence on RMS density matrix=1.00D-08 within 128 cycles.
 Requested convergence on MAX density matrix=1.00D-06.
 Requested convergence on             energy=1.00D-06.
 No special actions if energy rises.
 Keep R1 ints in memory in canonical form, NReq=3551375.
 Integral accuracy reduced to 1.0D-05 until final iterations.
 Initial convergence to 1.0D-05 achieved.  Increase integral accuracy.
 SCF Done:  E(RM062X) =  -226.602767734     A.U. after   18 cycles
             Convg  =    0.2164D-08             -V/T =  2.0081
 Calling FoFJK, ICntrl=      2127 FMM=F ISym2X=0 I1Cent= 0 IOpClX= 0 NMat=1 NMatS=1 NMatT=0.
 ***** Axes restored to original set *****
 -------------------------------------------------------------------
 Center     Atomic                   Forces (Hartrees/Bohr)
 Number     Number              X              Y              Z
 -------------------------------------------------------------------
      1        8          -0.000207025    0.000196045   -0.000192188
      2        1          -0.000253119   -0.000164157   -0.000196618
      3        8           0.000312122   -0.000260713    0.000177696
      4        8           0.000212811    0.000365085    0.000330106
      5        1          -0.000064790   -0.000136260   -0.000118996
 -------------------------------------------------------------------
 Cartesian Forces:  Max     0.000365085 RMS     0.000226472

 GradGradGradGradGradGradGradGradGradGradGradGradGradGradGradGradGradGrad
 Berny optimization.
 Internal  Forces:  Max     0.000759586 RMS     0.000321339
 Search for a saddle point.
 Step number   4 out of a maximum of   20
 All quantities printed in internal units (Hartrees-Bohrs-Radians)
 Swaping is turned off.
 Update second derivatives using D2CorX and points    1    2    3    4
 The second derivative matrix:
                          R1        R2        R3        R4        A1
           R1           0.00142
           R2          -0.00507   0.70938
           R3          -0.05850  -0.00976   0.28219
           R4          -0.00164  -0.00023  -0.00346   0.56644
           A1          -0.00880   0.00501  -0.01994  -0.00194   0.05881
           A2          -0.00509   0.00638   0.02553   0.01828   0.00407
           A3           0.01143  -0.00003  -0.01229  -0.00051   0.00406
           A4           0.01424   0.00986   0.07370  -0.00068   0.00268
           D1           0.01764   0.00465   0.09053  -0.00102   0.00556
                          A2        A3        A4        D1
           A2           0.11247
           A3          -0.00188   0.01745
           A4           0.00073   0.00216  -0.01451
           D1           0.00236   0.00402  -0.02193  -0.01944
     Eigenvalues ---   -0.09628   0.00104   0.00489   0.02671   0.05955
     Eigenvalues ---    0.10952   0.33174   0.56721   0.70983
 Eigenvectors required to have negative eigenvalues:
                          D1        A4        R1        R3        A1
   1                    0.64725   0.54757  -0.40058  -0.33136  -0.09750
                          A3        A2        R2        R4
   1                   -0.02496   0.02388  -0.01655  -0.00213
 RFO step:  Lambda0=1.466475680D-07 Lambda=-1.49403600D-05.
 Linear search not attempted -- option 19 set.
 Iteration  1 RMS(Cart)=  0.01865797 RMS(Int)=  0.00018349
 Iteration  2 RMS(Cart)=  0.00015041 RMS(Int)=  0.00000001
 Iteration  3 RMS(Cart)=  0.00000002 RMS(Int)=  0.00000000
 Variable       Old X    -DE/DX   Delta X   Delta X   Delta X     New X
                                 (Linear)    (Quad)   (Total)
    R1        4.58271   0.00005   0.00000   0.03304   0.03304   4.61575
    R2        2.26002   0.00030   0.00000   0.00019   0.00019   2.26021
    R3        1.81986  -0.00033   0.00000  -0.00036  -0.00036   1.81949
    R4        1.81870   0.00001   0.00000   0.00009   0.00009   1.81879
    A1        1.60448   0.00076   0.00000   0.01746   0.01746   1.62194
    A2        1.83684   0.00031   0.00000   0.00317   0.00317   1.84001
    A3        2.21860   0.00021   0.00000  -0.01673  -0.01673   2.20187
    A4        2.82306   0.00010   0.00000   0.02081   0.02081   2.84387
    D1       -0.20980   0.00008   0.00000   0.00262   0.00262  -0.20718
         Item               Value     Threshold  Converged?
 Maximum Force            0.000760     0.000450     NO 
 RMS     Force            0.000321     0.000300     NO 
 Maximum Displacement     0.029970     0.001800     NO 
 RMS     Displacement     0.018646     0.001200     NO 
 Predicted change in Energy=-7.412766D-06
 GradGradGradGradGradGradGradGradGradGradGradGradGradGradGradGradGradGrad

                          Input orientation:                          
 ---------------------------------------------------------------------
 Center     Atomic      Atomic             Coordinates (Angstroms)
 Number     Number       Type             X           Y           Z
 ---------------------------------------------------------------------
      1          8           0       -0.473271   -0.066032    0.160895
      2          1           0       -1.575184    0.388186   -1.971130
      3          8           0        0.178213   -0.958974   -0.296010
      4          8           0       -1.637821   -0.235561   -2.701930
      5          1           0       -0.833598   -0.762495   -2.658381
 ---------------------------------------------------------------------
                    Distance matrix (angstroms):
                    1          2          3          4          5
     1  O    0.000000
     2  H    2.442551   0.000000
     3  O    1.196051   2.774034   0.000000
     4  O    3.095268   0.962835   3.099960   0.000000
     5  H    2.926297   1.531774   2.577433   0.962461   0.000000
 Stoichiometry    H2O3
 Framework group  C1[X(H2O3)]
 Deg. of freedom     9
 Full point group                 C1      NOp   1
 Largest Abelian subgroup         C1      NOp   1
 Largest concise Abelian subgroup C1      NOp   1
                         Standard orientation:                         
 ---------------------------------------------------------------------
 Center     Atomic      Atomic             Coordinates (Angstroms)
 Number     Number       Type             X           Y           Z
 ---------------------------------------------------------------------
      1          8           0        1.127583   -0.596744   -0.004890
      2          1           0       -1.303717   -0.723215    0.192199
      3          8           0        1.126943    0.599305   -0.002993
      4          8           0       -1.911878   -0.012448   -0.035841
      5          1           0       -1.437460    0.802317    0.157592
 ---------------------------------------------------------------------
 Rotational constants (GHZ):     39.8030630      4.9139804      4.3799364
 Standard basis: 6-31+G(d,p) (6D, 7F)
 There are    67 symmetry adapted basis functions of A   symmetry.
 Integral buffers will be    262144 words long.
 Raffenetti 2 integral format.
 Two-electron integral symmetry is turned on.
    67 basis functions,   110 primitive gaussians,    67 cartesian basis functions
    13 alpha electrons       13 beta electrons
       nuclear repulsion energy        65.6719927137 Hartrees.
 NAtoms=    5 NActive=    5 NUniq=    5 SFac= 7.50D-01 NAtFMM=   80 NAOKFM=F Big=F
 One-electron integrals computed using PRISM.
 NBasis=    67 RedAO= T  NBF=    67
 NBsUse=    67 1.00D-06 NBFU=    67
 Initial guess read from the read-write file.
 B after Tr=     0.000000    0.000000    0.000000
         Rot=    1.000000    0.000000    0.000000    0.000000 Ang=   0.00 deg.
 Initial guess orbital symmetries:
       Occupied  (A) (A) (A) (A) (A) (A) (A) (A) (A) (A) (A) (A)
                 (A)
       Virtual   (A) (A) (A) (A) (A) (A) (A) (A) (A) (A) (A) (A)
                 (A) (A) (A) (A) (A) (A) (A) (A) (A) (A) (A) (A)
                 (A) (A) (A) (A) (A) (A) (A) (A) (A) (A) (A) (A)
                 (A) (A) (A) (A) (A) (A) (A) (A) (A) (A) (A) (A)
                 (A) (A) (A) (A) (A) (A)
 Harris functional with IExCor= 1009 diagonalized for initial guess.
 ExpMin= 8.45D-02 ExpMax= 5.48D+03 ExpMxC= 8.25D+02 IAcc=2 IRadAn=         0 AccDes= 0.00D+00
 HarFok:  IExCor= 1009 AccDes= 0.00D+00 IRadAn=         0 IDoV= 1
 ScaDFX=  1.000000  1.000000  1.000000  1.000000
 FoFCou: FMM=F IPFlag=           0 FMFlag=      100000 FMFlg1=           0
         NFxFlg=           0 DoJE=T BraDBF=F KetDBF=T FulRan=T
         Omega=  0.000000  0.000000  1.000000  0.000000  0.000000 ICntrl=     500 IOpCl=  0
         NMat0=    1 NMatS0=    1 NMatT0=    0 NMatD0=    1 NMtDS0=    0 NMtDT0=    0
         I1Cent=           4 NGrid=           0.
 Petite list used in FoFCou.
 Requested convergence on RMS density matrix=1.00D-08 within 128 cycles.
 Requested convergence on MAX density matrix=1.00D-06.
 Requested convergence on             energy=1.00D-06.
 No special actions if energy rises.
 Keep R1 ints in memory in canonical form, NReq=3551375.
 Integral accuracy reduced to 1.0D-05 until final iterations.
 Initial convergence to 1.0D-05 achieved.  Increase integral accuracy.
 SCF Done:  E(RM062X) =  -226.602775241     A.U. after   18 cycles
             Convg  =    0.1826D-08             -V/T =  2.0081
 Calling FoFJK, ICntrl=      2127 FMM=F ISym2X=0 I1Cent= 0 IOpClX= 0 NMat=1 NMatS=1 NMatT=0.
 ***** Axes restored to original set *****
 -------------------------------------------------------------------
 Center     Atomic                   Forces (Hartrees/Bohr)
 Number     Number              X              Y              Z
 -------------------------------------------------------------------
      1        8          -0.000034822    0.000059357   -0.000127822
      2        1           0.000010979   -0.000224924   -0.000030447
      3        8           0.000028250   -0.000057014   -0.000005386
      4        8           0.000054489    0.000219133    0.000082663
      5        1          -0.000058896    0.000003447    0.000080992
 -------------------------------------------------------------------
 Cartesian Forces:  Max     0.000224924 RMS     0.000098201

 GradGradGradGradGradGradGradGradGradGradGradGradGradGradGradGradGradGrad
 Berny optimization.
 Internal  Forces:  Max     0.000262124 RMS     0.000128490
 Search for a saddle point.
 Step number   5 out of a maximum of   20
 All quantities printed in internal units (Hartrees-Bohrs-Radians)
 Swaping is turned off.
 Update second derivatives using D2CorX and points    1    2    3    4    5
 The second derivative matrix:
                          R1        R2        R3        R4        A1
           R1           0.00542
           R2          -0.00572   0.70941
           R3          -0.05443  -0.00966   0.28197
           R4          -0.00109  -0.00022  -0.00347   0.56644
           A1          -0.00868   0.00479  -0.01789  -0.00168   0.05826
           A2          -0.00263   0.00641   0.02580   0.01832   0.00523
           A3           0.01102   0.00064  -0.01458  -0.00079   0.00537
           A4           0.01313   0.00950   0.07615  -0.00036   0.00121
           D1           0.01608   0.00448   0.09110  -0.00095   0.00449
                          A2        A3        A4        D1
           A2           0.11284
           A3          -0.00280   0.01706
           A4           0.00203   0.00370  -0.01735
           D1           0.00247   0.00507  -0.02325  -0.01991
     Eigenvalues ---   -0.09649   0.00093   0.00461   0.02744   0.05906
     Eigenvalues ---    0.10996   0.33157   0.56721   0.70985
 Eigenvectors required to have negative eigenvalues:
                          D1        A4        R1        R3        A1
   1                    0.65138   0.57415  -0.35535  -0.33137  -0.08018
                          A3        A2        R2        R4
   1                   -0.05139   0.02514  -0.01657  -0.00204
 RFO step:  Lambda0=8.346370921D-07 Lambda=-9.27664826D-07.
 Linear search not attempted -- option 19 set.
 Iteration  1 RMS(Cart)=  0.00758981 RMS(Int)=  0.00003710
 Iteration  2 RMS(Cart)=  0.00003551 RMS(Int)=  0.00000000
 Iteration  3 RMS(Cart)=  0.00000000 RMS(Int)=  0.00000000
 Variable       Old X    -DE/DX   Delta X   Delta X   Delta X     New X
                                 (Linear)    (Quad)   (Total)
    R1        4.61575  -0.00012   0.00000   0.00947   0.00947   4.62523
    R2        2.26021   0.00004   0.00000   0.00008   0.00008   2.26029
    R3        1.81949  -0.00026   0.00000   0.00066   0.00066   1.82016
    R4        1.81879  -0.00003   0.00000   0.00001   0.00001   1.81880
    A1        1.62194   0.00006   0.00000   0.00397   0.00397   1.62591
    A2        1.84001  -0.00015   0.00000  -0.00166  -0.00166   1.83835
    A3        2.20187  -0.00005   0.00000  -0.00983  -0.00983   2.19204
    A4        2.84387   0.00015   0.00000   0.00787   0.00787   2.85174
    D1       -0.20718   0.00012   0.00000  -0.00617  -0.00617  -0.21335
         Item               Value     Threshold  Converged?
 Maximum Force            0.000262     0.000450     YES
 RMS     Force            0.000128     0.000300     YES
 Maximum Displacement     0.013270     0.001800     NO 
 RMS     Displacement     0.007602     0.001200     NO 
 Predicted change in Energy=-4.651014D-08
 GradGradGradGradGradGradGradGradGradGradGradGradGradGradGradGradGradGrad

                          Input orientation:                          
 ---------------------------------------------------------------------
 Center     Atomic      Atomic             Coordinates (Angstroms)
 Number     Number       Type             X           Y           Z
 ---------------------------------------------------------------------
      1          8           0       -0.470457   -0.065855    0.158297
      2          1           0       -1.581044    0.390423   -1.974536
      3          8           0        0.177933   -0.962647   -0.295566
      4          8           0       -1.637100   -0.236759   -2.703391
      5          1           0       -0.830993   -0.760040   -2.651359
 ---------------------------------------------------------------------
                    Distance matrix (angstroms):
                    1          2          3          4          5
     1  O    0.000000
     2  H    2.447564   0.000000
     3  O    1.196093   2.782758   0.000000
     4  O    3.095080   0.963187   3.101432   0.000000
     5  H    2.916512   1.531088   2.570747   0.962465   0.000000
 Stoichiometry    H2O3
 Framework group  C1[X(H2O3)]
 Deg. of freedom     9
 Full point group                 C1      NOp   1
 Largest Abelian subgroup         C1      NOp   1
 Largest concise Abelian subgroup C1      NOp   1
                         Standard orientation:                         
 ---------------------------------------------------------------------
 Center     Atomic      Atomic             Coordinates (Angstroms)
 Number     Number       Type             X           Y           Z
 ---------------------------------------------------------------------
      1          8           0        1.126425   -0.597148   -0.004412
      2          1           0       -1.310065   -0.728129    0.187757
      3          8           0        1.128389    0.598942   -0.003454
      4          8           0       -1.912394   -0.010539   -0.035834
      5          1           0       -1.429297    0.798089    0.161843
 ---------------------------------------------------------------------
 Rotational constants (GHZ):     39.8024214      4.9123137      4.3785775
 Standard basis: 6-31+G(d,p) (6D, 7F)
 There are    67 symmetry adapted basis functions of A   symmetry.
 Integral buffers will be    262144 words long.
 Raffenetti 2 integral format.
 Two-electron integral symmetry is turned on.
    67 basis functions,   110 primitive gaussians,    67 cartesian basis functions
    13 alpha electrons       13 beta electrons
       nuclear repulsion energy        65.6658045425 Hartrees.
 NAtoms=    5 NActive=    5 NUniq=    5 SFac= 7.50D-01 NAtFMM=   80 NAOKFM=F Big=F
 One-electron integrals computed using PRISM.
 NBasis=    67 RedAO= T  NBF=    67
 NBsUse=    67 1.00D-06 NBFU=    67
 Initial guess read from the read-write file.
 B after Tr=     0.000000    0.000000    0.000000
         Rot=    1.000000    0.000000    0.000000    0.000000 Ang=   0.00 deg.
 Initial guess orbital symmetries:
       Occupied  (A) (A) (A) (A) (A) (A) (A) (A) (A) (A) (A) (A)
                 (A)
       Virtual   (A) (A) (A) (A) (A) (A) (A) (A) (A) (A) (A) (A)
                 (A) (A) (A) (A) (A) (A) (A) (A) (A) (A) (A) (A)
                 (A) (A) (A) (A) (A) (A) (A) (A) (A) (A) (A) (A)
                 (A) (A) (A) (A) (A) (A) (A) (A) (A) (A) (A) (A)
                 (A) (A) (A) (A) (A) (A)
 Requested convergence on RMS density matrix=1.00D-08 within 128 cycles.
 Requested convergence on MAX density matrix=1.00D-06.
 Requested convergence on             energy=1.00D-06.
 No special actions if energy rises.
 Keep R1 ints in memory in canonical form, NReq=3551375.
 SCF Done:  E(RM062X) =  -226.602774270     A.U. after   15 cycles
             Convg  =    0.1647D-09             -V/T =  2.0081
 Calling FoFJK, ICntrl=      2127 FMM=F ISym2X=0 I1Cent= 0 IOpClX= 0 NMat=1 NMatS=1 NMatT=0.
 ***** Axes restored to original set *****
 -------------------------------------------------------------------
 Center     Atomic                   Forces (Hartrees/Bohr)
 Number     Number              X              Y              Z
 -------------------------------------------------------------------
      1        8           0.000013864   -0.000002391   -0.000127471
      2        1          -0.000110624   -0.000395618   -0.000289341
      3        8          -0.000034212    0.000016688   -0.000018623
      4        8           0.000176718    0.000503225    0.000451663
      5        1          -0.000045746   -0.000121903   -0.000016228
 -------------------------------------------------------------------
 Cartesian Forces:  Max     0.000503225 RMS     0.000227507

 GradGradGradGradGradGradGradGradGradGradGradGradGradGradGradGradGradGrad
 Berny optimization.
 Internal  Forces:  Max     0.000575690 RMS     0.000215470
 Search for a saddle point.
 Step number   6 out of a maximum of   20
 All quantities printed in internal units (Hartrees-Bohrs-Radians)
 Swaping is turned off.
 Update second derivatives using D2CorX and points    1    2    3    4    5
                                                      6
 The second derivative matrix:
                          R1        R2        R3        R4        A1
           R1           0.01343
           R2          -0.00411   0.70950
           R3          -0.03436  -0.00950   0.28576
           R4          -0.00265  -0.00028  -0.00354   0.56647
           A1          -0.00556   0.00555  -0.00953  -0.00240   0.05950
           A2          -0.00635   0.00601   0.02363   0.01860   0.00343
           A3           0.00958  -0.00050  -0.03274   0.00047   0.00563
           A4           0.00999   0.01090   0.08979  -0.00162   0.00002
           D1           0.00924   0.00392   0.08132  -0.00037   0.00207
                          A2        A3        A4        D1
           A2           0.11393
           A3          -0.00053   0.01211
           A4          -0.00011   0.01132  -0.02592
           D1           0.00402   0.00851  -0.02364  -0.01517
     Eigenvalues ---   -0.09466   0.00120   0.00421   0.02713   0.06001
     Eigenvalues ---    0.11131   0.33316   0.56729   0.70995
 Eigenvectors required to have negative eigenvalues:
                          A4        D1        R3        R1        A3
   1                    0.68885   0.58210  -0.32464  -0.19987  -0.19955
                          A1        A2        R2        R4
   1                   -0.02770   0.02037  -0.01711  -0.00107
 RFO step:  Lambda0=1.943231415D-06 Lambda=-4.01075438D-06.
 Linear search not attempted -- option 19 set.
 Iteration  1 RMS(Cart)=  0.02038271 RMS(Int)=  0.00026607
 Iteration  2 RMS(Cart)=  0.00027723 RMS(Int)=  0.00000001
 Iteration  3 RMS(Cart)=  0.00000002 RMS(Int)=  0.00000000
 Variable       Old X    -DE/DX   Delta X   Delta X   Delta X     New X
                                 (Linear)    (Quad)   (Total)
    R1        4.62523  -0.00014   0.00000  -0.03167  -0.03167   4.59356
    R2        2.26029  -0.00004   0.00000   0.00004   0.00004   2.26033
    R3        1.82016  -0.00058   0.00000  -0.00041  -0.00041   1.81975
    R4        1.81880   0.00004   0.00000  -0.00014  -0.00014   1.81866
    A1        1.62591  -0.00005   0.00000  -0.00705  -0.00705   1.61886
    A2        1.83835   0.00009   0.00000  -0.00093  -0.00093   1.83742
    A3        2.19204  -0.00006   0.00000   0.03034   0.03034   2.22238
    A4        2.85174   0.00016   0.00000  -0.01794  -0.01794   2.83380
    D1       -0.21335   0.00015   0.00000   0.01245   0.01245  -0.20090
         Item               Value     Threshold  Converged?
 Maximum Force            0.000576     0.000450     NO 
 RMS     Force            0.000215     0.000300     YES
 Maximum Displacement     0.035774     0.001800     NO 
 RMS     Displacement     0.020282     0.001200     NO 
 Predicted change in Energy=-1.033725D-06
 GradGradGradGradGradGradGradGradGradGradGradGradGradGradGradGradGradGrad

                          Input orientation:                          
 ---------------------------------------------------------------------
 Center     Atomic      Atomic             Coordinates (Angstroms)
 Number     Number       Type             X           Y           Z
 ---------------------------------------------------------------------
      1          8           0       -0.477699   -0.065276    0.163097
      2          1           0       -1.564774    0.382536   -1.964473
      3          8           0        0.179180   -0.954246   -0.293991
      4          8           0       -1.640146   -0.233343   -2.700900
      5          1           0       -0.838222   -0.764547   -2.670290
 ---------------------------------------------------------------------
                    Distance matrix (angstroms):
                    1          2          3          4          5
     1  O    0.000000
     2  H    2.430807   0.000000
     3  O    1.196113   2.760231   0.000000
     4  O    3.095482   0.962971   3.102074   0.000000
     5  H    2.940585   1.530312   2.591889   0.962391   0.000000
 Stoichiometry    H2O3
 Framework group  C1[X(H2O3)]
 Deg. of freedom     9
 Full point group                 C1      NOp   1
 Largest Abelian subgroup         C1      NOp   1
 Largest concise Abelian subgroup C1      NOp   1
                         Standard orientation:                         
 ---------------------------------------------------------------------
 Center     Atomic      Atomic             Coordinates (Angstroms)
 Number     Number       Type             X           Y           Z
 ---------------------------------------------------------------------
      1          8           0        1.127536   -0.596666   -0.005296
      2          1           0       -1.292017   -0.713141    0.197243
      3          8           0        1.127909    0.599444   -0.002646
      4          8           0       -1.912588   -0.014669   -0.035869
      5          1           0       -1.450847    0.808271    0.153241
 ---------------------------------------------------------------------
 Rotational constants (GHZ):     39.8104950      4.9098921      4.3768286
 Standard basis: 6-31+G(d,p) (6D, 7F)
 There are    67 symmetry adapted basis functions of A   symmetry.
 Integral buffers will be    262144 words long.
 Raffenetti 2 integral format.
 Two-electron integral symmetry is turned on.
    67 basis functions,   110 primitive gaussians,    67 cartesian basis functions
    13 alpha electrons       13 beta electrons
       nuclear repulsion energy        65.6621593547 Hartrees.
 NAtoms=    5 NActive=    5 NUniq=    5 SFac= 7.50D-01 NAtFMM=   80 NAOKFM=F Big=F
 One-electron integrals computed using PRISM.
 NBasis=    67 RedAO= T  NBF=    67
 NBsUse=    67 1.00D-06 NBFU=    67
 Initial guess read from the read-write file.
 B after Tr=     0.000000    0.000000    0.000000
         Rot=    1.000000    0.000000    0.000000    0.000000 Ang=   0.00 deg.
 Initial guess orbital symmetries:
       Occupied  (A) (A) (A) (A) (A) (A) (A) (A) (A) (A) (A) (A)
                 (A)
       Virtual   (A) (A) (A) (A) (A) (A) (A) (A) (A) (A) (A) (A)
                 (A) (A) (A) (A) (A) (A) (A) (A) (A) (A) (A) (A)
                 (A) (A) (A) (A) (A) (A) (A) (A) (A) (A) (A) (A)
                 (A) (A) (A) (A) (A) (A) (A) (A) (A) (A) (A) (A)
                 (A) (A) (A) (A) (A) (A)
 Harris functional with IExCor= 1009 diagonalized for initial guess.
 ExpMin= 8.45D-02 ExpMax= 5.48D+03 ExpMxC= 8.25D+02 IAcc=2 IRadAn=         0 AccDes= 0.00D+00
 HarFok:  IExCor= 1009 AccDes= 0.00D+00 IRadAn=         0 IDoV= 1
 ScaDFX=  1.000000  1.000000  1.000000  1.000000
 FoFCou: FMM=F IPFlag=           0 FMFlag=      100000 FMFlg1=           0
         NFxFlg=           0 DoJE=T BraDBF=F KetDBF=T FulRan=T
         Omega=  0.000000  0.000000  1.000000  0.000000  0.000000 ICntrl=     500 IOpCl=  0
         NMat0=    1 NMatS0=    1 NMatT0=    0 NMatD0=    1 NMtDS0=    0 NMtDT0=    0
         I1Cent=           4 NGrid=           0.
 Petite list used in FoFCou.
 Requested convergence on RMS density matrix=1.00D-08 within 128 cycles.
 Requested convergence on MAX density matrix=1.00D-06.
 Requested convergence on             energy=1.00D-06.
 No special actions if energy rises.
 Keep R1 ints in memory in canonical form, NReq=3551375.
 Integral accuracy reduced to 1.0D-05 until final iterations.
 Initial convergence to 1.0D-05 achieved.  Increase integral accuracy.
 SCF Done:  E(RM062X) =  -226.602775353     A.U. after   19 cycles
             Convg  =    0.1351D-08             -V/T =  2.0081
 Calling FoFJK, ICntrl=      2127 FMM=F ISym2X=0 I1Cent= 0 IOpClX= 0 NMat=1 NMatS=1 NMatT=0.
 ***** Axes restored to original set *****
 -------------------------------------------------------------------
 Center     Atomic                   Forces (Hartrees/Bohr)
 Number     Number              X              Y              Z
 -------------------------------------------------------------------
      1        8           0.000027222   -0.000007549   -0.000164922
      2        1          -0.000203571   -0.000154344   -0.000146297
      3        8          -0.000038530    0.000008406    0.000024126
      4        8           0.000214233    0.000307733    0.000359832
      5        1           0.000000646   -0.000154247   -0.000072739
 -------------------------------------------------------------------
 Cartesian Forces:  Max     0.000359832 RMS     0.000166525

 GradGradGradGradGradGradGradGradGradGradGradGradGradGradGradGradGradGrad
 Berny optimization.
 Internal  Forces:  Max     0.000332507 RMS     0.000159931
 Search for a saddle point.
 Step number   7 out of a maximum of   20
 All quantities printed in internal units (Hartrees-Bohrs-Radians)
 Swaping is turned off.
 Update second derivatives using D2CorX and points    1    2    3    4    5
                                                      6    7
 The second derivative matrix:
                          R1        R2        R3        R4        A1
           R1           0.00659
           R2          -0.00543   0.70937
           R3          -0.04837  -0.01035   0.29082
           R4          -0.00111  -0.00029  -0.00350   0.56649
           A1          -0.00741   0.00396  -0.02635  -0.00222   0.05423
           A2          -0.00287   0.00599   0.02556   0.01876   0.00406
           A3           0.00686  -0.00088  -0.04268  -0.00047   0.00276
           A4           0.01229   0.00994   0.07268  -0.00091   0.00267
           D1           0.01084   0.00290   0.06273  -0.00046   0.00268
                          A2        A3        A4        D1
           A2           0.11469
           A3          -0.00253   0.01283
           A4           0.00094   0.01135  -0.01678
           D1           0.00322   0.00900  -0.01560  -0.00825
     Eigenvalues ---   -0.07497   0.00151   0.00381   0.02438   0.05390
     Eigenvalues ---    0.11163   0.33260   0.56730   0.70983
 Eigenvectors required to have negative eigenvalues:
                          A4        D1        R1        R3        A3
   1                    0.65445   0.53433  -0.33900  -0.30601  -0.25799
                          A1        A2        R2        R4
   1                   -0.10121   0.02326  -0.01661  -0.00218
 RFO step:  Lambda0=1.447384166D-06 Lambda=-1.49372703D-06.
 Linear search not attempted -- option 19 set.
 Iteration  1 RMS(Cart)=  0.00565740 RMS(Int)=  0.00002736
 Iteration  2 RMS(Cart)=  0.00002155 RMS(Int)=  0.00000000
 Iteration  3 RMS(Cart)=  0.00000000 RMS(Int)=  0.00000000
 Variable       Old X    -DE/DX   Delta X   Delta X   Delta X     New X
                                 (Linear)    (Quad)   (Total)
    R1        4.59356  -0.00013   0.00000   0.00924   0.00924   4.60280
    R2        2.26033  -0.00005   0.00000  -0.00003  -0.00003   2.26030
    R3        1.81975  -0.00033   0.00000   0.00045   0.00045   1.82020
    R4        1.81866   0.00009   0.00000   0.00012   0.00012   1.81878
    A1        1.61886   0.00003   0.00000   0.00268   0.00268   1.62153
    A2        1.83742   0.00021   0.00000   0.00184   0.00184   1.83926
    A3        2.22238  -0.00014   0.00000  -0.01004  -0.01004   2.21234
    A4        2.83380   0.00015   0.00000   0.00269   0.00269   2.83650
    D1       -0.20090   0.00009   0.00000  -0.00982  -0.00982  -0.21073
         Item               Value     Threshold  Converged?
 Maximum Force            0.000333     0.000450     YES
 RMS     Force            0.000160     0.000300     YES
 Maximum Displacement     0.007594     0.001800     NO 
 RMS     Displacement     0.005657     0.001200     NO 
 Predicted change in Energy=-2.315728D-08
 GradGradGradGradGradGradGradGradGradGradGradGradGradGradGradGradGradGrad

                          Input orientation:                          
 ---------------------------------------------------------------------
 Center     Atomic      Atomic             Coordinates (Angstroms)
 Number     Number       Type             X           Y           Z
 ---------------------------------------------------------------------
      1          8           0       -0.475272   -0.064817    0.161871
      2          1           0       -1.568793    0.385464   -1.967469
      3          8           0        0.178233   -0.957340   -0.293085
      4          8           0       -1.640563   -0.236030   -2.699837
      5          1           0       -0.835266   -0.762154   -2.668037
 ---------------------------------------------------------------------
                    Distance matrix (angstroms):
                    1          2          3          4          5
     1  O    0.000000
     2  H    2.435699   0.000000
     3  O    1.196098   2.767450   0.000000
     4  O    3.094606   0.963207   3.101735   0.000000
     5  H    2.936708   1.531628   2.589532   0.962455   0.000000
 Stoichiometry    H2O3
 Framework group  C1[X(H2O3)]
 Deg. of freedom     9
 Full point group                 C1      NOp   1
 Largest Abelian subgroup         C1      NOp   1
 Largest concise Abelian subgroup C1      NOp   1
                         Standard orientation:                         
 ---------------------------------------------------------------------
 Center     Atomic      Atomic             Coordinates (Angstroms)
 Number     Number       Type             X           Y           Z
 ---------------------------------------------------------------------
      1          8           0        1.126892   -0.596818   -0.004802
      2          1           0       -1.297485   -0.717681    0.196236
      3          8           0        1.128337    0.599278   -0.003223
      4          8           0       -1.912078   -0.013518   -0.036570
      5          1           0       -1.447719    0.806143    0.160526
 ---------------------------------------------------------------------
 Rotational constants (GHZ):     39.7951281      4.9113975      4.3780296
 Standard basis: 6-31+G(d,p) (6D, 7F)
 There are    67 symmetry adapted basis functions of A   symmetry.
 Integral buffers will be    262144 words long.
 Raffenetti 2 integral format.
 Two-electron integral symmetry is turned on.
    67 basis functions,   110 primitive gaussians,    67 cartesian basis functions
    13 alpha electrons       13 beta electrons
       nuclear repulsion energy        65.6610224882 Hartrees.
 NAtoms=    5 NActive=    5 NUniq=    5 SFac= 7.50D-01 NAtFMM=   80 NAOKFM=F Big=F
 One-electron integrals computed using PRISM.
 NBasis=    67 RedAO= T  NBF=    67
 NBsUse=    67 1.00D-06 NBFU=    67
 Initial guess read from the read-write file.
 B after Tr=     0.000000    0.000000    0.000000
         Rot=    1.000000    0.000000    0.000000    0.000000 Ang=   0.00 deg.
 Initial guess orbital symmetries:
       Occupied  (A) (A) (A) (A) (A) (A) (A) (A) (A) (A) (A) (A)
                 (A)
       Virtual   (A) (A) (A) (A) (A) (A) (A) (A) (A) (A) (A) (A)
                 (A) (A) (A) (A) (A) (A) (A) (A) (A) (A) (A) (A)
                 (A) (A) (A) (A) (A) (A) (A) (A) (A) (A) (A) (A)
                 (A) (A) (A) (A) (A) (A) (A) (A) (A) (A) (A) (A)
                 (A) (A) (A) (A) (A) (A)
 Requested convergence on RMS density matrix=1.00D-08 within 128 cycles.
 Requested convergence on MAX density matrix=1.00D-06.
 Requested convergence on             energy=1.00D-06.
 No special actions if energy rises.
 Keep R1 ints in memory in canonical form, NReq=3551375.
 SCF Done:  E(RM062X) =  -226.602774488     A.U. after   14 cycles
             Convg  =    0.6439D-08             -V/T =  2.0081
 Calling FoFJK, ICntrl=      2127 FMM=F ISym2X=0 I1Cent= 0 IOpClX= 0 NMat=1 NMatS=1 NMatT=0.
 ***** Axes restored to original set *****
 -------------------------------------------------------------------
 Center     Atomic                   Forces (Hartrees/Bohr)
 Number     Number              X              Y              Z
 -------------------------------------------------------------------
      1        8           0.000018139   -0.000001220   -0.000142471
      2        1          -0.000070930   -0.000428944   -0.000333722
      3        8          -0.000032138    0.000007521    0.000002973
      4        8           0.000133886    0.000454038    0.000427392
      5        1          -0.000048956   -0.000031396    0.000045828
 -------------------------------------------------------------------
 Cartesian Forces:  Max     0.000454038 RMS     0.000221261

 GradGradGradGradGradGradGradGradGradGradGradGradGradGradGradGradGradGrad
 Berny optimization.
 Internal  Forces:  Max     0.000634224 RMS     0.000228419
 Search for a saddle point.
 Step number   8 out of a maximum of   20
 All quantities printed in internal units (Hartrees-Bohrs-Radians)
 Swaping is turned off.
 Update second derivatives using D2CorX and points    1    2    3    4    5
                                                      6    7    8
 The second derivative matrix:
                          R1        R2        R3        R4        A1
           R1           0.01012
           R2          -0.00457   0.70955
           R3          -0.03474  -0.00920   0.30792
           R4          -0.00067  -0.00028  -0.00319   0.56651
           A1          -0.00362   0.00507  -0.00685  -0.00208   0.05326
           A2          -0.00053   0.00613   0.03088   0.01902   0.00541
           A3           0.00731  -0.00103  -0.04663  -0.00068   0.00703
           A4           0.00965   0.01024   0.07417  -0.00096  -0.00172
           D1           0.00191   0.00044   0.02253  -0.00076   0.00096
                          A2        A3        A4        D1
           A2           0.11630
           A3          -0.00285   0.01045
           A4          -0.00021   0.01268  -0.01850
           D1          -0.00020   0.00239  -0.00637   0.00099
     Eigenvalues ---   -0.05162   0.00181   0.00290   0.02188   0.05354
     Eigenvalues ---    0.11231   0.33847   0.56734   0.70998
 Eigenvectors required to have negative eigenvalues:
                          A4        A3        R3        R1        D1
   1                    0.83462  -0.34484  -0.25919  -0.24314   0.23667
                          A2        R2        A1        R4
   1                    0.04288  -0.01682   0.00789  -0.00170
 RFO step:  Lambda0=2.776020120D-06 Lambda=-3.95493582D-06.
 Linear search not attempted -- option 19 set.
 Iteration  1 RMS(Cart)=  0.01199253 RMS(Int)=  0.00010616
 Iteration  2 RMS(Cart)=  0.00008664 RMS(Int)=  0.00000000
 Iteration  3 RMS(Cart)=  0.00000000 RMS(Int)=  0.00000000
 Variable       Old X    -DE/DX   Delta X   Delta X   Delta X     New X
                                 (Linear)    (Quad)   (Total)
    R1        4.60280  -0.00013   0.00000  -0.01725  -0.01725   4.58555
    R2        2.26030  -0.00004   0.00000   0.00007   0.00007   2.26037
    R3        1.82020  -0.00063   0.00000  -0.00006  -0.00006   1.82014
    R4        1.81878  -0.00001   0.00000  -0.00003  -0.00003   1.81875
    A1        1.62153  -0.00001   0.00000  -0.00427  -0.00427   1.61726
    A2        1.83926  -0.00006   0.00000  -0.00001  -0.00001   1.83925
    A3        2.21234  -0.00011   0.00000   0.01597   0.01597   2.22831
    A4        2.83650   0.00015   0.00000  -0.01381  -0.01381   2.82269
    D1       -0.21073   0.00011   0.00000   0.02332   0.02332  -0.18740
         Item               Value     Threshold  Converged?
 Maximum Force            0.000634     0.000450     NO 
 RMS     Force            0.000228     0.000300     YES
 Maximum Displacement     0.016543     0.001800     NO 
 RMS     Displacement     0.011990     0.001200     NO 
 Predicted change in Energy=-5.893783D-07
 GradGradGradGradGradGradGradGradGradGradGradGradGradGradGradGradGradGrad

                          Input orientation:                          
 ---------------------------------------------------------------------
 Center     Atomic      Atomic             Coordinates (Angstroms)
 Number     Number       Type             X           Y           Z
 ---------------------------------------------------------------------
      1          8           0       -0.482079   -0.067525    0.164366
      2          1           0       -1.560039    0.382610   -1.962513
      3          8           0        0.181722   -0.949960   -0.295439
      4          8           0       -1.639805   -0.231584   -2.700151
      5          1           0       -0.841460   -0.768417   -2.672819
 ---------------------------------------------------------------------
                    Distance matrix (angstroms):
                    1          2          3          4          5
     1  O    0.000000
     2  H    2.426569   0.000000
     3  O    1.196137   2.754743   0.000000
     4  O    3.093979   0.963175   3.101075   0.000000
     5  H    2.944491   1.531585   2.594571   0.962441   0.000000
 Stoichiometry    H2O3
 Framework group  C1[X(H2O3)]
 Deg. of freedom     9
 Full point group                 C1      NOp   1
 Largest Abelian subgroup         C1      NOp   1
 Largest concise Abelian subgroup C1      NOp   1
                         Standard orientation:                         
 ---------------------------------------------------------------------
 Center     Atomic      Atomic             Coordinates (Angstroms)
 Number     Number       Type             X           Y           Z
[...]
                                                     18   19
 The second derivative matrix:
                          R1        R2        R3        R4        A1
           R1           0.01294
           R2           0.00151   0.71153
           R3          -0.00610   0.00430   0.40794
           R4          -0.00053  -0.00040  -0.00443   0.56657
           A1           0.00383   0.00802   0.01101  -0.00180   0.03489
           A2           0.00018   0.00500   0.03027   0.02000   0.00328
           A3           0.01222   0.00181  -0.00250  -0.00074   0.00812
           A4           0.00142  -0.00103  -0.01010  -0.00034  -0.00023
           D1          -0.00084  -0.00002   0.00306  -0.00065   0.00788
                          A2        A3        A4        D1
           A2           0.12074
           A3          -0.00139   0.01774
           A4           0.00250   0.00182  -0.00015
           D1           0.00329   0.00211  -0.00196   0.00337
     Eigenvalues ---   -0.00195   0.00156   0.00374   0.02243   0.04193
     Eigenvalues ---    0.11689   0.41168   0.56754   0.71175
 Eigenvectors required to have negative eigenvalues:
                          A4        D1        A3        R1        A1
   1                    0.81663   0.52694  -0.17440   0.12585  -0.08582
                          A2        R3        R2        R4
   1                   -0.03651   0.02199   0.00246   0.00217
 RFO step:  Lambda0=9.455685189D-06 Lambda=-5.08130376D-05.
 Linear search not attempted -- option 19 set.
 Iteration  1 RMS(Cart)=  0.05545566 RMS(Int)=  0.00217269
 Iteration  2 RMS(Cart)=  0.00250009 RMS(Int)=  0.00000435
 Iteration  3 RMS(Cart)=  0.00000631 RMS(Int)=  0.00000000
 Iteration  4 RMS(Cart)=  0.00000000 RMS(Int)=  0.00000000
 Variable       Old X    -DE/DX   Delta X   Delta X   Delta X     New X
                                 (Linear)    (Quad)   (Total)
    R1        4.26283   0.00028   0.00000   0.05671   0.05671   4.31954
    R2        2.26042   0.00008   0.00000  -0.00022  -0.00022   2.26020
    R3        1.81493   0.00293   0.00000   0.00446   0.00446   1.81939
    R4        1.81756  -0.00008   0.00000  -0.00020  -0.00020   1.81736
    A1        1.62964   0.00053   0.00000   0.00532   0.00532   1.63496
    A2        1.84985   0.00032   0.00000   0.00271   0.00271   1.85256
    A3        2.46741   0.00019   0.00000  -0.02153  -0.02153   2.44588
    A4        2.38971  -0.00004   0.00000  -0.11605  -0.11605   2.27365
    D1       -0.60235   0.00030   0.00000   0.02820   0.02820  -0.57415
         Item               Value     Threshold  Converged?
 Maximum Force            0.002926     0.000450     NO 
 RMS     Force            0.001009     0.000300     NO 
 Maximum Displacement     0.075370     0.001800     NO 
 RMS     Displacement     0.056926     0.001200     NO 
 Predicted change in Energy=-2.099506D-05
 GradGradGradGradGradGradGradGradGradGradGradGradGradGradGradGradGradGrad

                          Input orientation:                          
 ---------------------------------------------------------------------
 Center     Atomic      Atomic             Coordinates (Angstroms)
 Number     Number       Type             X           Y           Z
 ---------------------------------------------------------------------
      1          8           0       -0.572499   -0.027195    0.226786
      2          1           0       -1.233846    0.267193   -1.941356
      3          8           0        0.194547   -0.903615   -0.045339
      4          8           0       -1.685502   -0.356870   -2.518848
      5          1           0       -1.044361   -0.614389   -3.187800
 ---------------------------------------------------------------------
                    Distance matrix (angstroms):
                    1          2          3          4          5
     1  O    0.000000
     2  H    2.285801   0.000000
     3  O    1.196045   2.646882   0.000000
     4  O    2.980934   0.962779   3.154641   0.000000
     5  H    3.496691   1.538413   3.390222   0.961704   0.000000
 Stoichiometry    H2O3
 Framework group  C1[X(H2O3)]
 Deg. of freedom     9
 Full point group                 C1      NOp   1
 Largest Abelian subgroup         C1      NOp   1
 Largest concise Abelian subgroup C1      NOp   1
                         Standard orientation:                         
 ---------------------------------------------------------------------
 Center     Atomic      Atomic             Coordinates (Angstroms)
 Number     Number       Type             X           Y           Z
 ---------------------------------------------------------------------
      1          8           0        1.057360   -0.598080    0.007154
      2          1           0       -1.177349   -0.421318    0.454053
      3          8           0        1.224916    0.585953   -0.015537
      4          8           0       -1.867637   -0.032050   -0.092679
      5          1           0       -2.139765    0.774736    0.354442
 ---------------------------------------------------------------------
 Rotational constants (GHZ):     40.6184096      4.8619518      4.3756875
 Standard basis: 6-31+G(d,p) (6D, 7F)
 There are    67 symmetry adapted basis functions of A   symmetry.
 Integral buffers will be    262144 words long.
 Raffenetti 2 integral format.
 Two-electron integral symmetry is turned on.
    67 basis functions,   110 primitive gaussians,    67 cartesian basis functions
    13 alpha electrons       13 beta electrons
       nuclear repulsion energy        65.4670589758 Hartrees.
 NAtoms=    5 NActive=    5 NUniq=    5 SFac= 7.50D-01 NAtFMM=   80 NAOKFM=F Big=F
 One-electron integrals computed using PRISM.
 NBasis=    67 RedAO= T  NBF=    67
 NBsUse=    67 1.00D-06 NBFU=    67
 Initial guess read from the read-write file.
 B after Tr=     0.000000    0.000000    0.000000
         Rot=    1.000000    0.000000    0.000000    0.000000 Ang=   0.00 deg.
 Initial guess orbital symmetries:
       Occupied  (A) (A) (A) (A) (A) (A) (A) (A) (A) (A) (A) (A)
                 (A)
       Virtual   (A) (A) (A) (A) (A) (A) (A) (A) (A) (A) (A) (A)
                 (A) (A) (A) (A) (A) (A) (A) (A) (A) (A) (A) (A)
                 (A) (A) (A) (A) (A) (A) (A) (A) (A) (A) (A) (A)
                 (A) (A) (A) (A) (A) (A) (A) (A) (A) (A) (A) (A)
                 (A) (A) (A) (A) (A) (A)
 Harris functional with IExCor= 1009 diagonalized for initial guess.
 ExpMin= 8.45D-02 ExpMax= 5.48D+03 ExpMxC= 8.25D+02 IAcc=2 IRadAn=         0 AccDes= 0.00D+00
 HarFok:  IExCor= 1009 AccDes= 0.00D+00 IRadAn=         0 IDoV= 1
 ScaDFX=  1.000000  1.000000  1.000000  1.000000
 FoFCou: FMM=F IPFlag=           0 FMFlag=      100000 FMFlg1=           0
         NFxFlg=           0 DoJE=T BraDBF=F KetDBF=T FulRan=T
         Omega=  0.000000  0.000000  1.000000  0.000000  0.000000 ICntrl=     500 IOpCl=  0
         NMat0=    1 NMatS0=    1 NMatT0=    0 NMatD0=    1 NMtDS0=    0 NMtDT0=    0
         I1Cent=           4 NGrid=           0.
 Petite list used in FoFCou.
 Requested convergence on RMS density matrix=1.00D-08 within 128 cycles.
 Requested convergence on MAX density matrix=1.00D-06.
 Requested convergence on             energy=1.00D-06.
 No special actions if energy rises.
 Keep R1 ints in memory in canonical form, NReq=3551229.
 Integral accuracy reduced to 1.0D-05 until final iterations.
 Initial convergence to 1.0D-05 achieved.  Increase integral accuracy.
 SCF Done:  E(RM062X) =  -226.602514963     A.U. after   25 cycles
             Convg  =    0.1705D-08             -V/T =  2.0081
 Calling FoFJK, ICntrl=      2127 FMM=F ISym2X=0 I1Cent= 0 IOpClX= 0 NMat=1 NMatS=1 NMatT=0.
 ***** Axes restored to original set *****
 -------------------------------------------------------------------
 Center     Atomic                   Forces (Hartrees/Bohr)
 Number     Number              X              Y              Z
 -------------------------------------------------------------------
      1        8          -0.000153403    0.000054982   -0.000069725
      2        1           0.000044971    0.000141290    0.000087152
      3        8           0.000192678   -0.000106161    0.000082013
      4        8          -0.000020471   -0.000030328   -0.000125897
      5        1          -0.000063776   -0.000059783    0.000026457
 -------------------------------------------------------------------
 Cartesian Forces:  Max     0.000192678 RMS     0.000097177

 GradGradGradGradGradGradGradGradGradGradGradGradGradGradGradGradGradGrad
 Berny optimization.
 Internal  Forces:  Max     0.000316742 RMS     0.000140870
 Search for a saddle point.
 Step number  20 out of a maximum of   20
 All quantities printed in internal units (Hartrees-Bohrs-Radians)
 Swaping is turned off.
 Update second derivatives using D2CorX and points   13   14   15   16   17
                                                     18   19   20
 The second derivative matrix:
                          R1        R2        R3        R4        A1
           R1           0.01316
           R2           0.00036   0.71164
           R3          -0.00917   0.00458   0.41084
           R4          -0.00033  -0.00041  -0.00444   0.56657
           A1           0.00210   0.00721   0.00722  -0.00162   0.03215
           A2          -0.00032   0.00477   0.02983   0.02006   0.00257
           A3           0.01214   0.00264   0.00229  -0.00084   0.00929
           A4           0.00143  -0.00006  -0.01078  -0.00063   0.00140
           D1          -0.00131   0.00039   0.00486  -0.00075   0.00890
                          A2        A3        A4        D1
           A2           0.12065
           A3          -0.00100   0.01725
           A4           0.00279   0.00254  -0.00065
           D1           0.00370   0.00243  -0.00138   0.00397
     Eigenvalues ---   -0.00240   0.00143   0.00283   0.02230   0.04066
     Eigenvalues ---    0.11694   0.41445   0.56754   0.71185
 Eigenvectors required to have negative eigenvalues:
                          A4        D1        A3        R1        A1
   1                    0.84520   0.44589  -0.22007   0.16029  -0.10251
                          A2        R3        R4        R2
   1                   -0.03859   0.02617   0.00257   0.00168
 RFO step:  Lambda0=1.439302647D-06 Lambda=-5.55900346D-06.
 Linear search not attempted -- option 19 set.
 Iteration  1 RMS(Cart)=  0.02288992 RMS(Int)=  0.00039361
 Iteration  2 RMS(Cart)=  0.00068302 RMS(Int)=  0.00000031
 Iteration  3 RMS(Cart)=  0.00000030 RMS(Int)=  0.00000000
 Variable       Old X    -DE/DX   Delta X   Delta X   Delta X     New X
                                 (Linear)    (Quad)   (Total)
    R1        4.31954   0.00003   0.00000   0.02777   0.02777   4.34730
    R2        2.26020   0.00019   0.00000   0.00026   0.00026   2.26045
    R3        1.81939   0.00016   0.00000   0.00083   0.00083   1.82022
    R4        1.81736  -0.00005   0.00000   0.00000   0.00000   1.81736
    A1        1.63496   0.00032   0.00000   0.00759   0.00759   1.64255
    A2        1.85256   0.00006   0.00000  -0.00091  -0.00091   1.85165
    A3        2.44588   0.00004   0.00000  -0.02597  -0.02597   2.41992
    A4        2.27365  -0.00007   0.00000   0.00325   0.00325   2.27690
    D1       -0.57415   0.00007   0.00000   0.02757   0.02757  -0.54658
         Item               Value     Threshold  Converged?
 Maximum Force            0.000317     0.000450     YES
 RMS     Force            0.000141     0.000300     YES
 Maximum Displacement     0.034694     0.001800     NO 
 RMS     Displacement     0.023344     0.001200     NO 
 Predicted change in Energy=-2.059403D-06
 Optimization stopped.
    -- Number of steps exceeded,  NStep=  20
    -- Flag reset to prevent archiving.
                           ----------------------------
                           ! Non-Optimized Parameters !
                           ! (Angstroms and Degrees)  !
 --------------------------                            --------------------------
 ! Name  Definition              Value          Derivative Info.                !
 --------------------------------------------------------------------------------
 ! R1    R(1,2)                  2.3005         -DE/DX =    0.0                 !
 ! R2    R(1,3)                  1.1962         -DE/DX =    0.0002              !
 ! R3    R(2,4)                  0.9632         -DE/DX =    0.0002              !
 ! R4    R(4,5)                  0.9617         -DE/DX =    0.0                 !
 ! A1    A(2,1,3)               94.111          -DE/DX =    0.0003              !
 ! A2    A(2,4,5)              106.0919         -DE/DX =    0.0001              !
 ! A3    L(1,2,4,3,-1)         138.6511         -DE/DX =    0.0                 !
 ! A4    L(1,2,4,3,-2)         130.457          -DE/DX =   -0.0001              !
 ! D1    D(3,1,4,5)            -31.3165         -DE/DX =    0.0001              !
 --------------------------------------------------------------------------------
 GradGradGradGradGradGradGradGradGradGradGradGradGradGradGradGradGradGrad

                          Input orientation:                          
 ---------------------------------------------------------------------
 Center     Atomic      Atomic             Coordinates (Angstroms)
 Number     Number       Type             X           Y           Z
 ---------------------------------------------------------------------
      1          8           0       -0.572499   -0.027195    0.226786
      2          1           0       -1.233846    0.267193   -1.941356
      3          8           0        0.194547   -0.903615   -0.045339
      4          8           0       -1.685502   -0.356870   -2.518848
      5          1           0       -1.044361   -0.614389   -3.187800
 ---------------------------------------------------------------------
                    Distance matrix (angstroms):
                    1          2          3          4          5
     1  O    0.000000
     2  H    2.285801   0.000000
     3  O    1.196045   2.646882   0.000000
     4  O    2.980934   0.962779   3.154641   0.000000
     5  H    3.496691   1.538413   3.390222   0.961704   0.000000
 Stoichiometry    H2O3
 Framework group  C1[X(H2O3)]
 Deg. of freedom     9
 Full point group                 C1      NOp   1
 Largest Abelian subgroup         C1      NOp   1
 Largest concise Abelian subgroup C1      NOp   1
                         Standard orientation:                         
 ---------------------------------------------------------------------
 Center     Atomic      Atomic             Coordinates (Angstroms)
 Number     Number       Type             X           Y           Z
 ---------------------------------------------------------------------
      1          8           0        1.057360   -0.598080    0.007154
      2          1           0       -1.177349   -0.421318    0.454053
      3          8           0        1.224916    0.585953   -0.015537
      4          8           0       -1.867637   -0.032050   -0.092679
      5          1           0       -2.139765    0.774736    0.354442
 ---------------------------------------------------------------------
 Rotational constants (GHZ):     40.6184096      4.8619518      4.3756875

 **********************************************************************

            Population analysis using the SCF density.

 **********************************************************************

 Orbital symmetries:
       Occupied  (A) (A) (A) (A) (A) (A) (A) (A) (A) (A) (A) (A)
                 (A)
       Virtual   (A) (A) (A) (A) (A) (A) (A) (A) (A) (A) (A) (A)
                 (A) (A) (A) (A) (A) (A) (A) (A) (A) (A) (A) (A)
                 (A) (A) (A) (A) (A) (A) (A) (A) (A) (A) (A) (A)
                 (A) (A) (A) (A) (A) (A) (A) (A) (A) (A) (A) (A)
                 (A) (A) (A) (A) (A) (A)
 The electronic state is 1-A.
 Alpha  occ. eigenvalues --  -19.82658 -19.82538 -19.64665  -1.44828  -1.13169
 Alpha  occ. eigenvalues --   -0.92815  -0.64310  -0.63695  -0.61627  -0.60355
 Alpha  occ. eigenvalues --   -0.46531  -0.39392  -0.35406
 Alpha virt. eigenvalues --   -0.12949   0.06591   0.09301   0.11519   0.13334
 Alpha virt. eigenvalues --    0.17146   0.18963   0.19553   0.20569   0.21115
 Alpha virt. eigenvalues --    0.24661   0.26358   0.29963   0.31943   0.34090
 Alpha virt. eigenvalues --    0.38117   0.98480   1.05115   1.08086   1.11342
 Alpha virt. eigenvalues --    1.11949   1.13178   1.16116   1.18518   1.19859
 Alpha virt. eigenvalues --    1.20406   1.22687   1.29325   1.34710   1.54469
 Alpha virt. eigenvalues --    1.56248   1.56782   1.58511   1.60183   1.63315
 Alpha virt. eigenvalues --    1.65155   1.72842   1.97462   1.98736   2.28553
 Alpha virt. eigenvalues --    2.30082   2.55446   2.57786   2.61296   2.62983
 Alpha virt. eigenvalues --    2.68289   2.71881   2.97025   3.06380   3.41301
 Alpha virt. eigenvalues --    3.56751   3.72634   3.98267   4.09544
          Condensed to atoms (all electrons):
              1          2          3          4          5
     1  O    7.684397   0.002216   0.324238  -0.010344  -0.000733
     2  H    0.002216   0.366282  -0.000614   0.279160  -0.022861
     3  O    0.324238  -0.000614   7.657018   0.018340  -0.000053
     4  O   -0.010344   0.279160   0.018340   8.176769   0.286448
     5  H   -0.000733  -0.022861  -0.000053   0.286448   0.363940
 Mulliken atomic charges:
              1
     1  O    0.000226
     2  H    0.375816
     3  O    0.001072
     4  O   -0.750373
     5  H    0.373258
 Sum of Mulliken atomic charges =   0.00000
 Mulliken charges with hydrogens summed into heavy atoms:
              1
     1  O    0.000226
     3  O    0.001072
     4  O   -0.001298
 Sum of Mulliken charges with hydrogens summed into heavy atoms =   0.00000
 Electronic spatial extent (au):  <R**2>=            258.9332
 Charge=              0.0000 electrons
 Dipole moment (field-independent basis, Debye):
    X=              0.9068    Y=              0.8404    Z=              1.8246  Tot=              2.2041
 Quadrupole moment (field-independent basis, Debye-Ang):
   XX=            -19.7202   YY=            -16.1289   ZZ=            -16.4811
   XY=             -2.9353   XZ=             -2.1838   YZ=              0.1718
 Traceless Quadrupole moment (field-independent basis, Debye-Ang):
   XX=             -2.2768   YY=              1.3145   ZZ=              0.9623
   XY=             -2.9353   XZ=             -2.1838   YZ=              0.1718
 Octapole moment (field-independent basis, Debye-Ang**2):
  XXX=              7.2824  YYY=              1.2425  ZZZ=              1.2083  XYY=             -2.1329
  XXY=              8.2337  XXZ=              6.8358  XZZ=              1.5965  YZZ=              0.1605
  YYZ=              0.8467  XYZ=             -0.9871
 Hexadecapole moment (field-independent basis, Debye-Ang**3):
 XXXX=           -249.1435 YYYY=            -35.4203 ZZZZ=            -14.6155 XXXY=            -21.2282
 XXXZ=             -6.1883 YYYX=             -3.1171 YYYZ=              0.1941 ZZZX=             -1.5569
 ZZZY=              0.0862 XXYY=            -41.0389 XXZZ=            -41.1690 YYZZ=             -8.2797
 XXYZ=              2.2654 YYXZ=             -0.9504 ZZXY=             -0.7787
 N-N= 6.546705897576D+01 E-N=-6.654265952580D+02  KE= 2.247824300977D+02


 THE MORE PROGRESS PHYSICAL SCIENCES MAKE, THE MORE THEY TEND TO ENTER
 THE DOMAIN OF MATHEMATICS, WHICH IS A KIND OF CENTRE TO WHICH THEY ALL
 CONVERGE.  WE MAY EVEN JUDGE THE DEGREE OF PERFECTION TO WHICH A 
 SCIENCE HAS ARRIVED BY THE FACILITY WITH WHICH IT MAY BE SUBMITTED
 TO CALCULATION.

                               -- ADOLPHE QUETELET, 1796-1874
 Error termination request processed by link 9999.
 Error termination via Lnk1e in C:\G09W\l9999.exe at Mon Feb 08 05:35:01 2021.
 Job cpu time:  0 days  0 hours  1 minutes 38.0 seconds.
 File lengths (MBytes):  RWF=      5 Int=      0 D2E=      0 Chk=      1 Scr=      1
