 Entering Link 1 = C:\G09W\l1.exe PID=     12100.
  
 Copyright (c) 1988,1990,1992,1993,1995,1998,2003,2009, Gaussian, Inc.
                  All Rights Reserved.
  
 This is part of the Gaussian(R) 09 program.  It is based on
 the Gaussian(R) 03 system (copyright 2003, Gaussian, Inc.),
 the Gaussian(R) 98 system (copyright 1998, Gaussian, Inc.),
 the Gaussian(R) 94 system (copyright 1995, Gaussian, Inc.),
 the Gaussian 92(TM) system (copyright 1992, Gaussian, Inc.),
 the Gaussian 90(TM) system (copyright 1990, Gaussian, Inc.),
 the Gaussian 88(TM) system (copyright 1988, Gaussian, Inc.),
 the Gaussian 86(TM) system (copyright 1986, Carnegie Mellon
 University), and the Gaussian 82(TM) system (copyright 1983,
 Carnegie Mellon University). Gaussian is a federally registered
 trademark of Gaussian, Inc.
  
 This software contains proprietary and confidential information,
 including trade secrets, belonging to Gaussian, Inc.
  
 This software is provided under written license and may be
 used, copied, transmitted, or stored only in accord with that
 written license.
  
 The following legend is applicable only to US Government
 contracts under FAR:
  
                    RESTRICTED RIGHTS LEGEND
  
 Use, reproduction and disclosure by the US Government is
 subject to restrictions as set forth in subparagraphs (a)
 and (c) of the Commercial Computer Software - Restricted
 Rights clause in FAR 52.227-19.
  
 Gaussian, Inc.
 340 Quinnipiac St., Bldg. 40, Wallingford CT 06492
  
  
 ---------------------------------------------------------------
 Warning -- This program may not be used in any manner that
 competes with the business of Gaussian, Inc. or will provide
 assistance to any competitor of Gaussian, Inc.  The licensee
 of this program is prohibited from giving any competitor of
 Gaussian, Inc. access to this program.  By using this program,
 the user acknowledges that Gaussian, Inc. is engaged in the
 business of creating and licensing software in the field of
 computational chemistry and represents and warrants to the
 licensee that it is not a competitor of Gaussian, Inc. and that
 it will not use this program in any manner prohibited above.
 ---------------------------------------------------------------
  

 Cite this work as:
 Gaussian 09, Revision A.02,
 M. J. Frisch, G. W. Trucks, H. B. Schlegel, G. E. Scuseria, 
 M. A. Robb, J. R. Cheeseman, G. Scalmani, V. Barone, B. Mennucci, 
 G. A. Petersson, H. Nakatsuji, M. Caricato, X. Li, H. P. Hratchian, 
 A. F. Izmaylov, J. Bloino, G. Zheng, J. L. Sonnenberg, M. Hada, 
 M. Ehara, K. Toyota, R. Fukuda, J. Hasegawa, M. Ishida, T. Nakajima, 
 Y. Honda, O. Kitao, H. Nakai, T. Vreven, J. A. Montgomery, Jr., 
 J. E. Peralta, F. Ogliaro, M. Bearpark, J. J. Heyd, E. Brothers, 
 K. N. Kudin, V. N. Staroverov, R. Kobayashi, J. Normand, 
 K. Raghavachari, A. Rendell, J. C. Burant, S. S. Iyengar, J. Tomasi, 
 M. Cossi, N. Rega, J. M. Millam, M. Klene, J. E. Knox, J. B. Cross, 
 V. Bakken, C. Adamo, J. Jaramillo, R. Gomperts, R. E. Stratmann, 
 O. Yazyev, A. J. Austin, R. Cammi, C. Pomelli, J. W. Ochterski, 
 R. L. Martin, K. Morokuma, V. G. Zakrzewski, G. A. Voth, 
 P. Salvador, J. J. Dannenberg, S. Dapprich, A. D. Daniels, 
 O. Farkas, J. B. Foresman, J. V. Ortiz, J. Cioslowski, 
 and D. J. Fox, Gaussian, Inc., Wallingford CT, 2009.
 
 ******************************************
 Gaussian 09:  IA32W-G09RevA.02 11-Jun-2009
                08-Feb-2021 
 ******************************************
 %chk=D:\Documents\rayGit\FQ\quimicaComputacional\proyecto\decompositionHydrogenP
 eroxide\descompositionByRadicals\gasPhase\step4\ts\tsM062X.chk
 %mem=1500MB
 %nprocshared=4
 Will use up to    4 processors via shared memory.
 --------------------------------------------------------
 # opt=(calcfc,ts,noeigen) freq=noraman 6-31+g(d,p) m062x
 --------------------------------------------------------
 1/5=1,10=4,11=1,14=-1,18=20,26=3,38=1/1,3;
 2/9=110,12=2,17=6,18=5,40=1/2;
 3/5=1,6=6,7=111,11=2,16=1,25=1,30=1,71=2,74=-55/1,2,3;
 4//1;
 5/5=2,38=5/2;
 8/6=4,10=90,11=11/1;
 11/6=1,8=1,9=11,15=111,16=1/1,2,10;
 10/6=1,7=6,13=1/2;
 6/7=2,8=2,9=2,10=2,28=1/1;
 7/10=1,18=20,25=1/1,2,3,16;
 1/5=1,10=4,11=1,14=-1,18=20/3(2);
 2/9=110/2;
 99//99;
 2/9=110/2;
 3/5=1,6=6,7=111,11=2,16=1,25=1,30=1,71=1,74=-55/1,2,3;
 4/5=5,16=3/1;
 5/5=2,38=5/2;
 7//1,2,3,16;
 1/5=1,11=1,14=-1,18=20/3(-5);
 2/9=110/2;
 6/7=2,8=2,9=2,10=2,19=2,28=1/1;
 99/9=1/99;
 ---
 ts2
 ---
 Symbolic Z-matrix:
 Charge =  0 Multiplicity = 1
 O                    -0.71853  -0.0075   -0.18853 
 H                    -1.18586  -0.0075   -1.50823 
 O                     0.25266  -0.8929   -0.06501 
 O                    -1.58643  -0.0075   -2.6394 
 H                    -1.10351  -0.71948  -3.0654 
 

 GradGradGradGradGradGradGradGradGradGradGradGradGradGradGradGradGradGrad
 Berny optimization.
 Initialization pass.
                           ----------------------------
                           !    Initial Parameters    !
                           ! (Angstroms and Degrees)  !
 --------------------------                            --------------------------
 ! Name  Definition              Value          Derivative Info.                !
 --------------------------------------------------------------------------------
 ! R1    R(1,2)                  1.4            calculate D2E/DX2 analytically  !
 ! R2    R(1,3)                  1.32           calculate D2E/DX2 analytically  !
 ! R3    R(2,4)                  1.2            calculate D2E/DX2 analytically  !
 ! R4    R(4,5)                  0.96           calculate D2E/DX2 analytically  !
 ! A1    A(2,1,3)              109.5            calculate D2E/DX2 analytically  !
 ! A2    A(2,4,5)              104.5            calculate D2E/DX2 analytically  !
 ! A3    L(1,2,4,3,-1)         180.0            calculate D2E/DX2 analytically  !
 ! A4    L(1,2,4,3,-2)         180.0            calculate D2E/DX2 analytically  !
 ! D1    D(3,1,4,5)              4.6371         calculate D2E/DX2 analytically  !
 --------------------------------------------------------------------------------
 Trust Radius=3.00D-01 FncErr=1.00D-07 GrdErr=1.00D-06
 Number of steps in this run=  20 maximum allowed number of steps= 100.
 Search for a saddle point of order  1.
 GradGradGradGradGradGradGradGradGradGradGradGradGradGradGradGradGradGrad

                          Input orientation:                          
 ---------------------------------------------------------------------
 Center     Atomic      Atomic             Coordinates (Angstroms)
 Number     Number       Type             X           Y           Z
 ---------------------------------------------------------------------
      1          8           0       -0.718529   -0.007500   -0.188528
      2          1           0       -1.185859   -0.007500   -1.508226
      3          8           0        0.252662   -0.892898   -0.065009
      4          8           0       -1.586427   -0.007500   -2.639396
      5          1           0       -1.103509   -0.719478   -3.065397
 ---------------------------------------------------------------------
                    Distance matrix (angstroms):
                    1          2          3          4          5
     1  O    0.000000
     2  H    1.400000   0.000000
     3  O    1.320000   2.221745   0.000000
     4  O    2.600000   1.200000   3.285369   0.000000
     5  H    2.988561   1.714198   3.297212   0.960000   0.000000
 Stoichiometry    H2O3
 Framework group  C1[X(H2O3)]
 Deg. of freedom     9
 Full point group                 C1      NOp   1
 Largest Abelian subgroup         C1      NOp   1
 Largest concise Abelian subgroup C1      NOp   1
                         Standard orientation:                         
 ---------------------------------------------------------------------
 Center     Atomic      Atomic             Coordinates (Angstroms)
 Number     Number       Type             X           Y           Z
 ---------------------------------------------------------------------
      1          8           0       -0.697535   -0.610999    0.006686
      2          1           0        0.658526   -0.263100   -0.001363
      3          8           0       -1.433600    0.484660   -0.005107
      4          8           0        1.820864    0.035099   -0.008261
      5          1           0        1.823636    0.993020    0.054824
 ---------------------------------------------------------------------
 Rotational constants (GHZ):     46.9053337      5.1891523      4.6726730
 Standard basis: 6-31+G(d,p) (6D, 7F)
 There are    67 symmetry adapted basis functions of A   symmetry.
 Integral buffers will be    262144 words long.
 Raffenetti 2 integral format.
 Two-electron integral symmetry is turned on.
    67 basis functions,   110 primitive gaussians,    67 cartesian basis functions
    13 alpha electrons       13 beta electrons
       nuclear repulsion energy        64.8676684136 Hartrees.
 NAtoms=    5 NActive=    5 NUniq=    5 SFac= 7.50D-01 NAtFMM=   80 NAOKFM=F Big=F
 One-electron integrals computed using PRISM.
 NBasis=    67 RedAO= T  NBF=    67
 NBsUse=    67 1.00D-06 NBFU=    67
 Harris functional with IExCor= 1009 diagonalized for initial guess.
 ExpMin= 8.45D-02 ExpMax= 5.48D+03 ExpMxC= 8.25D+02 IAcc=2 IRadAn=         0 AccDes= 0.00D+00
 HarFok:  IExCor= 1009 AccDes= 0.00D+00 IRadAn=         0 IDoV= 1
 ScaDFX=  1.000000  1.000000  1.000000  1.000000
 FoFCou: FMM=F IPFlag=           0 FMFlag=      100000 FMFlg1=           0
         NFxFlg=           0 DoJE=T BraDBF=F KetDBF=T FulRan=T
         Omega=  0.000000  0.000000  1.000000  0.000000  0.000000 ICntrl=     500 IOpCl=  0
         NMat0=    1 NMatS0=    1 NMatT0=    0 NMatD0=    1 NMtDS0=    0 NMtDT0=    0
         I1Cent=           4 NGrid=           0.
 Petite list used in FoFCou.
 Initial guess orbital symmetries:
       Occupied  (A) (A) (A) (A) (A) (A) (A) (A) (A) (A) (A) (A)
                 (A)
       Virtual   (A) (A) (A) (A) (A) (A) (A) (A) (A) (A) (A) (A)
                 (A) (A) (A) (A) (A) (A) (A) (A) (A) (A) (A) (A)
                 (A) (A) (A) (A) (A) (A) (A) (A) (A) (A) (A) (A)
                 (A) (A) (A) (A) (A) (A) (A) (A) (A) (A) (A) (A)
                 (A) (A) (A) (A) (A) (A)
 The electronic state of the initial guess is 1-A.
 Requested convergence on RMS density matrix=1.00D-08 within 128 cycles.
 Requested convergence on MAX density matrix=1.00D-06.
 Requested convergence on             energy=1.00D-06.
 No special actions if energy rises.
 Keep R1 ints in memory in canonical form, NReq=3551229.
 Integral accuracy reduced to 1.0D-05 until final iterations.
 Initial convergence to 1.0D-05 achieved.  Increase integral accuracy.
 SCF Done:  E(RM062X) =  -226.540376589     A.U. after   41 cycles
             Convg  =    0.4667D-08             -V/T =  2.0103
 Range of M.O.s used for correlation:     1    67
 NBasis=    67 NAE=    13 NBE=    13 NFC=     0 NFV=     0
 NROrb=     67 NOA=    13 NOB=    13 NVA=    54 NVB=    54

 **** Warning!!: The largest alpha MO coefficient is  0.13256669D+02

 Symmetrizing basis deriv contribution to polar:
 IMax=3 JMax=2 DiffMx= 0.00D+00
 G2DrvN: will do     6 centers at a time, making    1 passes doing MaxLOS=2.
 Calling FoFCou, ICntrl=  3107 FMM=F I1Cent=   0 AccDes= 0.00D+00.
 FoFDir/FoFCou used for L=0 through L=2.
 End of G2Drv Frequency-dependent properties file   721 does not exist.
 End of G2Drv Frequency-dependent properties file   722 does not exist.
          IDoAtm=11111
          Differentiating once with respect to nuclear coordinates.
          Keep R1 ints in memory in canonical form, NReq=3416925.
          There are    18 degrees of freedom in the 1st order CPHF.  IDoFFX=5.
     12 vectors produced by pass  0 Test12= 3.90D-11 5.56D-07 XBig12= 8.20D-02 1.69D-01.
 AX will form    12 AO Fock derivatives at one time.
     12 vectors produced by pass  1 Test12= 3.90D-11 5.56D-07 XBig12= 2.17D-02 9.79D-02.
     12 vectors produced by pass  2 Test12= 3.90D-11 5.56D-07 XBig12= 4.26D-03 1.71D-02.
     12 vectors produced by pass  3 Test12= 3.90D-11 5.56D-07 XBig12= 7.58D-05 2.16D-03.
     12 vectors produced by pass  4 Test12= 3.90D-11 5.56D-07 XBig12= 4.97D-07 1.49D-04.
      6 vectors produced by pass  5 Test12= 3.90D-11 5.56D-07 XBig12= 3.42D-09 1.39D-05.
      1 vectors produced by pass  6 Test12= 3.90D-11 5.56D-07 XBig12= 1.46D-11 1.19D-06.
 Inverted reduced A of dimension    67 with in-core refinement.
 End of Minotr Frequency-dependent properties file   721 does not exist.
 End of Minotr Frequency-dependent properties file   722 does not exist.

 **********************************************************************

            Population analysis using the SCF density.

 **********************************************************************

 Orbital symmetries:
       Occupied  (A) (A) (A) (A) (A) (A) (A) (A) (A) (A) (A) (A)
                 (A)
       Virtual   (A) (A) (A) (A) (A) (A) (A) (A) (A) (A) (A) (A)
                 (A) (A) (A) (A) (A) (A) (A) (A) (A) (A) (A) (A)
                 (A) (A) (A) (A) (A) (A) (A) (A) (A) (A) (A) (A)
                 (A) (A) (A) (A) (A) (A) (A) (A) (A) (A) (A) (A)
                 (A) (A) (A) (A) (A) (A)
 The electronic state is 1-A.
 Alpha  occ. eigenvalues --  -19.89021 -19.88724 -19.62104  -1.40677  -1.06977
 Alpha  occ. eigenvalues --   -1.01871  -0.68730  -0.65483  -0.61560  -0.52989
 Alpha  occ. eigenvalues --   -0.45758  -0.39412  -0.35411
 Alpha virt. eigenvalues --   -0.21705   0.04772   0.06569   0.11433   0.12289
 Alpha virt. eigenvalues --    0.16514   0.17070   0.17989   0.19631   0.20269
 Alpha virt. eigenvalues --    0.23025   0.24353   0.28546   0.28876   0.32186
 Alpha virt. eigenvalues --    0.35169   0.98853   1.02382   1.06454   1.07282
 Alpha virt. eigenvalues --    1.09230   1.13601   1.13983   1.20239   1.23011
 Alpha virt. eigenvalues --    1.23845   1.26439   1.32057   1.44298   1.44923
 Alpha virt. eigenvalues --    1.48741   1.51766   1.57196   1.62387   1.63439
 Alpha virt. eigenvalues --    1.73021   1.75343   1.84264   1.87553   2.17279
 Alpha virt. eigenvalues --    2.21894   2.43155   2.45968   2.51221   2.53713
 Alpha virt. eigenvalues --    2.62639   2.71360   2.92949   3.00606   3.36888
 Alpha virt. eigenvalues --    3.58941   3.76337   4.10697   4.11666
          Condensed to atoms (all electrons):
              1          2          3          4          5
     1  O    7.709286  -0.030699   0.346198  -0.032661   0.000799
     2  H   -0.030699   0.375569   0.000803   0.237345  -0.018196
     3  O    0.346198   0.000803   7.588620   0.019177   0.000463
     4  O   -0.032661   0.237345   0.019177   8.344998   0.267906
     5  H    0.000799  -0.018196   0.000463   0.267906   0.399258
 Mulliken atomic charges:
              1
     1  O    0.007077
     2  H    0.435179
     3  O    0.044740
     4  O   -0.836764
     5  H    0.349769
 Sum of Mulliken atomic charges =   0.00000
 Mulliken charges with hydrogens summed into heavy atoms:
              1
     1  O    0.007077
     3  O    0.044740
     4  O   -0.051816
 Sum of Mulliken charges with hydrogens summed into heavy atoms =   0.00000
 APT atomic charges:
              1
     1  O   -0.077245
     2  H    0.342946
     3  O    0.140465
     4  O   -0.924067
     5  H    0.517901
 Sum of APT charges=   0.00000
 APT Atomic charges with hydrogens summed into heavy atoms:
              1
     1  O   -0.077245
     2  H    0.000000
     3  O    0.140465
     4  O   -0.063220
     5  H    0.000000
 Sum of APT charges=   0.00000
 Electronic spatial extent (au):  <R**2>=            244.2714
 Charge=              0.0000 electrons
 Dipole moment (field-independent basis, Debye):
    X=             -3.3074    Y=              1.2212    Z=              0.1127  Tot=              3.5274
 Quadrupole moment (field-independent basis, Debye-Ang):
   XX=            -23.8384   YY=            -15.5729   ZZ=            -17.5074
   XY=              2.4525   XZ=              0.3067   YZ=              0.2271
 Traceless Quadrupole moment (field-independent basis, Debye-Ang):
   XX=             -4.8655   YY=              3.4000   ZZ=              1.4655
   XY=              2.4525   XZ=              0.3067   YZ=              0.2271
 Octapole moment (field-independent basis, Debye-Ang**2):
  XXX=            -18.4545  YYY=              2.2595  ZZZ=              0.0703  XYY=              1.8121
  XXY=              7.5083  XXZ=              0.2525  XZZ=             -4.4764  YZZ=              0.1347
  YYZ=              0.1125  XYZ=              0.2237
 Hexadecapole moment (field-independent basis, Debye-Ang**3):
 XXXX=           -257.7787 YYYY=            -32.9766 ZZZZ=            -14.8971 XXXY=             11.8269
 XXXZ=              1.2293 YYYX=              3.3246 YYYZ=              0.3463 ZZZX=              0.2021
 ZZZY=              0.1316 XXYY=            -36.8696 XXZZ=            -42.2716 YYZZ=             -8.0019
 XXYZ=              0.5985 YYXZ=              0.2573 ZZXY=              0.0554
 N-N= 6.486766841361D+01 E-N=-6.634795549295D+02  KE= 2.242408337078D+02
  Exact polarizability:   0.000   0.000   0.000   0.000   0.000   0.000
 Approx polarizability:  42.845  -7.530  28.103   0.027  -0.029  13.660
 Calling FoFJK, ICntrl=    100147 FMM=F ISym2X=0 I1Cent= 0 IOpClX= 0 NMat=1 NMatS=1 NMatT=0.
 ***** Axes restored to original set *****
 -------------------------------------------------------------------
 Center     Atomic                   Forces (Hartrees/Bohr)
 Number     Number              X              Y              Z
 -------------------------------------------------------------------
      1        8           0.111056695   -0.094685748    0.034774702
      2        1          -0.034302516   -0.001651587   -0.104645454
      3        8          -0.106195540    0.096347920   -0.014990259
      4        8           0.027622546    0.003139294    0.087941190
      5        1           0.001818815   -0.003149879   -0.003080178
 -------------------------------------------------------------------
 Cartesian Forces:  Max     0.111056695 RMS     0.065295571

 GradGradGradGradGradGradGradGradGradGradGradGradGradGradGradGradGradGrad
 Berny optimization.
 Internal  Forces:  Max     0.144161770 RMS     0.057068766
 Search for a saddle point.
 Step number   1 out of a maximum of   20
 All quantities printed in internal units (Hartrees-Bohrs-Radians)
 Swaping is turned off.
 Second derivative matrix not updated -- analytic derivatives used.
 The second derivative matrix:
                          R1        R2        R3        R4        A1
           R1           0.04279
           R2           0.02008   0.34574
           R3           0.05733  -0.00100   0.09713
           R4           0.00119  -0.00195  -0.00388   0.56633
           A1          -0.00081   0.00510   0.00373  -0.00029   0.04859
           A2           0.01415   0.00202   0.01627   0.01816   0.00453
           A3           0.00520  -0.00604   0.00287  -0.00040  -0.01268
           A4          -0.00208   0.00193   0.00061   0.00015  -0.00019
           D1          -0.00040   0.00051  -0.00006  -0.00039   0.00083
                          A2        A3        A4        D1
           A2           0.11124
           A3          -0.00848   0.02083
           A4          -0.00036  -0.00103   0.00187
           D1          -0.00057   0.00010  -0.00221   0.00157
     Eigenvalues ---   -0.00099   0.00320   0.00573   0.01563   0.05280
     Eigenvalues ---    0.09932   0.14598   0.34734   0.56710
 Eigenvectors required to have negative eigenvalues:
                          A4        D1        R1        R3        R2
   1                    0.70967   0.64775   0.23690  -0.14186  -0.01929
                          A3        A1        A2        R4
   1                   -0.01079   0.00606  -0.00428  -0.00114
 RFO step:  Lambda0=1.941173687D-02 Lambda=-1.04122649D-01.
 Linear search not attempted -- option 19 set.
 Maximum step size (   0.300) exceeded in Quadratic search.
    -- Step size scaled by   0.244
 Iteration  1 RMS(Cart)=  0.07135198 RMS(Int)=  0.00912294
 Iteration  2 RMS(Cart)=  0.01314180 RMS(Int)=  0.00014090
 Iteration  3 RMS(Cart)=  0.00015481 RMS(Int)=  0.00000001
 Iteration  4 RMS(Cart)=  0.00000001 RMS(Int)=  0.00000000
 Variable       Old X    -DE/DX   Delta X   Delta X   Delta X     New X
                                 (Linear)    (Quad)   (Total)
    R1        2.64562   0.02027   0.00000   0.03057   0.03057   2.67618
    R2        2.49444  -0.14416   0.00000  -0.07741  -0.07741   2.41703
    R3        2.26767  -0.08982   0.00000  -0.09744  -0.09744   2.17023
    R4        1.81414   0.00462   0.00000   0.00060   0.00060   1.81473
    A1        1.91114  -0.00385   0.00000  -0.00132  -0.00132   1.90982
    A2        1.82387   0.00214   0.00000   0.00843   0.00843   1.83229
    A3        3.14159   0.00303   0.00000   0.00462   0.00462   3.14621
    A4        3.14159  -0.00044   0.00000  -0.19905  -0.19905   2.94254
    D1        0.08093  -0.00006   0.00000  -0.18402  -0.18402  -0.10308
         Item               Value     Threshold  Converged?
 Maximum Force            0.144162     0.000450     NO 
 RMS     Force            0.057069     0.000300     NO 
 Maximum Displacement     0.095714     0.001800     NO 
 RMS     Displacement     0.070959     0.001200     NO 
 Predicted change in Energy=-1.933563D-02
 GradGradGradGradGradGradGradGradGradGradGradGradGradGradGradGradGradGrad

                          Input orientation:                          
 ---------------------------------------------------------------------
 Center     Atomic      Atomic             Coordinates (Angstroms)
 Number     Number       Type             X           Y           Z
 ---------------------------------------------------------------------
      1          8           0       -0.696679   -0.003618   -0.201466
      2          1           0       -1.155647    0.007362   -1.541159
      3          8           0        0.209756   -0.896333   -0.069675
      4          8           0       -1.622003   -0.055719   -2.588746
      5          1           0       -1.077088   -0.686568   -3.065510
 ---------------------------------------------------------------------
                    Distance matrix (angstroms):
                    1          2          3          4          5
     1  O    0.000000
     2  H    1.416175   0.000000
     3  O    1.279036   2.201421   0.000000
     4  O    2.560869   1.148436   3.226096   0.000000
     5  H    2.968818   1.676709   3.267261   0.960316   0.000000
 Stoichiometry    H2O3
 Framework group  C1[X(H2O3)]
 Deg. of freedom     9
 Full point group                 C1      NOp   1
 Largest Abelian subgroup         C1      NOp   1
 Largest concise Abelian subgroup C1      NOp   1
                         Standard orientation:                         
 ---------------------------------------------------------------------
 Center     Atomic      Atomic             Coordinates (Angstroms)
 Number     Number       Type             X           Y           Z
 ---------------------------------------------------------------------
      1          8           0        0.695500   -0.591695    0.004934
      2          1           0       -0.675542   -0.241713    0.062473
      3          8           0        1.405877    0.471868   -0.006478
      4          8           0       -1.789404    0.027112   -0.014666
      5          1           0       -1.820245    0.983435    0.067205
 ---------------------------------------------------------------------
 Rotational constants (GHZ):     49.6647295      5.3599849      4.8389823
 Standard basis: 6-31+G(d,p) (6D, 7F)
 There are    67 symmetry adapted basis functions of A   symmetry.
 Integral buffers will be    262144 words long.
 Raffenetti 2 integral format.
 Two-electron integral symmetry is turned on.
    67 basis functions,   110 primitive gaussians,    67 cartesian basis functions
    13 alpha electrons       13 beta electrons
       nuclear repulsion energy        66.2459289546 Hartrees.
 NAtoms=    5 NActive=    5 NUniq=    5 SFac= 7.50D-01 NAtFMM=   80 NAOKFM=F Big=F
 One-electron integrals computed using PRISM.
 NBasis=    67 RedAO= T  NBF=    67
 NBsUse=    67 1.00D-06 NBFU=    67
 Initial guess read from the read-write file.
 B after Tr=     0.000000    0.000000    0.000000
         Rot=    1.000000    0.000000    0.000000    0.000000 Ang=   0.00 deg.
 Initial guess orbital symmetries:
       Occupied  (A) (A) (A) (A) (A) (A) (A) (A) (A) (A) (A) (A)
                 (A)
       Virtual   (A) (A) (A) (A) (A) (A) (A) (A) (A) (A) (A) (A)
                 (A) (A) (A) (A) (A) (A) (A) (A) (A) (A) (A) (A)
                 (A) (A) (A) (A) (A) (A) (A) (A) (A) (A) (A) (A)
                 (A) (A) (A) (A) (A) (A) (A) (A) (A) (A) (A) (A)
                 (A) (A) (A) (A) (A) (A)
 Harris functional with IExCor= 1009 diagonalized for initial guess.
 ExpMin= 8.45D-02 ExpMax= 5.48D+03 ExpMxC= 8.25D+02 IAcc=2 IRadAn=         0 AccDes= 0.00D+00
 HarFok:  IExCor= 1009 AccDes= 0.00D+00 IRadAn=         0 IDoV= 1
 ScaDFX=  1.000000  1.000000  1.000000  1.000000
 FoFCou: FMM=F IPFlag=           0 FMFlag=      100000 FMFlg1=           0
         NFxFlg=           0 DoJE=T BraDBF=F KetDBF=T FulRan=T
         Omega=  0.000000  0.000000  1.000000  0.000000  0.000000 ICntrl=     500 IOpCl=  0
         NMat0=    1 NMatS0=    1 NMatT0=    0 NMatD0=    1 NMtDS0=    0 NMtDT0=    0
         I1Cent=           4 NGrid=           0.
 Petite list used in FoFCou.
 Requested convergence on RMS density matrix=1.00D-08 within 128 cycles.
 Requested convergence on MAX density matrix=1.00D-06.
 Requested convergence on             energy=1.00D-06.
 No special actions if energy rises.
 Keep R1 ints in memory in canonical form, NReq=3551229.
 Integral accuracy reduced to 1.0D-05 until final iterations.
 Initial convergence to 1.0D-05 achieved.  Increase integral accuracy.
 SCF Done:  E(RM062X) =  -226.559494999     A.U. after   36 cycles
             Convg  =    0.1388D-08             -V/T =  2.0097
 Calling FoFJK, ICntrl=      2127 FMM=F ISym2X=0 I1Cent= 0 IOpClX= 0 NMat=1 NMatS=1 NMatT=0.
 ***** Axes restored to original set *****
 -------------------------------------------------------------------
 Center     Atomic                   Forces (Hartrees/Bohr)
 Number     Number              X              Y              Z
 -------------------------------------------------------------------
      1        8           0.085769941   -0.077007959    0.036310110
      2        1          -0.038938309   -0.005011297   -0.096504971
      3        8          -0.079045981    0.077772954   -0.012484180
      4        8           0.030952567    0.006554965    0.075567983
      5        1           0.001261781   -0.002308663   -0.002888942
 -------------------------------------------------------------------
 Cartesian Forces:  Max     0.096504971 RMS     0.054552249

 GradGradGradGradGradGradGradGradGradGradGradGradGradGradGradGradGradGrad
 Berny optimization.
 Internal  Forces:  Max     0.111594972 RMS     0.046465033
 Search for a saddle point.
 Step number   2 out of a maximum of   20
 All quantities printed in internal units (Hartrees-Bohrs-Radians)
 Swaping is turned off.
 Update second derivatives using D2CorX and points    1    2
 The second derivative matrix:
                          R1        R2        R3        R4        A1
           R1           0.04329
           R2           0.01706   0.36086
           R3           0.05570   0.00887   0.10253
           R4           0.00112  -0.00166  -0.00364   0.56634
           A1          -0.00104   0.00613   0.00450  -0.00028   0.04865
           A2           0.01418   0.00165   0.01618   0.01815   0.00449
           A3           0.00539  -0.00695   0.00227  -0.00041  -0.01274
           A4          -0.00291   0.01151   0.00352   0.00048   0.00074
           D1          -0.00148   0.01071   0.00367  -0.00007   0.00178
                          A2        A3        A4        D1
           A2           0.11123
           A3          -0.00846   0.02089
           A4          -0.00013  -0.00161  -0.00276
           D1          -0.00040  -0.00052  -0.00515   0.00020
     Eigenvalues ---   -0.00911   0.00399   0.00933   0.01633   0.05314
     Eigenvalues ---    0.09993   0.14721   0.36330   0.56710
 Eigenvectors required to have negative eigenvalues:
                          A4        D1        R1        R3        R2
   1                    0.75929   0.57860   0.24568  -0.16128  -0.04767
                          A3        A1        A2        R4
   1                    0.00524  -0.00418  -0.00303  -0.00211
 RFO step:  Lambda0=1.975643802D-02 Lambda=-8.01229468D-02.
 Linear search not attempted -- option 19 set.
 Maximum step size (   0.300) exceeded in Quadratic search.
    -- Step size scaled by   0.269
 Iteration  1 RMS(Cart)=  0.06301841 RMS(Int)=  0.00889816
 Iteration  2 RMS(Cart)=  0.01296353 RMS(Int)=  0.00015710
 Iteration  3 RMS(Cart)=  0.00015143 RMS(Int)=  0.00000001
 Iteration  4 RMS(Cart)=  0.00000002 RMS(Int)=  0.00000000
 Variable       Old X    -DE/DX   Delta X   Delta X   Delta X     New X
                                 (Linear)    (Quad)   (Total)
    R1        2.67618   0.02470   0.00000   0.05743   0.05743   2.73361
    R2        2.41703  -0.11159   0.00000  -0.05644  -0.05644   2.36059
    R3        2.17023  -0.07961   0.00000  -0.10589  -0.10589   2.06434
    R4        1.81473   0.00369   0.00000   0.00069   0.00069   1.81542
    A1        1.90982  -0.00235   0.00000   0.00553   0.00553   1.91535
    A2        1.83229   0.00240   0.00000   0.00811   0.00811   1.84040
    A3        3.14621   0.00209   0.00000  -0.00304  -0.00304   3.14317
    A4        2.94254  -0.00060   0.00000  -0.21579  -0.21579   2.72675
    D1       -0.10308   0.00019   0.00000  -0.16010  -0.16010  -0.26318
         Item               Value     Threshold  Converged?
 Maximum Force            0.111595     0.000450     NO 
 RMS     Force            0.046465     0.000300     NO 
 Maximum Displacement     0.094367     0.001800     NO 
 RMS     Displacement     0.067464     0.001200     NO 
 Predicted change in Energy=-1.519154D-02
 GradGradGradGradGradGradGradGradGradGradGradGradGradGradGradGradGradGrad

                          Input orientation:                          
 ---------------------------------------------------------------------
 Center     Atomic      Atomic             Coordinates (Angstroms)
 Number     Number       Type             X           Y           Z
 ---------------------------------------------------------------------
      1          8           0       -0.679626   -0.002417   -0.208943
      2          1           0       -1.122940    0.010676   -1.585841
      3          8           0        0.179598   -0.895248   -0.050785
      4          8           0       -1.645401   -0.099924   -2.538809
      5          1           0       -1.073291   -0.647963   -3.082179
 ---------------------------------------------------------------------
                    Distance matrix (angstroms):
                    1          2          3          4          5
     1  O    0.000000
     2  H    1.446564   0.000000
     3  O    1.249171   2.207646   0.000000
     4  O    2.523986   1.092404   3.186444   0.000000
     5  H    2.971058   1.635634   3.289412   0.960680   0.000000
 Stoichiometry    H2O3
 Framework group  C1[X(H2O3)]
 Deg. of freedom     9
 Full point group                 C1      NOp   1
 Largest Abelian subgroup         C1      NOp   1
 Largest concise Abelian subgroup C1      NOp   1
                         Standard orientation:                         
 ---------------------------------------------------------------------
 Center     Atomic      Atomic             Coordinates (Angstroms)
 Number     Number       Type             X           Y           Z
 ---------------------------------------------------------------------
      1          8           0        0.689235   -0.573518    0.014995
      2          1           0       -0.706608   -0.208816    0.120647
      3          8           0        1.393580    0.457675   -0.016106
      4          8           0       -1.762922    0.022269   -0.034749
      5          1           0       -1.852534    0.957406    0.166234
 ---------------------------------------------------------------------
 Rotational constants (GHZ):     52.5920460      5.4751726      4.9651525
 Standard basis: 6-31+G(d,p) (6D, 7F)
 There are    67 symmetry adapted basis functions of A   symmetry.
 Integral buffers will be    262144 words long.
 Raffenetti 2 integral format.
 Two-electron integral symmetry is turned on.
    67 basis functions,   110 primitive gaussians,    67 cartesian basis functions
    13 alpha electrons       13 beta electrons
       nuclear repulsion energy        67.3201845686 Hartrees.
 NAtoms=    5 NActive=    5 NUniq=    5 SFac= 7.50D-01 NAtFMM=   80 NAOKFM=F Big=F
 One-electron integrals computed using PRISM.
 NBasis=    67 RedAO= T  NBF=    67
 NBsUse=    67 1.00D-06 NBFU=    67
 Initial guess read from the read-write file.
 B after Tr=     0.000000    0.000000    0.000000
         Rot=    1.000000    0.000000    0.000000    0.000000 Ang=   0.00 deg.
 Initial guess orbital symmetries:
       Occupied  (A) (A) (A) (A) (A) (A) (A) (A) (A) (A) (A) (A)
                 (A)
       Virtual   (A) (A) (A) (A) (A) (A) (A) (A) (A) (A) (A) (A)
                 (A) (A) (A) (A) (A) (A) (A) (A) (A) (A) (A) (A)
                 (A) (A) (A) (A) (A) (A) (A) (A) (A) (A) (A) (A)
                 (A) (A) (A) (A) (A) (A) (A) (A) (A) (A) (A) (A)
                 (A) (A) (A) (A) (A) (A)
 Harris functional with IExCor= 1009 diagonalized for initial guess.
 ExpMin= 8.45D-02 ExpMax= 5.48D+03 ExpMxC= 8.25D+02 IAcc=2 IRadAn=         0 AccDes= 0.00D+00
 HarFok:  IExCor= 1009 AccDes= 0.00D+00 IRadAn=         0 IDoV= 1
 ScaDFX=  1.000000  1.000000  1.000000  1.000000
 FoFCou: FMM=F IPFlag=           0 FMFlag=      100000 FMFlg1=           0
         NFxFlg=           0 DoJE=T BraDBF=F KetDBF=T FulRan=T
         Omega=  0.000000  0.000000  1.000000  0.000000  0.000000 ICntrl=     500 IOpCl=  0
         NMat0=    1 NMatS0=    1 NMatT0=    0 NMatD0=    1 NMtDS0=    0 NMtDT0=    0
         I1Cent=           4 NGrid=           0.
 Petite list used in FoFCou.
 Requested convergence on RMS density matrix=1.00D-08 within 128 cycles.
 Requested convergence on MAX density matrix=1.00D-06.
 Requested convergence on             energy=1.00D-06.
 No special actions if energy rises.
 Keep R1 ints in memory in canonical form, NReq=3551229.
 Integral accuracy reduced to 1.0D-05 until final iterations.
 Initial convergence to 1.0D-05 achieved.  Increase integral accuracy.
 SCF Done:  E(RM062X) =  -226.574085840     A.U. after   27 cycles
             Convg  =    0.9158D-08             -V/T =  2.0091
 Calling FoFJK, ICntrl=      2127 FMM=F ISym2X=0 I1Cent= 0 IOpClX= 0 NMat=1 NMatS=1 NMatT=0.
 ***** Axes restored to original set *****
 -------------------------------------------------------------------
 Center     Atomic                   Forces (Hartrees/Bohr)
 Number     Number              X              Y              Z
 -------------------------------------------------------------------
      1        8           0.062685587   -0.056314990    0.036672862
      2        1          -0.039061159   -0.006757478   -0.080297306
      3        8          -0.054624055    0.056778028   -0.010550565
      4        8           0.030587298    0.007718176    0.056863064
      5        1           0.000412329   -0.001423736   -0.002688056
 -------------------------------------------------------------------
 Cartesian Forces:  Max     0.080297306 RMS     0.042443441

 GradGradGradGradGradGradGradGradGradGradGradGradGradGradGradGradGradGrad
 Berny optimization.
 Internal  Forces:  Max     0.079549518 RMS     0.035006904
 Search for a saddle point.
 Step number   3 out of a maximum of   20
 All quantities printed in internal units (Hartrees-Bohrs-Radians)
 Swaping is turned off.
 Update second derivatives using D2CorX and points    1    2    3
 The second derivative matrix:
                          R1        R2        R3        R4        A1
           R1           0.04366
           R2           0.01291   0.37679
           R3           0.05161   0.02714   0.12285
           R4           0.00118  -0.00188  -0.00390   0.56634
           A1          -0.00128   0.00659   0.00513  -0.00028   0.04864
           A2           0.01382   0.00223   0.01705   0.01814   0.00448
           A3           0.00539  -0.00690   0.00231  -0.00042  -0.01273
           A4          -0.00333   0.02546   0.01645   0.00028   0.00166
           D1          -0.00132   0.02017   0.01201  -0.00021   0.00247
                          A2        A3        A4        D1
           A2           0.11119
           A3          -0.00845   0.02089
           A4           0.00135  -0.00166  -0.00515
           D1           0.00074  -0.00056  -0.00885  -0.00403
     Eigenvalues ---   -0.02098   0.00398   0.01387   0.02210   0.05346
     Eigenvalues ---    0.10218   0.15544   0.38403   0.56711
 Eigenvectors required to have negative eigenvalues:
                          A4        D1        R1        R3        R2
   1                    0.71933   0.62177   0.22488  -0.20034  -0.07091
                          A1        A2        R4        A3
   1                   -0.01293  -0.00644  -0.00193   0.00192
 RFO step:  Lambda0=1.621769183D-02 Lambda=-5.17465726D-02.
 Linear search not attempted -- option 19 set.
 Maximum step size (   0.300) exceeded in Quadratic search.
    -- Step size scaled by   0.315
 Iteration  1 RMS(Cart)=  0.07520826 RMS(Int)=  0.00892701
 Iteration  2 RMS(Cart)=  0.01165749 RMS(Int)=  0.00010063
 Iteration  3 RMS(Cart)=  0.00013855 RMS(Int)=  0.00000001
 Iteration  4 RMS(Cart)=  0.00000001 RMS(Int)=  0.00000000
 Variable       Old X    -DE/DX   Delta X   Delta X   Delta X     New X
                                 (Linear)    (Quad)   (Total)
    R1        2.73361   0.02737   0.00000   0.10117   0.10117   2.83478
    R2        2.36059  -0.07955   0.00000  -0.03364  -0.03364   2.32695
    R3        2.06434  -0.06272   0.00000  -0.09217  -0.09217   1.97217
    R4        1.81542   0.00260   0.00000   0.00024   0.00024   1.81566
    A1        1.91535  -0.00095   0.00000   0.01370   0.01370   1.92905
    A2        1.84040   0.00299   0.00000   0.00964   0.00964   1.85004
    A3        3.14317   0.00139   0.00000  -0.00441  -0.00441   3.13876
    A4        2.72675   0.00021   0.00000  -0.19353  -0.19353   2.53322
    D1       -0.26318   0.00010   0.00000  -0.17995  -0.17995  -0.44314
         Item               Value     Threshold  Converged?
 Maximum Force            0.079550     0.000450     NO 
 RMS     Force            0.035007     0.000300     NO 
 Maximum Displacement     0.104426     0.001800     NO 
 RMS     Displacement     0.081169     0.001200     NO 
 Predicted change in Energy=-1.028200D-02
 GradGradGradGradGradGradGradGradGradGradGradGradGradGradGradGradGradGrad

                          Input orientation:                          
 ---------------------------------------------------------------------
 Center     Atomic      Atomic             Coordinates (Angstroms)
 Number     Number       Type             X           Y           Z
 ---------------------------------------------------------------------
      1          8           0       -0.653667    0.004946   -0.204020
      2          1           0       -1.094426   -0.006724   -1.637861
      3          8           0        0.161360   -0.894235    0.004475
      4          8           0       -1.663554   -0.143156   -2.501944
      5          1           0       -1.091373   -0.595707   -3.127207
 ---------------------------------------------------------------------
                    Distance matrix (angstroms):
                    1          2          3          4          5
     1  O    0.000000
     2  H    1.500102   0.000000
     3  O    1.231367   2.249876   0.000000
     4  O    2.514410   1.043627   3.190073   0.000000
     5  H    3.016188   1.601580   3.386132   0.960805   0.000000
 Stoichiometry    H2O3
 Framework group  C1[X(H2O3)]
 Deg. of freedom     9
 Full point group                 C1      NOp   1
 Largest Abelian subgroup         C1      NOp   1
 Largest concise Abelian subgroup C1      NOp   1
                         Standard orientation:                         
 ---------------------------------------------------------------------
 Center     Atomic      Atomic             Coordinates (Angstroms)
 Number     Number       Type             X           Y           Z
 ---------------------------------------------------------------------
      1          8           0        0.688814   -0.556844    0.026401
      2          1           0       -0.753153   -0.165785    0.160974
      3          8           0        1.404570    0.443818   -0.024921
      4          8           0       -1.757119    0.020274   -0.054880
      5          1           0       -1.936964    0.907795    0.266226
 ---------------------------------------------------------------------
 Rotational constants (GHZ):     55.5971466      5.4383740      4.9686607
 Standard basis: 6-31+G(d,p) (6D, 7F)
 There are    67 symmetry adapted basis functions of A   symmetry.
 Integral buffers will be    262144 words long.
 Raffenetti 2 integral format.
 Two-electron integral symmetry is turned on.
    67 basis functions,   110 primitive gaussians,    67 cartesian basis functions
    13 alpha electrons       13 beta electrons
       nuclear repulsion energy        67.7400951251 Hartrees.
 NAtoms=    5 NActive=    5 NUniq=    5 SFac= 7.50D-01 NAtFMM=   80 NAOKFM=F Big=F
 One-electron integrals computed using PRISM.
 NBasis=    67 RedAO= T  NBF=    67
 NBsUse=    67 1.00D-06 NBFU=    67
 Initial guess read from the read-write file.
 B after Tr=     0.000000    0.000000    0.000000
         Rot=    1.000000    0.000000    0.000000    0.000000 Ang=   0.00 deg.
 Initial guess orbital symmetries:
       Occupied  (A) (A) (A) (A) (A) (A) (A) (A) (A) (A) (A) (A)
                 (A)
       Virtual   (A) (A) (A) (A) (A) (A) (A) (A) (A) (A) (A) (A)
                 (A) (A) (A) (A) (A) (A) (A) (A) (A) (A) (A) (A)
                 (A) (A) (A) (A) (A) (A) (A) (A) (A) (A) (A) (A)
                 (A) (A) (A) (A) (A) (A) (A) (A) (A) (A) (A) (A)
                 (A) (A) (A) (A) (A) (A)
 Harris functional with IExCor= 1009 diagonalized for initial guess.
 ExpMin= 8.45D-02 ExpMax= 5.48D+03 ExpMxC= 8.25D+02 IAcc=2 IRadAn=         0 AccDes= 0.00D+00
 HarFok:  IExCor= 1009 AccDes= 0.00D+00 IRadAn=         0 IDoV= 1
 ScaDFX=  1.000000  1.000000  1.000000  1.000000
 FoFCou: FMM=F IPFlag=           0 FMFlag=      100000 FMFlg1=           0
         NFxFlg=           0 DoJE=T BraDBF=F KetDBF=T FulRan=T
         Omega=  0.000000  0.000000  1.000000  0.000000  0.000000 ICntrl=     500 IOpCl=  0
         NMat0=    1 NMatS0=    1 NMatT0=    0 NMatD0=    1 NMtDS0=    0 NMtDT0=    0
         I1Cent=           4 NGrid=           0.
 Petite list used in FoFCou.
 Requested convergence on RMS density matrix=1.00D-08 within 128 cycles.
 Requested convergence on MAX density matrix=1.00D-06.
 Requested convergence on             energy=1.00D-06.
 No special actions if energy rises.
 Keep R1 ints in memory in canonical form, NReq=3551229.
 Integral accuracy reduced to 1.0D-05 until final iterations.
 Initial convergence to 1.0D-05 achieved.  Increase integral accuracy.
 SCF Done:  E(RM062X) =  -226.583944964     A.U. after   28 cycles
             Convg  =    0.4580D-08             -V/T =  2.0086
 Calling FoFJK, ICntrl=      2127 FMM=F ISym2X=0 I1Cent= 0 IOpClX= 0 NMat=1 NMatS=1 NMatT=0.
 ***** Axes restored to original set *****
 -------------------------------------------------------------------
 Center     Atomic                   Forces (Hartrees/Bohr)
 Number     Number              X              Y              Z
 -------------------------------------------------------------------
      1        8           0.045428977   -0.040299416    0.034881903
      2        1          -0.033337586   -0.006281253   -0.059485366
      3        8          -0.037254560    0.041043479   -0.009732908
      4        8           0.025377286    0.006394655    0.036554236
      5        1          -0.000214117   -0.000857464   -0.002217865
 -------------------------------------------------------------------
 Cartesian Forces:  Max     0.059485366 RMS     0.031398460

 GradGradGradGradGradGradGradGradGradGradGradGradGradGradGradGradGradGrad
 Berny optimization.
 Internal  Forces:  Max     0.056431991 RMS     0.025260564
 Search for a saddle point.
 Step number   4 out of a maximum of   20
 All quantities printed in internal units (Hartrees-Bohrs-Radians)
 Swaping is turned off.
 Update second derivatives using D2CorX and points    2    3    4
 The second derivative matrix:
                          R1        R2        R3        R4        A1
           R1           0.04387
           R2           0.01227   0.37735
           R3           0.04479   0.03144   0.14650
           R4           0.00121  -0.00190  -0.00400   0.56634
           A1          -0.00139   0.00658   0.00461  -0.00028   0.04861
           A2           0.01330   0.00246   0.01770   0.01814   0.00441
           A3           0.00517  -0.00675   0.00315  -0.00042  -0.01275
           A4          -0.00316   0.02647   0.02983   0.00021   0.00198
           D1          -0.00111   0.02104   0.02365  -0.00026   0.00276
                          A2        A3        A4        D1
           A2           0.11115
           A3          -0.00843   0.02092
           A4           0.00248  -0.00122  -0.00690
           D1           0.00173  -0.00018  -0.01049  -0.00557
     Eigenvalues ---   -0.02954   0.00404   0.01451   0.03067   0.05374
     Eigenvalues ---    0.10499   0.17004   0.38669   0.56712
 Eigenvectors required to have negative eigenvalues:
                          A4        D1        R3        R1        R2
   1                    0.71444   0.62127  -0.24269   0.20020  -0.06559
                          A1        A2        R4        A3
   1                   -0.01626  -0.00668  -0.00203   0.00019
 RFO step:  Lambda0=1.013101021D-02 Lambda=-3.10775659D-02.
 Linear search not attempted -- option 19 set.
 Maximum step size (   0.300) exceeded in Quadratic search.
    -- Step size scaled by   0.383
 Iteration  1 RMS(Cart)=  0.09255572 RMS(Int)=  0.00783203
 Iteration  2 RMS(Cart)=  0.00883542 RMS(Int)=  0.00005168
 Iteration  3 RMS(Cart)=  0.00008787 RMS(Int)=  0.00000000
 Iteration  4 RMS(Cart)=  0.00000000 RMS(Int)=  0.00000000
 Variable       Old X    -DE/DX   Delta X   Delta X   Delta X     New X
                                 (Linear)    (Quad)   (Total)
    R1        2.83478   0.02657   0.00000   0.14474   0.14474   2.97952
    R2        2.32695  -0.05643   0.00000  -0.03105  -0.03105   2.29589
    R3        1.97217  -0.04288   0.00000  -0.05990  -0.05990   1.91227
    R4        1.81566   0.00173   0.00000   0.00011   0.00011   1.81577
    A1        1.92905  -0.00005   0.00000   0.01923   0.01923   1.94828
    A2        1.85004   0.00297   0.00000   0.00713   0.00713   1.85717
    A3        3.13876   0.00101   0.00000  -0.00630  -0.00630   3.13246
    A4        2.53322   0.00089   0.00000  -0.17613  -0.17613   2.35709
    D1       -0.44314   0.00001   0.00000  -0.18170  -0.18170  -0.62484
         Item               Value     Threshold  Converged?
 Maximum Force            0.056432     0.000450     NO 
 RMS     Force            0.025261     0.000300     NO 
 Maximum Displacement     0.153869     0.001800     NO 
 RMS     Displacement     0.097515     0.001200     NO 
 Predicted change in Energy=-7.112551D-03
 GradGradGradGradGradGradGradGradGradGradGradGradGradGradGradGradGradGrad

                          Input orientation:                          
 ---------------------------------------------------------------------
 Center     Atomic      Atomic             Coordinates (Angstroms)
 Number     Number       Type             X           Y           Z
 ---------------------------------------------------------------------
      1          8           0       -0.618556    0.011294   -0.181982
      2          1           0       -1.069108   -0.039653   -1.692072
      3          8           0        0.152438   -0.888635    0.085899
      4          8           0       -1.678281   -0.181436   -2.487567
      5          1           0       -1.128153   -0.536446   -3.190835
 ---------------------------------------------------------------------
                    Distance matrix (angstroms):
                    1          2          3          4          5
     1  O    0.000000
     2  H    1.576694   0.000000
     3  O    1.214934   2.318216   0.000000
     4  O    2.544776   1.011932   3.236417   0.000000
     5  H    3.100469   1.580058   3.535667   0.960864   0.000000
 Stoichiometry    H2O3
 Framework group  C1[X(H2O3)]
 Deg. of freedom     9
 Full point group                 C1      NOp   1
 Largest Abelian subgroup         C1      NOp   1
 Largest concise Abelian subgroup C1      NOp   1
                         Standard orientation:                         
 ---------------------------------------------------------------------
 Center     Atomic      Atomic             Coordinates (Angstroms)
 Number     Number       Type             X           Y           Z
 ---------------------------------------------------------------------
      1          8           0       -0.703064    0.539024    0.035850
      2          1           0        0.809034    0.118719    0.187070
      3          8           0       -1.432706   -0.430117   -0.030884
      4          8           0        1.777291   -0.019534   -0.072491
      5          1           0        2.058798   -0.833698    0.353126
 ---------------------------------------------------------------------
 Rotational constants (GHZ):     59.0888893      5.2464780      4.8422632
 Standard basis: 6-31+G(d,p) (6D, 7F)
 There are    67 symmetry adapted basis functions of A   symmetry.
 Integral buffers will be    262144 words long.
 Raffenetti 2 integral format.
 Two-electron integral symmetry is turned on.
    67 basis functions,   110 primitive gaussians,    67 cartesian basis functions
    13 alpha electrons       13 beta electrons
       nuclear repulsion energy        67.6470558737 Hartrees.
 NAtoms=    5 NActive=    5 NUniq=    5 SFac= 7.50D-01 NAtFMM=   80 NAOKFM=F Big=F
 One-electron integrals computed using PRISM.
 NBasis=    67 RedAO= T  NBF=    67
 NBsUse=    67 1.00D-06 NBFU=    67
 Initial guess read from the read-write file.
 B after Tr=     0.000000    0.000000    0.000000
         Rot=    1.000000    0.000000    0.000000    0.000000 Ang=   0.00 deg.
 Initial guess orbital symmetries:
       Occupied  (A) (A) (A) (A) (A) (A) (A) (A) (A) (A) (A) (A)
                 (A)
       Virtual   (A) (A) (A) (A) (A) (A) (A) (A) (A) (A) (A) (A)
                 (A) (A) (A) (A) (A) (A) (A) (A) (A) (A) (A) (A)
                 (A) (A) (A) (A) (A) (A) (A) (A) (A) (A) (A) (A)
                 (A) (A) (A) (A) (A) (A) (A) (A) (A) (A) (A) (A)
                 (A) (A) (A) (A) (A) (A)
 Harris functional with IExCor= 1009 diagonalized for initial guess.
 ExpMin= 8.45D-02 ExpMax= 5.48D+03 ExpMxC= 8.25D+02 IAcc=2 IRadAn=         0 AccDes= 0.00D+00
 HarFok:  IExCor= 1009 AccDes= 0.00D+00 IRadAn=         0 IDoV= 1
 ScaDFX=  1.000000  1.000000  1.000000  1.000000
 FoFCou: FMM=F IPFlag=           0 FMFlag=      100000 FMFlg1=           0
         NFxFlg=           0 DoJE=T BraDBF=F KetDBF=T FulRan=T
         Omega=  0.000000  0.000000  1.000000  0.000000  0.000000 ICntrl=     500 IOpCl=  0
         NMat0=    1 NMatS0=    1 NMatT0=    0 NMatD0=    1 NMtDS0=    0 NMtDT0=    0
         I1Cent=           4 NGrid=           0.
 Petite list used in FoFCou.
 Requested convergence on RMS density matrix=1.00D-08 within 128 cycles.
 Requested convergence on MAX density matrix=1.00D-06.
 Requested convergence on             energy=1.00D-06.
 No special actions if energy rises.
 Keep R1 ints in memory in canonical form, NReq=3551229.
 Integral accuracy reduced to 1.0D-05 until final iterations.
 Initial convergence to 1.0D-05 achieved.  Increase integral accuracy.
 SCF Done:  E(RM062X) =  -226.590836545     A.U. after   34 cycles
             Convg  =    0.1707D-08             -V/T =  2.0083
 Calling FoFJK, ICntrl=      2127 FMM=F ISym2X=0 I1Cent= 0 IOpClX= 0 NMat=1 NMatS=1 NMatT=0.
 ***** Axes restored to original set *****
 -------------------------------------------------------------------
 Center     Atomic                   Forces (Hartrees/Bohr)
 Number     Number              X              Y              Z
 -------------------------------------------------------------------
      1        8           0.027448081   -0.022560718    0.028246316
      2        1          -0.025633558   -0.004690601   -0.041407972
      3        8          -0.020363594    0.023583635   -0.007113699
      4        8           0.019051038    0.004184488    0.021888972
      5        1          -0.000501965   -0.000516803   -0.001613617
 -------------------------------------------------------------------
 Cartesian Forces:  Max     0.041407972 RMS     0.020555793

 GradGradGradGradGradGradGradGradGradGradGradGradGradGradGradGradGradGrad
 Berny optimization.
 Internal  Forces:  Max     0.032189397 RMS     0.016036516
 Search for a saddle point.
 Step number   5 out of a maximum of   20
 All quantities printed in internal units (Hartrees-Bohrs-Radians)
 Swaping is turned off.
 Update second derivatives using D2CorX and points    3    4    5
 The second derivative matrix:
                          R1        R2        R3        R4        A1
           R1           0.04296
           R2           0.00699   0.38382
           R3           0.04175   0.03743   0.15139
           R4           0.00116  -0.00185  -0.00395   0.56634
           A1          -0.00148   0.00585   0.00417  -0.00029   0.04861
           A2           0.01261   0.00276   0.01813   0.01814   0.00432
           A3           0.00476  -0.00610   0.00371  -0.00041  -0.01281
           A4          -0.00241   0.03403   0.03435   0.00029   0.00204
           D1          -0.00075   0.02901   0.02858  -0.00018   0.00276
                          A2        A3        A4        D1
           A2           0.11112
           A3          -0.00839   0.02098
           A4           0.00342  -0.00063  -0.00728
           D1           0.00268   0.00046  -0.01030  -0.00480
     Eigenvalues ---   -0.03270   0.00420   0.01479   0.03163   0.05364
     Eigenvalues ---    0.10520   0.17224   0.39703   0.56712
 Eigenvectors required to have negative eigenvalues:
                          A4        D1        R3        R1        R2
   1                    0.71939   0.61653  -0.25201   0.17780  -0.08188
                          A1        A2        A3        R4
   1                   -0.01798  -0.01063  -0.01045  -0.00212
 RFO step:  Lambda0=5.405038046D-03 Lambda=-1.79896625D-02.
 Linear search not attempted -- option 19 set.
 Maximum step size (   0.300) exceeded in Quadratic search.
    -- Step size scaled by   0.453
 Iteration  1 RMS(Cart)=  0.10457138 RMS(Int)=  0.00629772
 Iteration  2 RMS(Cart)=  0.00580030 RMS(Int)=  0.00002378
 Iteration  3 RMS(Cart)=  0.00003543 RMS(Int)=  0.00000000
 Iteration  4 RMS(Cart)=  0.00000000 RMS(Int)=  0.00000000
 Variable       Old X    -DE/DX   Delta X   Delta X   Delta X     New X
                                 (Linear)    (Quad)   (Total)
    R1        2.97952   0.02248   0.00000   0.18327   0.18327   3.16279
    R2        2.29589  -0.03219   0.00000  -0.00875  -0.00875   2.28715
    R3        1.91227  -0.02764   0.00000  -0.05216  -0.05216   1.86012
    R4        1.81577   0.00110   0.00000  -0.00001  -0.00001   1.81576
    A1        1.94828   0.00041   0.00000   0.02336   0.02336   1.97164
    A2        1.85717   0.00248   0.00000   0.00545   0.00545   1.86262
    A3        3.13246   0.00076   0.00000  -0.00051  -0.00051   3.13195
    A4        2.35709   0.00113   0.00000  -0.15425  -0.15425   2.20284
    D1       -0.62484  -0.00003   0.00000  -0.17101  -0.17101  -0.79585
         Item               Value     Threshold  Converged?
 Maximum Force            0.032189     0.000450     NO 
 RMS     Force            0.016037     0.000300     NO 
 Maximum Displacement     0.184820     0.001800     NO 
 RMS     Displacement     0.107205     0.001200     NO 
 Predicted change in Energy=-4.876143D-03
 GradGradGradGradGradGradGradGradGradGradGradGradGradGradGradGradGradGrad

                          Input orientation:                          
 ---------------------------------------------------------------------
 Center     Atomic      Atomic             Coordinates (Angstroms)
 Number     Number       Type             X           Y           Z
 ---------------------------------------------------------------------
      1          8           0       -0.579627    0.018503   -0.149528
      2          1           0       -1.054453   -0.083844   -1.751172
      3          8           0        0.155380   -0.883474    0.183702
      4          8           0       -1.689921   -0.210141   -2.492209
      5          1           0       -1.173039   -0.475920   -3.257349
 ---------------------------------------------------------------------
                    Distance matrix (angstroms):
                    1          2          3          4          5
     1  O    0.000000
     2  H    1.673678   0.000000
     3  O    1.210306   2.418024   0.000000
     4  O    2.602534   0.984331   3.319490   0.000000
     5  H    3.202365   1.560883   3.711014   0.960857   0.000000
 Stoichiometry    H2O3
 Framework group  C1[X(H2O3)]
 Deg. of freedom     9
 Full point group                 C1      NOp   1
 Largest Abelian subgroup         C1      NOp   1
 Largest concise Abelian subgroup C1      NOp   1
                         Standard orientation:                         
 ---------------------------------------------------------------------
 Center     Atomic      Atomic             Coordinates (Angstroms)
 Number     Number       Type             X           Y           Z
 ---------------------------------------------------------------------
      1          8           0       -0.723449    0.525347    0.041769
      2          1           0        0.879339    0.069177    0.197257
      3          8           0       -1.477831   -0.418115   -0.033253
      4          8           0        1.817571   -0.022446   -0.085996
      5          1           0        2.190326   -0.747462    0.422581
 ---------------------------------------------------------------------
 Rotational constants (GHZ):     62.2907499      4.9565510      4.6204896
 Standard basis: 6-31+G(d,p) (6D, 7F)
 There are    67 symmetry adapted basis functions of A   symmetry.
 Integral buffers will be    262144 words long.
 Raffenetti 2 integral format.
 Two-electron integral symmetry is turned on.
    67 basis functions,   110 primitive gaussians,    67 cartesian basis functions
    13 alpha electrons       13 beta electrons
       nuclear repulsion energy        66.9868910775 Hartrees.
 NAtoms=    5 NActive=    5 NUniq=    5 SFac= 7.50D-01 NAtFMM=   80 NAOKFM=F Big=F
 One-electron integrals computed using PRISM.
 NBasis=    67 RedAO= T  NBF=    67
 NBsUse=    67 1.00D-06 NBFU=    67
 Initial guess read from the read-write file.
 B after Tr=     0.000000    0.000000    0.000000
         Rot=    1.000000    0.000000    0.000000    0.000000 Ang=   0.00 deg.
 Initial guess orbital symmetries:
       Occupied  (A) (A) (A) (A) (A) (A) (A) (A) (A) (A) (A) (A)
                 (A)
       Virtual   (A) (A) (A) (A) (A) (A) (A) (A) (A) (A) (A) (A)
                 (A) (A) (A) (A) (A) (A) (A) (A) (A) (A) (A) (A)
                 (A) (A) (A) (A) (A) (A) (A) (A) (A) (A) (A) (A)
                 (A) (A) (A) (A) (A) (A) (A) (A) (A) (A) (A) (A)
                 (A) (A) (A) (A) (A) (A)
 Harris functional with IExCor= 1009 diagonalized for initial guess.
 ExpMin= 8.45D-02 ExpMax= 5.48D+03 ExpMxC= 8.25D+02 IAcc=2 IRadAn=         0 AccDes= 0.00D+00
 HarFok:  IExCor= 1009 AccDes= 0.00D+00 IRadAn=         0 IDoV= 1
 ScaDFX=  1.000000  1.000000  1.000000  1.000000
 FoFCou: FMM=F IPFlag=           0 FMFlag=      100000 FMFlg1=           0
         NFxFlg=           0 DoJE=T BraDBF=F KetDBF=T FulRan=T
         Omega=  0.000000  0.000000  1.000000  0.000000  0.000000 ICntrl=     500 IOpCl=  0
         NMat0=    1 NMatS0=    1 NMatT0=    0 NMatD0=    1 NMtDS0=    0 NMtDT0=    0
         I1Cent=           4 NGrid=           0.
 Petite list used in FoFCou.
 Requested convergence on RMS density matrix=1.00D-08 within 128 cycles.
 Requested convergence on MAX density matrix=1.00D-06.
 Requested convergence on             energy=1.00D-06.
 No special actions if energy rises.
 Keep R1 ints in memory in canonical form, NReq=3551229.
 Integral accuracy reduced to 1.0D-05 until final iterations.
 Initial convergence to 1.0D-05 achieved.  Increase integral accuracy.
 SCF Done:  E(RM062X) =  -226.595573973     A.U. after   19 cycles
             Convg  =    0.4154D-08             -V/T =  2.0082
 Calling FoFJK, ICntrl=      2127 FMM=F ISym2X=0 I1Cent= 0 IOpClX= 0 NMat=1 NMatS=1 NMatT=0.
 ***** Axes restored to original set *****
 -------------------------------------------------------------------
 Center     Atomic                   Forces (Hartrees/Bohr)
 Number     Number              X              Y              Z
 -------------------------------------------------------------------
      1        8           0.020351648   -0.016989247    0.022808771
      2        1          -0.014066900   -0.001986541   -0.022899722
      3        8          -0.014913796    0.018045097   -0.006701896
      4        8           0.009217552    0.001267387    0.007851741
      5        1          -0.000588504   -0.000336696   -0.001058894
 -------------------------------------------------------------------
 Cartesian Forces:  Max     0.022899722 RMS     0.013396636

 GradGradGradGradGradGradGradGradGradGradGradGradGradGradGradGradGradGrad
 Berny optimization.
 Internal  Forces:  Max     0.024560279 RMS     0.010648483
 Search for a saddle point.
 Step number   6 out of a maximum of   20
 All quantities printed in internal units (Hartrees-Bohrs-Radians)
 Swaping is turned off.
 Update second derivatives using D2CorX and points    4    5    6
 The second derivative matrix:
                          R1        R2        R3        R4        A1
           R1           0.03866
           R2           0.01941   0.38315
           R3           0.03074   0.03320   0.16009
           R4           0.00110  -0.00185  -0.00393   0.56634
           A1          -0.00167   0.00746   0.00260  -0.00029   0.04863
           A2           0.01153   0.00315   0.01816   0.01814   0.00419
           A3           0.00487  -0.00624   0.00381  -0.00041  -0.01280
           A4          -0.00046   0.02254   0.04534   0.00034   0.00194
           D1           0.00060   0.01649   0.04085  -0.00013   0.00256
                          A2        A3        A4        D1
           A2           0.11106
           A3          -0.00837   0.02098
           A4           0.00436  -0.00071  -0.00719
           D1           0.00369   0.00037  -0.00949  -0.00312
     Eigenvalues ---   -0.03608   0.00442   0.01451   0.03273   0.05379
     Eigenvalues ---    0.10666   0.18197   0.39347   0.56711
 Eigenvectors required to have negative eigenvalues:
                          A4        D1        R3        R1        R2
   1                    0.71849   0.60748  -0.30578   0.13742  -0.04426
                          A1        A2        A3        R4
   1                   -0.01792  -0.00761   0.00361  -0.00244
 RFO step:  Lambda0=1.485357051D-03 Lambda=-9.76568002D-03.
 Linear search not attempted -- option 19 set.
 Maximum step size (   0.300) exceeded in Quadratic search.
    -- Step size scaled by   0.608
 Iteration  1 RMS(Cart)=  0.09286774 RMS(Int)=  0.01363274
 Iteration  2 RMS(Cart)=  0.01453746 RMS(Int)=  0.00002884
 Iteration  3 RMS(Cart)=  0.00002204 RMS(Int)=  0.00000000
 Iteration  4 RMS(Cart)=  0.00000000 RMS(Int)=  0.00000000
 Variable       Old X    -DE/DX   Delta X   Delta X   Delta X     New X
                                 (Linear)    (Quad)   (Total)
    R1        3.16279   0.01718   0.00000   0.23962   0.23962   3.40241
    R2        2.28715  -0.02456   0.00000  -0.03792  -0.03792   2.24922
    R3        1.86012  -0.01081   0.00000  -0.01041  -0.01041   1.84970
    R4        1.81576   0.00062   0.00000   0.00020   0.00020   1.81595
    A1        1.97164   0.00049   0.00000   0.02056   0.02056   1.99220
    A2        1.86262   0.00194   0.00000  -0.00545  -0.00545   1.85717
    A3        3.13195   0.00032   0.00000  -0.03185  -0.03185   3.10010
    A4        2.20284   0.00098   0.00000  -0.10555  -0.10555   2.09729
    D1       -0.79585   0.00006   0.00000  -0.13576  -0.13576  -0.93161
         Item               Value     Threshold  Converged?
 Maximum Force            0.024560     0.000450     NO 
 RMS     Force            0.010648     0.000300     NO 
 Maximum Displacement     0.174840     0.001800     NO 
 RMS     Displacement     0.105566     0.001200     NO 
 Predicted change in Energy=-3.862182D-03
 GradGradGradGradGradGradGradGradGradGradGradGradGradGradGradGradGradGrad

                          Input orientation:                          
 ---------------------------------------------------------------------
 Center     Atomic      Atomic             Coordinates (Angstroms)
 Number     Number       Type             X           Y           Z
 ---------------------------------------------------------------------
      1          8           0       -0.530455    0.017986   -0.090491
      2          1           0       -1.051773   -0.110467   -1.809050
      3          8           0        0.162727   -0.877381    0.276223
      4          8           0       -1.710181   -0.234212   -2.522685
      5          1           0       -1.211979   -0.430803   -3.320553
 ---------------------------------------------------------------------
                    Distance matrix (angstroms):
                    1          2          3          4          5
     1  O    0.000000
     2  H    1.800477   0.000000
     3  O    1.190237   2.532100   0.000000
     4  O    2.714945   0.978820   3.428606   0.000000
     5  H    3.331545   1.553359   3.876345   0.960961   0.000000
 Stoichiometry    H2O3
 Framework group  C1[X(H2O3)]
 Deg. of freedom     9
 Full point group                 C1      NOp   1
 Largest Abelian subgroup         C1      NOp   1
 Largest concise Abelian subgroup C1      NOp   1
                         Standard orientation:                         
 ---------------------------------------------------------------------
 Center     Atomic      Atomic             Coordinates (Angstroms)
 Number     Number       Type             X           Y           Z
 ---------------------------------------------------------------------
      1          8           0       -0.773119    0.511550    0.043686
      2          1           0        0.957814    0.044865    0.210397
      3          8           0       -1.520871   -0.411234   -0.033776
      4          8           0        1.885088   -0.022714   -0.095684
      5          1           0        2.313401   -0.665679    0.475797
 ---------------------------------------------------------------------
 Rotational constants (GHZ):     65.1294341      4.5956300      4.3240518
 Standard basis: 6-31+G(d,p) (6D, 7F)
 There are    67 symmetry adapted basis functions of A   symmetry.
 Integral buffers will be    262144 words long.
 Raffenetti 2 integral format.
 Two-electron integral symmetry is turned on.
    67 basis functions,   110 primitive gaussians,    67 cartesian basis functions
    13 alpha electrons       13 beta electrons
       nuclear repulsion energy        66.2636606496 Hartrees.
 NAtoms=    5 NActive=    5 NUniq=    5 SFac= 7.50D-01 NAtFMM=   80 NAOKFM=F Big=F
 One-electron integrals computed using PRISM.
 NBasis=    67 RedAO= T  NBF=    67
 NBsUse=    67 1.00D-06 NBFU=    67
 Initial guess read from the read-write file.
 B after Tr=     0.000000    0.000000    0.000000
         Rot=    1.000000    0.000000    0.000000    0.000000 Ang=   0.00 deg.
 Initial guess orbital symmetries:
       Occupied  (A) (A) (A) (A) (A) (A) (A) (A) (A) (A) (A) (A)
                 (A)
       Virtual   (A) (A) (A) (A) (A) (A) (A) (A) (A) (A) (A) (A)
                 (A) (A) (A) (A) (A) (A) (A) (A) (A) (A) (A) (A)
                 (A) (A) (A) (A) (A) (A) (A) (A) (A) (A) (A) (A)
                 (A) (A) (A) (A) (A) (A) (A) (A) (A) (A) (A) (A)
                 (A) (A) (A) (A) (A) (A)
 Harris functional with IExCor= 1009 diagonalized for initial guess.
 ExpMin= 8.45D-02 ExpMax= 5.48D+03 ExpMxC= 8.25D+02 IAcc=2 IRadAn=         0 AccDes= 0.00D+00
 HarFok:  IExCor= 1009 AccDes= 0.00D+00 IRadAn=         0 IDoV= 1
 ScaDFX=  1.000000  1.000000  1.000000  1.000000
 FoFCou: FMM=F IPFlag=           0 FMFlag=      100000 FMFlg1=           0
         NFxFlg=           0 DoJE=T BraDBF=F KetDBF=T FulRan=T
         Omega=  0.000000  0.000000  1.000000  0.000000  0.000000 ICntrl=     500 IOpCl=  0
         NMat0=    1 NMatS0=    1 NMatT0=    0 NMatD0=    1 NMtDS0=    0 NMtDT0=    0
         I1Cent=           4 NGrid=           0.
 Petite list used in FoFCou.
 Requested convergence on RMS density matrix=1.00D-08 within 128 cycles.
 Requested convergence on MAX density matrix=1.00D-06.
 Requested convergence on             energy=1.00D-06.
 No special actions if energy rises.
 Keep R1 ints in memory in canonical form, NReq=3551234.
 Integral accuracy reduced to 1.0D-05 until final iterations.
 Initial convergence to 1.0D-05 achieved.  Increase integral accuracy.
 SCF Done:  E(RM062X) =  -226.599086962     A.U. after   20 cycles
             Convg  =    0.4974D-08             -V/T =  2.0079
 Calling FoFJK, ICntrl=      2127 FMM=F ISym2X=0 I1Cent= 0 IOpClX= 0 NMat=1 NMatS=1 NMatT=0.
 ***** Axes restored to original set *****
 -------------------------------------------------------------------
 Center     Atomic                   Forces (Hartrees/Bohr)
 Number     Number              X              Y              Z
 -------------------------------------------------------------------
      1        8          -0.002903037    0.008846444    0.006269467
      2        1          -0.011368289   -0.001484234   -0.016034887
      3        8           0.006096749   -0.008186378    0.003294509
      4        8           0.008765833    0.001127753    0.007504622
      5        1          -0.000591256   -0.000303586   -0.001033711
 -------------------------------------------------------------------
 Cartesian Forces:  Max     0.016034887 RMS     0.007143921

 GradGradGradGradGradGradGradGradGradGradGradGradGradGradGradGradGradGrad
 Berny optimization.
 Internal  Forces:  Max     0.010612574 RMS     0.006027117
 Search for a saddle point.
 Step number   7 out of a maximum of   20
 All quantities printed in internal units (Hartrees-Bohrs-Radians)
 Swaping is turned off.
 Update second derivatives using D2CorX and points    5    6    7
 The second derivative matrix:
                          R1        R2        R3        R4        A1
           R1           0.03001
           R2          -0.03195   0.39971
           R3           0.04540   0.03545   0.15761
           R4           0.00018  -0.00172  -0.00385   0.56634
           A1          -0.00172   0.00247   0.00392  -0.00038   0.04870
           A2           0.00854   0.00433   0.01824   0.01815   0.00390
           A3           0.00511  -0.00067   0.00231  -0.00031  -0.01285
           A4           0.00226   0.04974   0.03782   0.00083   0.00180
           D1           0.00328   0.05000   0.03167   0.00047   0.00232
                          A2        A3        A4        D1
           A2           0.11114
           A3          -0.00805   0.02103
           A4           0.00595  -0.00064  -0.00766
           D1           0.00565   0.00052  -0.00972  -0.00298
     Eigenvalues ---   -0.03673   0.00412   0.00970   0.01713   0.05343
     Eigenvalues ---    0.10584   0.18312   0.42016   0.56711
 Eigenvectors required to have negative eigenvalues:
                          A4        D1        R3        R2        R1
   1                    0.73471   0.62359  -0.22644  -0.13376   0.03702
                          A2        A1        R4        A3
   1                   -0.02294  -0.01637  -0.00265  -0.00010
 RFO step:  Lambda0=7.901113132D-05 Lambda=-9.87188669D-03.
 Linear search not attempted -- option 19 set.
 Maximum step size (   0.300) exceeded in Quadratic search.
    -- Step size scaled by   0.435
 Iteration  1 RMS(Cart)=  0.06716954 RMS(Int)=  0.02324462
 Iteration  2 RMS(Cart)=  0.02555451 RMS(Int)=  0.00002737
 Iteration  3 RMS(Cart)=  0.00002712 RMS(Int)=  0.00000000
 Iteration  4 RMS(Cart)=  0.00000000 RMS(Int)=  0.00000000
 Variable       Old X    -DE/DX   Delta X   Delta X   Delta X     New X
                                 (Linear)    (Quad)   (Total)
    R1        3.40241   0.01018   0.00000   0.26980   0.26980   3.67221
    R2        2.24922   0.01061   0.00000   0.04932   0.04932   2.29855
    R3        1.84970  -0.01032   0.00000  -0.09635  -0.09635   1.75336
    R4        1.81595   0.00061   0.00000  -0.00012  -0.00012   1.81583
    A1        1.99220   0.00015   0.00000   0.00933   0.00933   2.00153
    A2        1.85717   0.00191   0.00000   0.00160   0.00160   1.85876
    A3        3.10010  -0.00001   0.00000  -0.03122  -0.03122   3.06888
    A4        2.09729   0.00057   0.00000  -0.00516  -0.00516   2.09213
    D1       -0.93161   0.00007   0.00000  -0.06636  -0.06636  -0.99797
         Item               Value     Threshold  Converged?
 Maximum Force            0.010613     0.000450     NO 
 RMS     Force            0.006027     0.000300     NO 
 Maximum Displacement     0.145819     0.001800     NO 
 RMS     Displacement     0.090347     0.001200     NO 
 Predicted change in Energy=-3.775427D-03
 GradGradGradGradGradGradGradGradGradGradGradGradGradGradGradGradGradGrad

                          Input orientation:                          
 ---------------------------------------------------------------------
 Center     Atomic      Atomic             Coordinates (Angstroms)
 Number     Number       Type             X           Y           Z
 ---------------------------------------------------------------------
      1          8           0       -0.498358    0.030072   -0.034112
      2          1           0       -1.086016   -0.114225   -1.880744
      3          8           0        0.190426   -0.894535    0.353387
      4          8           0       -1.718116   -0.245101   -2.547228
      5          1           0       -1.229597   -0.411088   -3.357859
 ---------------------------------------------------------------------
                    Distance matrix (angstroms):
                    1          2          3          4          5
     1  O    0.000000
     2  H    1.943247   0.000000
     3  O    1.216338   2.688778   0.000000
     4  O    2.807005   0.927836   3.532402   0.000000
     5  H    3.431709   1.513477   4.002941   0.960898   0.000000
 Stoichiometry    H2O3
 Framework group  C1[X(H2O3)]
 Deg. of freedom     9
 Full point group                 C1      NOp   1
 Largest Abelian subgroup         C1      NOp   1
 Largest concise Abelian subgroup C1      NOp   1
                         Standard orientation:                         
 ---------------------------------------------------------------------
 Center     Atomic      Atomic             Coordinates (Angstroms)
 Number     Number       Type             X           Y           Z
 ---------------------------------------------------------------------
      1          8           0       -0.806512    0.523879    0.042138
      2          1           0        1.069257    0.043889    0.207400
      3          8           0       -1.568130   -0.421646   -0.031346
      4          8           0        1.941768   -0.029435   -0.099566
      5          1           0        2.393733   -0.626274    0.502792
 ---------------------------------------------------------------------
 Rotational constants (GHZ):     62.4662802      4.3109605      4.0623046
 Standard basis: 6-31+G(d,p) (6D, 7F)
 There are    67 symmetry adapted basis functions of A   symmetry.
 Integral buffers will be    262144 words long.
 Raffenetti 2 integral format.
 Two-electron integral symmetry is turned on.
    67 basis functions,   110 primitive gaussians,    67 cartesian basis functions
    13 alpha electrons       13 beta electrons
       nuclear repulsion energy        64.8588244754 Hartrees.
 NAtoms=    5 NActive=    5 NUniq=    5 SFac= 7.50D-01 NAtFMM=   80 NAOKFM=F Big=F
 One-electron integrals computed using PRISM.
 NBasis=    67 RedAO= T  NBF=    67
 NBsUse=    67 1.00D-06 NBFU=    67
 Initial guess read from the read-write file.
 B after Tr=     0.000000    0.000000    0.000000
         Rot=    1.000000    0.000000    0.000000    0.000000 Ang=   0.00 deg.
 Initial guess orbital symmetries:
       Occupied  (A) (A) (A) (A) (A) (A) (A) (A) (A) (A) (A) (A)
                 (A)
       Virtual   (A) (A) (A) (A) (A) (A) (A) (A) (A) (A) (A) (A)
                 (A) (A) (A) (A) (A) (A) (A) (A) (A) (A) (A) (A)
                 (A) (A) (A) (A) (A) (A) (A) (A) (A) (A) (A) (A)
                 (A) (A) (A) (A) (A) (A) (A) (A) (A) (A) (A) (A)
                 (A) (A) (A) (A) (A) (A)
 Harris functional with IExCor= 1009 diagonalized for initial guess.
 ExpMin= 8.45D-02 ExpMax= 5.48D+03 ExpMxC= 8.25D+02 IAcc=2 IRadAn=         0 AccDes= 0.00D+00
 HarFok:  IExCor= 1009 AccDes= 0.00D+00 IRadAn=         0 IDoV= 1
 ScaDFX=  1.000000  1.000000  1.000000  1.000000
 FoFCou: FMM=F IPFlag=           0 FMFlag=      100000 FMFlg1=           0
         NFxFlg=           0 DoJE=T BraDBF=F KetDBF=T FulRan=T
         Omega=  0.000000  0.000000  1.000000  0.000000  0.000000 ICntrl=     500 IOpCl=  0
         NMat0=    1 NMatS0=    1 NMatT0=    0 NMatD0=    1 NMtDS0=    0 NMtDT0=    0
         I1Cent=           4 NGrid=           0.
 Petite list used in FoFCou.
 Requested convergence on RMS density matrix=1.00D-08 within 128 cycles.
 Requested convergence on MAX density matrix=1.00D-06.
 Requested convergence on             energy=1.00D-06.
 No special actions if energy rises.
 Keep R1 ints in memory in canonical form, NReq=3551234.
 Integral accuracy reduced to 1.0D-05 until final iterations.
 EnCoef did     1 forward-backward iterations
 Initial convergence to 1.0D-05 achieved.  Increase integral accuracy.
 SCF Done:  E(RM062X) =  -226.599092287     A.U. after   19 cycles
             Convg  =    0.7737D-08             -V/T =  2.0080
 Calling FoFJK, ICntrl=      2127 FMM=F ISym2X=0 I1Cent= 0 IOpClX= 0 NMat=1 NMatS=1 NMatT=0.
 ***** Axes restored to original set *****
 -------------------------------------------------------------------
 Center     Atomic                   Forces (Hartrees/Bohr)
 Number     Number              X              Y              Z
 -------------------------------------------------------------------
      1        8           0.020708131   -0.024954986    0.015849641
      2        1           0.027001743    0.006179518    0.027728283
      3        8          -0.019143348    0.025381248   -0.010820053
      4        8          -0.027199555   -0.006383716   -0.031925692
      5        1          -0.001366970   -0.000222064   -0.000832179
 -------------------------------------------------------------------
[...]
 Search for a saddle point.
 Step number  19 out of a maximum of   20
 All quantities printed in internal units (Hartrees-Bohrs-Radians)
 Swaping is turned off.
 Update second derivatives using D2CorX and points   17   18   19
 The second derivative matrix:
                          R1        R2        R3        R4        A1
           R1          -0.00636
           R2          -0.00667   0.70546
           R3          -0.07330  -0.00795   0.28249
           R4          -0.00063   0.00026  -0.00377   0.56640
           A1           0.00003  -0.00376  -0.02013  -0.00059   0.04803
           A2          -0.00119   0.00622   0.02546   0.01835   0.00448
           A3           0.01045  -0.00659  -0.00030  -0.00017  -0.01238
           A4           0.01312   0.00884   0.06367  -0.00019   0.01005
           D1           0.02125   0.00372   0.08835  -0.00072   0.00752
                          A2        A3        A4        D1
           A2           0.11253
           A3          -0.00480   0.01979
           A4           0.00268   0.00102  -0.01198
           D1           0.00319   0.00054  -0.01886  -0.01815
     Eigenvalues ---   -0.09654  -0.00230   0.00591   0.02293   0.05335
     Eigenvalues ---    0.10983   0.33198   0.56717   0.70588
 Eigenvectors required to have negative eigenvalues:
                          D1        R1        A4        R3        A1
   1                    0.63360  -0.49266   0.48141  -0.33182  -0.11165
                          A2        A3        R2        R4
   1                    0.02541   0.02449  -0.01614  -0.00232
 RFO step:  Lambda0=2.674114807D-05 Lambda=-2.30556354D-03.
 Linear search not attempted -- option 19 set.
 Maximum step size (   0.300) exceeded in Quadratic search.
    -- Step size scaled by   0.387
 Iteration  1 RMS(Cart)=  0.11254880 RMS(Int)=  0.01414186
 Iteration  2 RMS(Cart)=  0.01161534 RMS(Int)=  0.00014932
 Iteration  3 RMS(Cart)=  0.00018906 RMS(Int)=  0.00000004
 Iteration  4 RMS(Cart)=  0.00000003 RMS(Int)=  0.00000000
 Variable       Old X    -DE/DX   Delta X   Delta X   Delta X     New X
                                 (Linear)    (Quad)   (Total)
    R1        4.23503   0.00258   0.00000   0.18761   0.18761   4.42264
    R2        2.25720   0.00254   0.00000  -0.00032  -0.00032   2.25687
    R3        1.82074   0.00046   0.00000   0.00165   0.00165   1.82239
    R4        1.81841  -0.00018   0.00000   0.00022   0.00022   1.81862
    A1        1.56703   0.00289   0.00000  -0.03629  -0.03629   1.53073
    A2        1.83895   0.00031   0.00000  -0.00372  -0.00372   1.83522
    A3        2.31028   0.00268   0.00000  -0.07201  -0.07201   2.23827
    A4        2.48235   0.00067   0.00000   0.21934   0.21934   2.70168
    D1       -0.21770  -0.00034   0.00000  -0.01321  -0.01321  -0.23091
         Item               Value     Threshold  Converged?
 Maximum Force            0.002893     0.000450     NO 
 RMS     Force            0.001813     0.000300     NO 
 Maximum Displacement     0.191566     0.001800     NO 
 RMS     Displacement     0.117733     0.001200     NO 
 Predicted change in Energy=-3.810090D-04
 GradGradGradGradGradGradGradGradGradGradGradGradGradGradGradGradGradGrad

                          Input orientation:                          
 ---------------------------------------------------------------------
 Center     Atomic      Atomic             Coordinates (Angstroms)
 Number     Number       Type             X           Y           Z
 ---------------------------------------------------------------------
      1          8           0       -0.514461   -0.064037    0.151572
      2          1           0       -1.490792    0.383162   -1.927872
      3          8           0        0.123341   -0.919012   -0.385590
      4          8           0       -1.640631   -0.268619   -2.622662
      5          1           0       -0.819117   -0.766371   -2.682005
 ---------------------------------------------------------------------
                    Distance matrix (angstroms):
                    1          2          3          4          5
     1  O    0.000000
     2  H    2.340362   0.000000
     3  O    1.194285   2.584515   0.000000
     4  O    3.001081   0.964367   2.922174   0.000000
     5  H    2.935174   1.530128   2.486976   0.962375   0.000000
 Stoichiometry    H2O3
 Framework group  C1[X(H2O3)]
 Deg. of freedom     9
 Full point group                 C1      NOp   1
 Largest Abelian subgroup         C1      NOp   1
 Largest concise Abelian subgroup C1      NOp   1
                         Standard orientation:                         
 ---------------------------------------------------------------------
 Center     Atomic      Atomic             Coordinates (Angstroms)
 Number     Number       Type             X           Y           Z
 ---------------------------------------------------------------------
      1          8           0        1.128422   -0.581455   -0.008924
      2          1           0       -1.191076   -0.690983    0.283014
      3          8           0        1.024903    0.608312   -0.001565
      4          8           0       -1.823570   -0.042235   -0.047261
      5          1           0       -1.446967    0.814005    0.178985
 ---------------------------------------------------------------------
 Rotational constants (GHZ):     39.9699018      5.3816234      4.7556584
 Standard basis: 6-31+G(d,p) (6D, 7F)
 There are    67 symmetry adapted basis functions of A   symmetry.
 Integral buffers will be    262144 words long.
 Raffenetti 2 integral format.
 Two-electron integral symmetry is turned on.
    67 basis functions,   110 primitive gaussians,    67 cartesian basis functions
    13 alpha electrons       13 beta electrons
       nuclear repulsion energy        66.9586765703 Hartrees.
 NAtoms=    5 NActive=    5 NUniq=    5 SFac= 7.50D-01 NAtFMM=   80 NAOKFM=F Big=F
 One-electron integrals computed using PRISM.
 NBasis=    67 RedAO= T  NBF=    67
 NBsUse=    67 1.00D-06 NBFU=    67
 Initial guess read from the read-write file.
 B after Tr=     0.000000    0.000000    0.000000
         Rot=    1.000000    0.000000    0.000000    0.000000 Ang=   0.00 deg.
 Initial guess orbital symmetries:
       Occupied  (A) (A) (A) (A) (A) (A) (A) (A) (A) (A) (A) (A)
                 (A)
       Virtual   (A) (A) (A) (A) (A) (A) (A) (A) (A) (A) (A) (A)
                 (A) (A) (A) (A) (A) (A) (A) (A) (A) (A) (A) (A)
                 (A) (A) (A) (A) (A) (A) (A) (A) (A) (A) (A) (A)
                 (A) (A) (A) (A) (A) (A) (A) (A) (A) (A) (A) (A)
                 (A) (A) (A) (A) (A) (A)
 Harris functional with IExCor= 1009 diagonalized for initial guess.
 ExpMin= 8.45D-02 ExpMax= 5.48D+03 ExpMxC= 8.25D+02 IAcc=2 IRadAn=         0 AccDes= 0.00D+00
 HarFok:  IExCor= 1009 AccDes= 0.00D+00 IRadAn=         0 IDoV= 1
 ScaDFX=  1.000000  1.000000  1.000000  1.000000
 FoFCou: FMM=F IPFlag=           0 FMFlag=      100000 FMFlg1=           0
         NFxFlg=           0 DoJE=T BraDBF=F KetDBF=T FulRan=T
         Omega=  0.000000  0.000000  1.000000  0.000000  0.000000 ICntrl=     500 IOpCl=  0
         NMat0=    1 NMatS0=    1 NMatT0=    0 NMatD0=    1 NMtDS0=    0 NMtDT0=    0
         I1Cent=           4 NGrid=           0.
 Petite list used in FoFCou.
 Requested convergence on RMS density matrix=1.00D-08 within 128 cycles.
 Requested convergence on MAX density matrix=1.00D-06.
 Requested convergence on             energy=1.00D-06.
 No special actions if energy rises.
 Keep R1 ints in memory in canonical form, NReq=3551229.
 Integral accuracy reduced to 1.0D-05 until final iterations.
 Initial convergence to 1.0D-05 achieved.  Increase integral accuracy.
 SCF Done:  E(RM062X) =  -226.602441891     A.U. after   30 cycles
             Convg  =    0.5266D-09             -V/T =  2.0081
 Calling FoFJK, ICntrl=      2127 FMM=F ISym2X=0 I1Cent= 0 IOpClX= 0 NMat=1 NMatS=1 NMatT=0.
 ***** Axes restored to original set *****
 -------------------------------------------------------------------
 Center     Atomic                   Forces (Hartrees/Bohr)
 Number     Number              X              Y              Z
 -------------------------------------------------------------------
      1        8          -0.001788852    0.002381117    0.001198919
      2        1          -0.000683723   -0.000912972   -0.001204644
      3        8           0.002898972   -0.002895128    0.000055504
      4        8          -0.000064216    0.001274198    0.000022560
      5        1          -0.000362181    0.000152785   -0.000072340
 -------------------------------------------------------------------
 Cartesian Forces:  Max     0.002898972 RMS     0.001452266

 GradGradGradGradGradGradGradGradGradGradGradGradGradGradGradGradGradGrad
 Berny optimization.
 Internal  Forces:  Max     0.004454924 RMS     0.002169277
 Search for a saddle point.
 Step number  20 out of a maximum of   20
 All quantities printed in internal units (Hartrees-Bohrs-Radians)
 Swaping is turned off.
 Update second derivatives using D2CorX and points   16   17   18   19   20
 The second derivative matrix:
                          R1        R2        R3        R4        A1
           R1          -0.00676
           R2          -0.01001   0.70912
           R3          -0.07195  -0.01017   0.28261
           R4          -0.00019  -0.00023  -0.00359   0.56646
           A1          -0.00396   0.00374  -0.02445  -0.00163   0.06057
           A2          -0.00129   0.00646   0.02518   0.01830   0.00482
           A3           0.00933   0.00148  -0.00672  -0.00147  -0.00285
           A4           0.01398   0.00648   0.06498   0.00017   0.00613
           D1           0.02107   0.00430   0.08855  -0.00073   0.00843
                          A2        A3        A4        D1
           A2           0.11252
           A3          -0.00482   0.01831
           A4           0.00260  -0.00117  -0.01063
           D1           0.00329   0.00217  -0.01917  -0.01834
     Eigenvalues ---   -0.09721   0.00288   0.00475   0.02325   0.06075
     Eigenvalues ---    0.11000   0.33265   0.56723   0.70959
 Eigenvectors required to have negative eigenvalues:
                          D1        R1        A4        R3        A1
   1                    0.63370  -0.49402   0.47864  -0.33262  -0.11656
                          A2        R2        A3        R4
   1                    0.02468  -0.01723   0.01188  -0.00232
 RFO step:  Lambda0=1.060684900D-05 Lambda=-7.43133807D-04.
 Linear search not attempted -- option 19 set.
 Iteration  1 RMS(Cart)=  0.13691671 RMS(Int)=  0.00602364
 Iteration  2 RMS(Cart)=  0.00514279 RMS(Int)=  0.00001303
 Iteration  3 RMS(Cart)=  0.00001794 RMS(Int)=  0.00000000
 Iteration  4 RMS(Cart)=  0.00000000 RMS(Int)=  0.00000000
 Variable       Old X    -DE/DX   Delta X   Delta X   Delta X     New X
                                 (Linear)    (Quad)   (Total)
    R1        4.42264   0.00170   0.00000   0.03493   0.03493   4.45758
    R2        2.25687   0.00357   0.00000   0.00403   0.00403   2.26090
    R3        1.82239  -0.00087   0.00000  -0.00118  -0.00118   1.82121
    R4        1.81862  -0.00041   0.00000  -0.00033  -0.00033   1.81829
    A1        1.53073   0.00445   0.00000   0.07292   0.07292   1.60366
    A2        1.83522   0.00023   0.00000   0.00329   0.00329   1.83852
    A3        2.23827   0.00242   0.00000   0.12993   0.12993   2.36820
    A4        2.70168   0.00017   0.00000   0.10187   0.10187   2.80355
    D1       -0.23091   0.00000   0.00000  -0.02289  -0.02289  -0.25381
         Item               Value     Threshold  Converged?
 Maximum Force            0.004455     0.000450     NO 
 RMS     Force            0.002169     0.000300     NO 
 Maximum Displacement     0.257364     0.001800     NO 
 RMS     Displacement     0.137888     0.001200     NO 
 Predicted change in Energy=-3.789868D-04
 Optimization stopped.
    -- Number of steps exceeded,  NStep=  20
    -- Flag reset to prevent archiving.
                           ----------------------------
                           ! Non-Optimized Parameters !
                           ! (Angstroms and Degrees)  !
 --------------------------                            --------------------------
 ! Name  Definition              Value          Derivative Info.                !
 --------------------------------------------------------------------------------
 ! R1    R(1,2)                  2.3588         -DE/DX =    0.0017              !
 ! R2    R(1,3)                  1.1964         -DE/DX =    0.0036              !
 ! R3    R(2,4)                  0.9637         -DE/DX =   -0.0009              !
 ! R4    R(4,5)                  0.9622         -DE/DX =   -0.0004              !
 ! A1    A(2,1,3)               91.8828         -DE/DX =    0.0045              !
 ! A2    A(2,4,5)              105.3394         -DE/DX =    0.0002              !
 ! A3    L(1,2,4,3,-1)         135.6879         -DE/DX =    0.0024              !
 ! A4    L(1,2,4,3,-2)         160.6318         -DE/DX =    0.0002              !
 ! D1    D(3,1,4,5)            -14.5421         -DE/DX =    0.0                 !
 --------------------------------------------------------------------------------
 GradGradGradGradGradGradGradGradGradGradGradGradGradGradGradGradGradGrad

                          Input orientation:                          
 ---------------------------------------------------------------------
 Center     Atomic      Atomic             Coordinates (Angstroms)
 Number     Number       Type             X           Y           Z
 ---------------------------------------------------------------------
      1          8           0       -0.514461   -0.064037    0.151572
      2          1           0       -1.490792    0.383162   -1.927872
      3          8           0        0.123341   -0.919012   -0.385590
      4          8           0       -1.640631   -0.268619   -2.622662
      5          1           0       -0.819117   -0.766371   -2.682005
 ---------------------------------------------------------------------
                    Distance matrix (angstroms):
                    1          2          3          4          5
     1  O    0.000000
     2  H    2.340362   0.000000
     3  O    1.194285   2.584515   0.000000
     4  O    3.001081   0.964367   2.922174   0.000000
     5  H    2.935174   1.530128   2.486976   0.962375   0.000000
 Stoichiometry    H2O3
 Framework group  C1[X(H2O3)]
 Deg. of freedom     9
 Full point group                 C1      NOp   1
 Largest Abelian subgroup         C1      NOp   1
 Largest concise Abelian subgroup C1      NOp   1
                         Standard orientation:                         
 ---------------------------------------------------------------------
 Center     Atomic      Atomic             Coordinates (Angstroms)
 Number     Number       Type             X           Y           Z
 ---------------------------------------------------------------------
      1          8           0        1.128422   -0.581455   -0.008924
      2          1           0       -1.191076   -0.690983    0.283014
      3          8           0        1.024903    0.608312   -0.001565
      4          8           0       -1.823570   -0.042235   -0.047261
      5          1           0       -1.446967    0.814005    0.178985
 ---------------------------------------------------------------------
 Rotational constants (GHZ):     39.9699018      5.3816234      4.7556584

 **********************************************************************

            Population analysis using the SCF density.

 **********************************************************************

 Orbital symmetries:
       Occupied  (A) (A) (A) (A) (A) (A) (A) (A) (A) (A) (A) (A)
                 (A)
       Virtual   (A) (A) (A) (A) (A) (A) (A) (A) (A) (A) (A) (A)
                 (A) (A) (A) (A) (A) (A) (A) (A) (A) (A) (A) (A)
                 (A) (A) (A) (A) (A) (A) (A) (A) (A) (A) (A) (A)
                 (A) (A) (A) (A) (A) (A) (A) (A) (A) (A) (A) (A)
                 (A) (A) (A) (A) (A) (A)
 The electronic state is 1-A.
 Alpha  occ. eigenvalues --  -19.83726 -19.83640 -19.64453  -1.46098  -1.12933
 Alpha  occ. eigenvalues --   -0.93869  -0.65281  -0.64809  -0.62635  -0.60432
 Alpha  occ. eigenvalues --   -0.46296  -0.39163  -0.36457
 Alpha virt. eigenvalues --   -0.13978   0.06541   0.08318   0.12011   0.12762
 Alpha virt. eigenvalues --    0.16427   0.18499   0.20128   0.20660   0.21265
 Alpha virt. eigenvalues --    0.22949   0.27113   0.29071   0.30858   0.33271
 Alpha virt. eigenvalues --    0.37967   1.01035   1.03856   1.04088   1.09316
 Alpha virt. eigenvalues --    1.10486   1.11165   1.16625   1.17438   1.19893
 Alpha virt. eigenvalues --    1.20605   1.22513   1.28296   1.35768   1.53429
 Alpha virt. eigenvalues --    1.55597   1.56854   1.58016   1.60680   1.61978
 Alpha virt. eigenvalues --    1.65323   1.73107   1.96449   1.97651   2.29238
 Alpha virt. eigenvalues --    2.31075   2.55450   2.57465   2.60561   2.62423
 Alpha virt. eigenvalues --    2.69013   2.71141   2.95943   3.06938   3.39582
 Alpha virt. eigenvalues --    3.59953   3.72427   3.97496   4.08588
          Condensed to atoms (all electrons):
              1          2          3          4          5
     1  O    7.683143   0.002242   0.316446   0.000516  -0.005869
     2  H    0.002242   0.377048   0.004371   0.268278  -0.018919
     3  O    0.316446   0.004371   7.674886   0.006826   0.011963
     4  O    0.000516   0.268278   0.006826   8.172379   0.274255
     5  H   -0.005869  -0.018919   0.011963   0.274255   0.372325
 Mulliken atomic charges:
              1
     1  O    0.003522
     2  H    0.366979
     3  O   -0.014493
     4  O   -0.722253
     5  H    0.366245
 Sum of Mulliken atomic charges =   0.00000
 Mulliken charges with hydrogens summed into heavy atoms:
              1
     1  O    0.003522
     3  O   -0.014493
     4  O    0.010971
 Sum of Mulliken charges with hydrogens summed into heavy atoms =   0.00000
 Electronic spatial extent (au):  <R**2>=            240.3614
 Charge=              0.0000 electrons
 Dipole moment (field-independent basis, Debye):
    X=              2.0560    Y=              0.4000    Z=              0.9901  Tot=              2.3168
 Quadrupole moment (field-independent basis, Debye-Ang):
   XX=            -24.0575   YY=            -15.0553   ZZ=            -16.8553
   XY=             -1.1148   XZ=             -0.7009   YZ=             -0.0948
 Traceless Quadrupole moment (field-independent basis, Debye-Ang):
   XX=             -5.4015   YY=              3.6008   ZZ=              1.8007
   XY=             -1.1148   XZ=             -0.7009   YZ=             -0.0948
 Octapole moment (field-independent basis, Debye-Ang**2):
  XXX=             18.2281  YYY=              0.6111  ZZZ=              0.5369  XYY=             -2.6588
  XXY=              2.3157  XXZ=              2.4317  XZZ=              3.2291  YZZ=              0.0620
  YYZ=              0.6276  XYZ=              0.1554
 Hexadecapole moment (field-independent basis, Debye-Ang**3):
 XXXX=           -258.2627 YYYY=            -35.0069 ZZZZ=            -14.1394 XXXY=             -5.1541
 XXXZ=              1.0238 YYYX=             -1.6752 YYYZ=              0.0657 ZZZX=             -0.4362
 ZZZY=             -0.0801 XXYY=            -38.5320 XXZZ=            -39.5773 YYZZ=             -8.1737
 XXYZ=             -0.0768 YYXZ=             -0.3250 ZZXY=             -0.2466
 N-N= 6.695867657033D+01 E-N=-6.682579648604D+02  KE= 2.247885656329D+02


 GROWING OLD ISN'T SO BAD -- WHEN YOU CONSIDER THE ALTERNATIVE.

                     -- MAURICE CHEVALIER
 Error termination request processed by link 9999.
 Error termination via Lnk1e in C:\G09W\l9999.exe at Mon Feb 08 05:31:30 2021.
 Job cpu time:  0 days  0 hours  2 minutes  8.0 seconds.
 File lengths (MBytes):  RWF=      6 Int=      0 D2E=      0 Chk=      1 Scr=      1
