 Entering Link 1 = C:\G09W\l1.exe PID=     13616.
  
 Copyright (c) 1988,1990,1992,1993,1995,1998,2003,2009, Gaussian, Inc.
                  All Rights Reserved.
  
 This is part of the Gaussian(R) 09 program.  It is based on
 the Gaussian(R) 03 system (copyright 2003, Gaussian, Inc.),
 the Gaussian(R) 98 system (copyright 1998, Gaussian, Inc.),
 the Gaussian(R) 94 system (copyright 1995, Gaussian, Inc.),
 the Gaussian 92(TM) system (copyright 1992, Gaussian, Inc.),
 the Gaussian 90(TM) system (copyright 1990, Gaussian, Inc.),
 the Gaussian 88(TM) system (copyright 1988, Gaussian, Inc.),
 the Gaussian 86(TM) system (copyright 1986, Carnegie Mellon
 University), and the Gaussian 82(TM) system (copyright 1983,
 Carnegie Mellon University). Gaussian is a federally registered
 trademark of Gaussian, Inc.
  
 This software contains proprietary and confidential information,
 including trade secrets, belonging to Gaussian, Inc.
  
 This software is provided under written license and may be
 used, copied, transmitted, or stored only in accord with that
 written license.
  
 The following legend is applicable only to US Government
 contracts under FAR:
  
                    RESTRICTED RIGHTS LEGEND
  
 Use, reproduction and disclosure by the US Government is
 subject to restrictions as set forth in subparagraphs (a)
 and (c) of the Commercial Computer Software - Restricted
 Rights clause in FAR 52.227-19.
  
 Gaussian, Inc.
 340 Quinnipiac St., Bldg. 40, Wallingford CT 06492
  
  
 ---------------------------------------------------------------
 Warning -- This program may not be used in any manner that
 competes with the business of Gaussian, Inc. or will provide
 assistance to any competitor of Gaussian, Inc.  The licensee
 of this program is prohibited from giving any competitor of
 Gaussian, Inc. access to this program.  By using this program,
 the user acknowledges that Gaussian, Inc. is engaged in the
 business of creating and licensing software in the field of
 computational chemistry and represents and warrants to the
 licensee that it is not a competitor of Gaussian, Inc. and that
 it will not use this program in any manner prohibited above.
 ---------------------------------------------------------------
  

 Cite this work as:
 Gaussian 09, Revision A.02,
 M. J. Frisch, G. W. Trucks, H. B. Schlegel, G. E. Scuseria, 
 M. A. Robb, J. R. Cheeseman, G. Scalmani, V. Barone, B. Mennucci, 
 G. A. Petersson, H. Nakatsuji, M. Caricato, X. Li, H. P. Hratchian, 
 A. F. Izmaylov, J. Bloino, G. Zheng, J. L. Sonnenberg, M. Hada, 
 M. Ehara, K. Toyota, R. Fukuda, J. Hasegawa, M. Ishida, T. Nakajima, 
 Y. Honda, O. Kitao, H. Nakai, T. Vreven, J. A. Montgomery, Jr., 
 J. E. Peralta, F. Ogliaro, M. Bearpark, J. J. Heyd, E. Brothers, 
 K. N. Kudin, V. N. Staroverov, R. Kobayashi, J. Normand, 
 K. Raghavachari, A. Rendell, J. C. Burant, S. S. Iyengar, J. Tomasi, 
 M. Cossi, N. Rega, J. M. Millam, M. Klene, J. E. Knox, J. B. Cross, 
 V. Bakken, C. Adamo, J. Jaramillo, R. Gomperts, R. E. Stratmann, 
 O. Yazyev, A. J. Austin, R. Cammi, C. Pomelli, J. W. Ochterski, 
 R. L. Martin, K. Morokuma, V. G. Zakrzewski, G. A. Voth, 
 P. Salvador, J. J. Dannenberg, S. Dapprich, A. D. Daniels, 
 O. Farkas, J. B. Foresman, J. V. Ortiz, J. Cioslowski, 
 and D. J. Fox, Gaussian, Inc., Wallingford CT, 2009.
 
 ******************************************
 Gaussian 09:  IA32W-G09RevA.02 11-Jun-2009
                06-Feb-2021 
 ******************************************
 %mem=1500MB
 %nproc=4
 Will use up to    4 processors via shared memory.
 ------------------------------------
 # opt freq=noraman 6-31+g(d,p) m062x
 ------------------------------------
 1/14=-1,18=20,19=15,26=3,38=1/1,3;
 2/9=110,12=2,17=6,18=5,40=1/2;
 3/5=1,6=6,7=111,11=2,16=1,25=1,30=1,71=1,74=-55/1,2,3;
 4//1;
 5/5=2,38=5/2;
 6/7=2,8=2,9=2,10=2,28=1/1;
 7//1,2,3,16;
 1/14=-1,18=20,19=15/3(2);
 2/9=110/2;
 99//99;
 2/9=110/2;
 3/5=1,6=6,7=111,11=2,16=1,25=1,30=1,71=1,74=-55/1,2,3;
 4/5=5,16=3/1;
 5/5=2,38=5/2;
 7//1,2,3,16;
 1/14=-1,18=20,19=15/3(-5);
 2/9=110/2;
 6/7=2,8=2,9=2,10=2,19=2,28=1/1;
 99/9=1/99;
 --------------------------------------
 Hydrogen peroxide gas phase with m062x
 --------------------------------------
 Symbolic Z-matrix:
 Charge =  0 Multiplicity = 1
 O                    -0.65177  -0.0075    0. 
 H                    -0.97222  -0.0075   -0.90494 
 O                     0.66823  -0.0075    0. 
 H                     0.98823   0.8976    0. 
 

 GradGradGradGradGradGradGradGradGradGradGradGradGradGradGradGradGradGrad
 Berny optimization.
 Initialization pass.
                           ----------------------------
                           !    Initial Parameters    !
                           ! (Angstroms and Degrees)  !
 --------------------------                            --------------------------
 ! Name  Definition              Value          Derivative Info.                !
 --------------------------------------------------------------------------------
 ! R1    R(1,2)                  0.96           estimate D2E/DX2                !
 ! R2    R(1,3)                  1.32           estimate D2E/DX2                !
 ! R3    R(3,4)                  0.96           estimate D2E/DX2                !
 ! A1    A(2,1,3)              109.5            estimate D2E/DX2                !
 ! A2    A(1,3,4)              109.4712         estimate D2E/DX2                !
 ! D1    D(2,1,3,4)             90.0            estimate D2E/DX2                !
 --------------------------------------------------------------------------------
 Trust Radius=3.00D-01 FncErr=1.00D-07 GrdErr=1.00D-06
 Number of steps in this run=  20 maximum allowed number of steps= 100.
 GradGradGradGradGradGradGradGradGradGradGradGradGradGradGradGradGradGrad

                          Input orientation:                          
 ---------------------------------------------------------------------
 Center     Atomic      Atomic             Coordinates (Angstroms)
 Number     Number       Type             X           Y           Z
 ---------------------------------------------------------------------
      1          8           0       -0.651768   -0.007500    0.000000
      2          1           0       -0.972222   -0.007500   -0.904936
      3          8           0        0.668232   -0.007500    0.000000
      4          1           0        0.988232    0.897597    0.000000
 ---------------------------------------------------------------------
                    Distance matrix (angstroms):
                    1          2          3          4
     1  O    0.000000
     2  H    0.960000   0.000000
     3  O    1.320000   1.873499   0.000000
     4  H    1.873179   2.341258   0.960000   0.000000
 Stoichiometry    H2O2
 Framework group  C1[X(H2O2)]
 Deg. of freedom     6
 Full point group                 C1      NOp   1
 Largest Abelian subgroup         C1      NOp   1
 Largest concise Abelian subgroup C1      NOp   1
                         Standard orientation:                         
 ---------------------------------------------------------------------
 Center     Atomic      Atomic             Coordinates (Angstroms)
 Number     Number       Type             X           Y           Z
 ---------------------------------------------------------------------
      1          8           0        0.652496   -0.070957   -0.099179
      2          1           0        1.065386    0.567994    0.486367
      3          8           0       -0.652546   -0.071252    0.098973
      4          1           0       -1.064985    0.569682   -0.484720
 ---------------------------------------------------------------------
 Rotational constants (GHZ):    337.7108214     30.2677234     30.1654926
 Standard basis: 6-31+G(d,p) (6D, 7F)
 There are    48 symmetry adapted basis functions of A   symmetry.
 Integral buffers will be    262144 words long.
 Raffenetti 2 integral format.
 Two-electron integral symmetry is turned on.
    48 basis functions,    78 primitive gaussians,    48 cartesian basis functions
     9 alpha electrons        9 beta electrons
       nuclear repulsion energy        39.2223681676 Hartrees.
 NAtoms=    4 NActive=    4 NUniq=    4 SFac= 7.50D-01 NAtFMM=   80 NAOKFM=F Big=F
 One-electron integrals computed using PRISM.
 NBasis=    48 RedAO= T  NBF=    48
 NBsUse=    48 1.00D-06 NBFU=    48
 Harris functional with IExCor= 1009 diagonalized for initial guess.
 ExpMin= 8.45D-02 ExpMax= 5.48D+03 ExpMxC= 8.25D+02 IAcc=2 IRadAn=         0 AccDes= 0.00D+00
 HarFok:  IExCor= 1009 AccDes= 0.00D+00 IRadAn=         0 IDoV= 1
 ScaDFX=  1.000000  1.000000  1.000000  1.000000
 FoFCou: FMM=F IPFlag=           0 FMFlag=      100000 FMFlg1=           0
         NFxFlg=           0 DoJE=T BraDBF=F KetDBF=T FulRan=T
         Omega=  0.000000  0.000000  1.000000  0.000000  0.000000 ICntrl=     500 IOpCl=  0
         NMat0=    1 NMatS0=    1 NMatT0=    0 NMatD0=    1 NMtDS0=    0 NMtDT0=    0
         I1Cent=           4 NGrid=           0.
 Petite list used in FoFCou.
 Initial guess orbital symmetries:
       Occupied  (A) (A) (A) (A) (A) (A) (A) (A) (A)
       Virtual   (A) (A) (A) (A) (A) (A) (A) (A) (A) (A) (A) (A)
                 (A) (A) (A) (A) (A) (A) (A) (A) (A) (A) (A) (A)
                 (A) (A) (A) (A) (A) (A) (A) (A) (A) (A) (A) (A)
                 (A) (A) (A)
 The electronic state of the initial guess is 1-A.
 Requested convergence on RMS density matrix=1.00D-08 within 128 cycles.
 Requested convergence on MAX density matrix=1.00D-06.
 Requested convergence on             energy=1.00D-06.
 No special actions if energy rises.
 Keep R1 ints in memory in canonical form, NReq=1615255.
 Integral accuracy reduced to 1.0D-05 until final iterations.
 Initial convergence to 1.0D-05 achieved.  Increase integral accuracy.
 SCF Done:  E(RM062X) =  -151.478986596     A.U. after   13 cycles
             Convg  =    0.3109D-08             -V/T =  2.0065

 **********************************************************************

            Population analysis using the SCF density.

 **********************************************************************

 Orbital symmetries:
       Occupied  (A) (A) (A) (A) (A) (A) (A) (A) (A)
       Virtual   (A) (A) (A) (A) (A) (A) (A) (A) (A) (A) (A) (A)
                 (A) (A) (A) (A) (A) (A) (A) (A) (A) (A) (A) (A)
                 (A) (A) (A) (A) (A) (A) (A) (A) (A) (A) (A) (A)
                 (A) (A) (A)
 The electronic state is 1-A.
 Alpha  occ. eigenvalues --  -19.70504 -19.70479  -1.31443  -1.00498  -0.67566
 Alpha  occ. eigenvalues --   -0.58204  -0.53331  -0.37292  -0.36841
 Alpha virt. eigenvalues --    0.07122   0.07271   0.14969   0.16494   0.20495
 Alpha virt. eigenvalues --    0.21490   0.22172   0.24648   0.26482   0.32874
 Alpha virt. eigenvalues --    0.34689   0.98328   1.04409   1.07342   1.14343
 Alpha virt. eigenvalues --    1.14953   1.18183   1.24919   1.26091   1.27396
 Alpha virt. eigenvalues --    1.49686   1.52065   1.60951   1.65494   1.72436
 Alpha virt. eigenvalues --    2.15758   2.20588   2.27056   2.43401   2.56068
 Alpha virt. eigenvalues --    2.59380   2.75668   2.94788   2.96242   3.03632
 Alpha virt. eigenvalues --    3.38437   3.48111   3.89290   4.25360
          Condensed to atoms (all electrons):
              1          2          3          4
     1  O    8.057613   0.254163   0.097379  -0.043096
     2  H    0.254163   0.425157  -0.043049  -0.002295
     3  O    0.097379  -0.043049   8.057448   0.254201
     4  H   -0.043096  -0.002295   0.254201   0.425176
 Mulliken atomic charges:
              1
     1  O   -0.366059
     2  H    0.366024
     3  O   -0.365978
     4  H    0.366014
 Sum of Mulliken atomic charges =   0.00000
 Mulliken charges with hydrogens summed into heavy atoms:
              1
     1  O   -0.000036
     3  O    0.000036
 Sum of Mulliken charges with hydrogens summed into heavy atoms =   0.00000
 Electronic spatial extent (au):  <R**2>=             61.7436
 Charge=              0.0000 electrons
 Dipole moment (field-independent basis, Debye):
    X=              0.0005    Y=              2.4917    Z=              0.0038  Tot=              2.4918
 Quadrupole moment (field-independent basis, Debye-Ang):
   XX=            -10.0811   YY=            -11.1764   ZZ=            -11.6519
   XY=             -0.0040   XZ=              2.7885   YZ=              0.0003
 Traceless Quadrupole moment (field-independent basis, Debye-Ang):
   XX=              0.8887   YY=             -0.2066   ZZ=             -0.6821
   XY=             -0.0040   XZ=              2.7885   YZ=              0.0003
 Octapole moment (field-independent basis, Debye-Ang**2):
  XXX=              0.0030  YYY=              1.9576  ZZZ=              0.0037  XYY=             -0.0050
  XXY=              3.5775  XXZ=              0.0062  XZZ=              0.0045  YZZ=              0.8290
  YYZ=              0.0002  XYZ=              1.4904
 Hexadecapole moment (field-independent basis, Debye-Ang**3):
 XXXX=            -38.1468 YYYY=            -11.3824 ZZZZ=            -11.7364 XXXY=             -0.0047
 XXXZ=              4.0341 YYYX=             -0.0058 YYYZ=             -0.0013 ZZZX=              2.3050
 ZZZY=              0.0015 XXYY=             -8.5305 XXZZ=             -8.9378 YYZZ=             -3.5605
 XXYZ=              0.0008 YYXZ=              1.2403 ZZXY=              0.0002
 N-N= 3.922236816757D+01 E-N=-4.362669368795D+02  KE= 1.504993217697D+02
 Calling FoFJK, ICntrl=      2127 FMM=F ISym2X=0 I1Cent= 0 IOpClX= 0 NMat=1 NMatS=1 NMatT=0.
 ***** Axes restored to original set *****
 -------------------------------------------------------------------
 Center     Atomic                   Forces (Hartrees/Bohr)
 Number     Number              X              Y              Z
 -------------------------------------------------------------------
      1        8          -0.081803778    0.009119625    0.018429853
      2        1           0.005728007   -0.002032140   -0.011296964
      3        8           0.081753037   -0.018354351   -0.009160699
      4        1          -0.005677266    0.011266865    0.002027809
 -------------------------------------------------------------------
 Cartesian Forces:  Max     0.081803778 RMS     0.034817251

 GradGradGradGradGradGradGradGradGradGradGradGradGradGradGradGradGradGrad
 Berny optimization.
 Internal  Forces:  Max     0.076085383 RMS     0.032917890
 Search for a local minimum.
 Step number   1 out of a maximum of   20
 All quantities printed in internal units (Hartrees-Bohrs-Radians)
 Mixed Optimization -- RFO/linear search
 Second derivative matrix not updated -- first step.
 The second derivative matrix:
                          R1        R2        R3        A1        A2
           R1           0.55473
           R2           0.00000   0.61931
           R3           0.00000   0.00000   0.55473
           A1           0.00000   0.00000   0.00000   0.16000
           A2           0.00000   0.00000   0.00000   0.00000   0.16000
           D1           0.00000   0.00000   0.00000   0.00000   0.00000
                          D1
           D1           0.02353
     Eigenvalues ---    0.02353   0.16000   0.16000   0.55473   0.55473
     Eigenvalues ---    0.61931
 RFO step:  Lambda=-1.29226835D-02 EMin= 2.35305152D-02
 Linear search not attempted -- first point.
 Iteration  1 RMS(Cart)=  0.05544617 RMS(Int)=  0.00481213
 Iteration  2 RMS(Cart)=  0.00405093 RMS(Int)=  0.00001380
 Iteration  3 RMS(Cart)=  0.00000966 RMS(Int)=  0.00000000
 Iteration  4 RMS(Cart)=  0.00000000 RMS(Int)=  0.00000000
 Variable       Old X    -DE/DX   Delta X   Delta X   Delta X     New X
                                 (Linear)    (Quad)   (Total)
    R1        1.81414   0.00873   0.00000   0.01538   0.01538   1.82952
    R2        2.49444   0.07609   0.00000   0.12034   0.12034   2.61478
    R3        1.81414   0.00872   0.00000   0.01537   0.01537   1.82950
    A1        1.91114  -0.01661   0.00000  -0.09607  -0.09607   1.81506
    A2        1.91063  -0.01650   0.00000  -0.09543  -0.09543   1.81521
    D1        1.57080   0.00345   0.00000   0.09475   0.09475   1.66555
         Item               Value     Threshold  Converged?
 Maximum Force            0.076085     0.000450     NO 
 RMS     Force            0.032918     0.000300     NO 
 Maximum Displacement     0.058802     0.001800     NO 
 RMS     Displacement     0.056383     0.001200     NO 
 Predicted change in Energy=-6.734454D-03
 GradGradGradGradGradGradGradGradGradGradGradGradGradGradGradGradGradGrad

                          Input orientation:                          
 ---------------------------------------------------------------------
 Center     Atomic      Atomic             Coordinates (Angstroms)
 Number     Number       Type             X           Y           Z
 ---------------------------------------------------------------------
      1          8           0       -0.682884    0.019139    0.021194
      2          1           0       -0.950804   -0.016596   -0.908448
      3          8           0        0.699144   -0.028545   -0.026777
      4          1           0        0.967019    0.901098    0.009095
 ---------------------------------------------------------------------
                    Distance matrix (angstroms):
                    1          2          3          4
     1  O    0.000000
     2  H    0.968139   0.000000
     3  O    1.383683   1.870780   0.000000
     4  H    1.870876   2.315619   0.968132   0.000000
 Stoichiometry    H2O2
 Framework group  C1[X(H2O2)]
 Deg. of freedom     6
 Full point group                 C1      NOp   1
 Largest Abelian subgroup         C1      NOp   1
 Largest concise Abelian subgroup C1      NOp   1
                         Standard orientation:                         
 ---------------------------------------------------------------------
 Center     Atomic      Atomic             Coordinates (Angstroms)
 Number     Number       Type             X           Y           Z
 ---------------------------------------------------------------------
      1          8           0       -0.684229   -0.102453   -0.070153
      2          1           0       -1.018650    0.550637    0.561455
      3          8           0        0.684213    0.102351   -0.070300
      4          1           0        1.018770   -0.549823    0.562171
 ---------------------------------------------------------------------
 Rotational constants (GHZ):    310.6407748     28.2305654     28.0551260
 Standard basis: 6-31+G(d,p) (6D, 7F)
 There are    48 symmetry adapted basis functions of A   symmetry.
 Integral buffers will be    262144 words long.
 Raffenetti 2 integral format.
 Two-electron integral symmetry is turned on.
    48 basis functions,    78 primitive gaussians,    48 cartesian basis functions
     9 alpha electrons        9 beta electrons
       nuclear repulsion energy        37.9759783740 Hartrees.
 NAtoms=    4 NActive=    4 NUniq=    4 SFac= 7.50D-01 NAtFMM=   80 NAOKFM=F Big=F
 One-electron integrals computed using PRISM.
 NBasis=    48 RedAO= T  NBF=    48
 NBsUse=    48 1.00D-06 NBFU=    48
 Initial guess read from the read-write file.
 B after Tr=     0.000000    0.000000    0.000000
         Rot=    1.000000    0.000000    0.000000    0.000000 Ang=   0.00 deg.
 Initial guess orbital symmetries:
       Occupied  (A) (A) (A) (A) (A) (A) (A) (A) (A)
       Virtual   (A) (A) (A) (A) (A) (A) (A) (A) (A) (A) (A) (A)
                 (A) (A) (A) (A) (A) (A) (A) (A) (A) (A) (A) (A)
                 (A) (A) (A) (A) (A) (A) (A) (A) (A) (A) (A) (A)
                 (A) (A) (A)
 Harris functional with IExCor= 1009 diagonalized for initial guess.
 ExpMin= 8.45D-02 ExpMax= 5.48D+03 ExpMxC= 8.25D+02 IAcc=2 IRadAn=         0 AccDes= 0.00D+00
 HarFok:  IExCor= 1009 AccDes= 0.00D+00 IRadAn=         0 IDoV= 1
 ScaDFX=  1.000000  1.000000  1.000000  1.000000
 FoFCou: FMM=F IPFlag=           0 FMFlag=      100000 FMFlg1=           0
         NFxFlg=           0 DoJE=T BraDBF=F KetDBF=T FulRan=T
         Omega=  0.000000  0.000000  1.000000  0.000000  0.000000 ICntrl=     500 IOpCl=  0
         NMat0=    1 NMatS0=    1 NMatT0=    0 NMatD0=    1 NMtDS0=    0 NMtDT0=    0
         I1Cent=           4 NGrid=           0.
 Petite list used in FoFCou.
 Requested convergence on RMS density matrix=1.00D-08 within 128 cycles.
 Requested convergence on MAX density matrix=1.00D-06.
 Requested convergence on             energy=1.00D-06.
 No special actions if energy rises.
 Keep R1 ints in memory in canonical form, NReq=1615255.
 Integral accuracy reduced to 1.0D-05 until final iterations.
 Initial convergence to 1.0D-05 achieved.  Increase integral accuracy.
 SCF Done:  E(RM062X) =  -151.487213507     A.U. after   15 cycles
             Convg  =    0.3619D-08             -V/T =  2.0076
 Calling FoFJK, ICntrl=      2127 FMM=F ISym2X=0 I1Cent= 0 IOpClX= 0 NMat=1 NMatS=1 NMatT=0.
 ***** Axes restored to original set *****
 -------------------------------------------------------------------
 Center     Atomic                   Forces (Hartrees/Bohr)
 Number     Number              X              Y              Z
 -------------------------------------------------------------------
      1        8          -0.027305963    0.004382361    0.002292370
      2        1           0.001224172   -0.002218280   -0.000134978
      3        8           0.027320759   -0.002311509   -0.004375236
      4        1          -0.001238969    0.000147429    0.002217844
 -------------------------------------------------------------------
 Cartesian Forces:  Max     0.027320759 RMS     0.011379435

 GradGradGradGradGradGradGradGradGradGradGradGradGradGradGradGradGradGrad
 Berny optimization.
 Using GEDIIS/GDIIS optimizer.
 Internal  Forces:  Max     0.026222208 RMS     0.010904004
 Search for a local minimum.
 Step number   2 out of a maximum of   20
 All quantities printed in internal units (Hartrees-Bohrs-Radians)
 Mixed Optimization -- RFO/linear search
 Update second derivatives using D2CorX and points    1    2
 DE= -8.23D-03 DEPred=-6.73D-03 R= 1.22D+00
 SS=  1.41D+00  RLast= 2.06D-01 DXNew= 5.0454D-01 6.1678D-01
 Trust test= 1.22D+00 RLast= 2.06D-01 DXMaxT set to 5.05D-01
 The second derivative matrix:
                          R1        R2        R3        A1        A2
           R1           0.55764
           R2          -0.00198   0.44809
           R3           0.00290  -0.00202   0.55762
           A1          -0.00353   0.01317  -0.00352   0.16362
           A2          -0.00346   0.01336  -0.00344   0.00352   0.16341
           D1          -0.00189  -0.01542  -0.00189   0.00334   0.00331
                          D1
           D1           0.02314
 Use linear search instead of GDIIS.
     Eigenvalues ---    0.02237   0.16000   0.16590   0.44978   0.55473
     Eigenvalues ---    0.56076
 RFO step:  Lambda=-1.84793889D-03 EMin= 2.23716221D-02
 Quartic linear search produced a step of  0.56485.
 Iteration  1 RMS(Cart)=  0.07218102 RMS(Int)=  0.04875013
 Iteration  2 RMS(Cart)=  0.04492711 RMS(Int)=  0.00186771
 Iteration  3 RMS(Cart)=  0.00132386 RMS(Int)=  0.00000047
 Iteration  4 RMS(Cart)=  0.00000044 RMS(Int)=  0.00000000
 Variable       Old X    -DE/DX   Delta X   Delta X   Delta X     New X
                                 (Linear)    (Quad)   (Total)
    R1        1.82952  -0.00014   0.00869  -0.00739   0.00130   1.83081
    R2        2.61478   0.02622   0.06798   0.01074   0.07871   2.69349
    R3        1.82950  -0.00013   0.00868  -0.00736   0.00132   1.83082
    A1        1.81506  -0.00235  -0.05427   0.01277  -0.04149   1.77357
    A2        1.81521  -0.00239  -0.05390   0.01220  -0.04170   1.77351
    D1        1.66555   0.00381   0.05352   0.26084   0.31436   1.97990
         Item               Value     Threshold  Converged?
 Maximum Force            0.026222     0.000450     NO 
 RMS     Force            0.010904     0.000300     NO 
 Maximum Displacement     0.136171     0.001800     NO 
 RMS     Displacement     0.114061     0.001200     NO 
 Predicted change in Energy=-1.193723D-03
 GradGradGradGradGradGradGradGradGradGradGradGradGradGradGradGradGradGrad

                          Input orientation:                          
 ---------------------------------------------------------------------
 Center     Atomic      Atomic             Coordinates (Angstroms)
 Number     Number       Type             X           Y           Z
 ---------------------------------------------------------------------
      1          8           0       -0.700680    0.086768    0.010084
      2          1           0       -0.976927   -0.088655   -0.901803
      3          8           0        0.716996   -0.017469   -0.094369
      4          1           0        0.993085    0.894452    0.081152
 ---------------------------------------------------------------------
                    Distance matrix (angstroms):
                    1          2          3          4
     1  O    0.000000
     2  H    0.968826   0.000000
     3  O    1.425335   1.877869   0.000000
     4  H    1.877829   2.411150   0.968830   0.000000
 Stoichiometry    H2O2
 Framework group  C1[X(H2O2)]
 Deg. of freedom     6
 Full point group                 C1      NOp   1
 Largest Abelian subgroup         C1      NOp   1
 Largest concise Abelian subgroup C1      NOp   1
                         Standard orientation:                         
 ---------------------------------------------------------------------
 Center     Atomic      Atomic             Coordinates (Angstroms)
 Number     Number       Type             X           Y           Z
 ---------------------------------------------------------------------
      1          8           0        0.703207    0.115718   -0.057864
      2          1           0        1.024547   -0.635401    0.462889
      3          8           0       -0.703213   -0.115724   -0.057855
      4          1           0       -1.024499    0.635448    0.462864
 ---------------------------------------------------------------------
 Rotational constants (GHZ):    304.9679110     27.2467305     26.3533323
 Standard basis: 6-31+G(d,p) (6D, 7F)
 There are    48 symmetry adapted basis functions of A   symmetry.
 Integral buffers will be    262144 words long.
 Raffenetti 2 integral format.
 Two-electron integral symmetry is turned on.
    48 basis functions,    78 primitive gaussians,    48 cartesian basis functions
     9 alpha electrons        9 beta electrons
       nuclear repulsion energy        37.2284908762 Hartrees.
 NAtoms=    4 NActive=    4 NUniq=    4 SFac= 7.50D-01 NAtFMM=   80 NAOKFM=F Big=F
 One-electron integrals computed using PRISM.
 NBasis=    48 RedAO= T  NBF=    48
 NBsUse=    48 1.00D-06 NBFU=    48
 Initial guess read from the read-write file.
 B after Tr=     0.000000    0.000000    0.000000
         Rot=    1.000000    0.000000    0.000000    0.000000 Ang=   0.00 deg.
 Initial guess orbital symmetries:
       Occupied  (A) (A) (A) (A) (A) (A) (A) (A) (A)
       Virtual   (A) (A) (A) (A) (A) (A) (A) (A) (A) (A) (A) (A)
                 (A) (A) (A) (A) (A) (A) (A) (A) (A) (A) (A) (A)
                 (A) (A) (A) (A) (A) (A) (A) (A) (A) (A) (A) (A)
                 (A) (A) (A)
 Harris functional with IExCor= 1009 diagonalized for initial guess.
 ExpMin= 8.45D-02 ExpMax= 5.48D+03 ExpMxC= 8.25D+02 IAcc=2 IRadAn=         0 AccDes= 0.00D+00
 HarFok:  IExCor= 1009 AccDes= 0.00D+00 IRadAn=         0 IDoV= 1
 ScaDFX=  1.000000  1.000000  1.000000  1.000000
 FoFCou: FMM=F IPFlag=           0 FMFlag=      100000 FMFlg1=           0
         NFxFlg=           0 DoJE=T BraDBF=F KetDBF=T FulRan=T
         Omega=  0.000000  0.000000  1.000000  0.000000  0.000000 ICntrl=     500 IOpCl=  0
         NMat0=    1 NMatS0=    1 NMatT0=    0 NMatD0=    1 NMtDS0=    0 NMtDT0=    0
         I1Cent=           4 NGrid=           0.
 Petite list used in FoFCou.
 Requested convergence on RMS density matrix=1.00D-08 within 128 cycles.
 Requested convergence on MAX density matrix=1.00D-06.
 Requested convergence on             energy=1.00D-06.
 No special actions if energy rises.
 Keep R1 ints in memory in canonical form, NReq=1615255.
 Integral accuracy reduced to 1.0D-05 until final iterations.
 Initial convergence to 1.0D-05 achieved.  Increase integral accuracy.
 SCF Done:  E(RM062X) =  -151.489029040     A.U. after   14 cycles
             Convg  =    0.8111D-08             -V/T =  2.0081
 Calling FoFJK, ICntrl=      2127 FMM=F ISym2X=0 I1Cent= 0 IOpClX= 0 NMat=1 NMatS=1 NMatT=0.
 ***** Axes restored to original set *****
 -------------------------------------------------------------------
 Center     Atomic                   Forces (Hartrees/Bohr)
 Number     Number              X              Y              Z
 -------------------------------------------------------------------
      1        8          -0.000850497    0.000700327   -0.000670518
      2        1           0.000881706   -0.000247482    0.001127000
      3        8           0.000845007    0.000680456   -0.000702368
      4        1          -0.000876216   -0.001133302    0.000245886
 -------------------------------------------------------------------
 Cartesian Forces:  Max     0.001133302 RMS     0.000793470

 GradGradGradGradGradGradGradGradGradGradGradGradGradGradGradGradGradGrad
 Berny optimization.
 Using GEDIIS/GDIIS optimizer.
 Internal  Forces:  Max     0.001285336 RMS     0.000985268
 Search for a local minimum.
 Step number   3 out of a maximum of   20
 All quantities printed in internal units (Hartrees-Bohrs-Radians)
 Mixed Optimization -- En-DIIS/RFO-DIIS
 Update second derivatives using D2CorX and points    1    2    3
 DE= -1.82D-03 DEPred=-1.19D-03 R= 1.52D+00
 SS=  1.41D+00  RLast= 3.29D-01 DXNew= 8.4853D-01 9.8809D-01
 Trust test= 1.52D+00 RLast= 3.29D-01 DXMaxT set to 8.49D-01
 The second derivative matrix:
                          R1        R2        R3        A1        A2
           R1           0.55925
           R2           0.00990   0.48820
           R3           0.00451   0.00991   0.55924
           A1          -0.00369   0.03183  -0.00367   0.15767
           A2          -0.00363   0.03177  -0.00362  -0.00241   0.15751
           D1          -0.00216  -0.03066  -0.00215   0.00826   0.00821
                          D1
           D1           0.01965
 Use linear search instead of GDIIS.
     Eigenvalues ---    0.01608   0.15082   0.16000   0.49348   0.55473
     Eigenvalues ---    0.56640
 RFO step:  Lambda=-4.24325756D-05 EMin= 1.60834467D-02
 Quartic linear search produced a step of  0.11801.
 Iteration  1 RMS(Cart)=  0.02237198 RMS(Int)=  0.00050565
 Iteration  2 RMS(Cart)=  0.00035643 RMS(Int)=  0.00000005
 Iteration  3 RMS(Cart)=  0.00000008 RMS(Int)=  0.00000000
 Variable       Old X    -DE/DX   Delta X   Delta X   Delta X     New X
                                 (Linear)    (Quad)   (Total)
    R1        1.83081  -0.00128   0.00015  -0.00243  -0.00227   1.82854
    R2        2.69349   0.00005   0.00929  -0.00356   0.00573   2.69922
    R3        1.83082  -0.00129   0.00016  -0.00244  -0.00228   1.82854
    A1        1.77357  -0.00100  -0.00490  -0.00635  -0.01125   1.76232
    A2        1.77351  -0.00099  -0.00492  -0.00624  -0.01116   1.76235
    D1        1.97990   0.00074   0.03710   0.02637   0.06347   2.04337
         Item               Value     Threshold  Converged?
 Maximum Force            0.001285     0.000450     NO 
 RMS     Force            0.000985     0.000300     NO 
 Maximum Displacement     0.027874     0.001800     NO 
 RMS     Displacement     0.022451     0.001200     NO 
 Predicted change in Energy=-3.227150D-05
 GradGradGradGradGradGradGradGradGradGradGradGradGradGradGradGradGradGrad

                          Input orientation:                          
 ---------------------------------------------------------------------
 Center     Atomic      Atomic             Coordinates (Angstroms)
 Number     Number       Type             X           Y           Z
 ---------------------------------------------------------------------
      1          8           0       -0.701302    0.101505    0.007203
      2          1           0       -0.977546   -0.102025   -0.897538
      3          8           0        0.717582   -0.014564   -0.109119
      4          1           0        0.993740    0.890180    0.094518
 ---------------------------------------------------------------------
                    Distance matrix (angstroms):
                    1          2          3          4
     1  O    0.000000
     2  H    0.967622   0.000000
     3  O    1.428368   1.871554   0.000000
     4  H    1.871577   2.419632   0.967622   0.000000
 Stoichiometry    H2O2
 Framework group  C1[X(H2O2)]
 Deg. of freedom     6
 Full point group                 C1      NOp   1
 Largest Abelian subgroup         C1      NOp   1
 Largest concise Abelian subgroup C1      NOp   1
                         Standard orientation:                         
 ---------------------------------------------------------------------
 Center     Atomic      Atomic             Coordinates (Angstroms)
 Number     Number       Type             X           Y           Z
 ---------------------------------------------------------------------
      1          8           0       -0.704403   -0.117803   -0.055086
      2          1           0       -1.019724    0.651000    0.440702
      3          8           0        0.704400    0.117801   -0.055090
      4          1           0        1.019750   -0.650983    0.440710
 ---------------------------------------------------------------------
 Rotational constants (GHZ):    304.2742196     27.2615358     26.2304267
 Standard basis: 6-31+G(d,p) (6D, 7F)
 There are    48 symmetry adapted basis functions of A   symmetry.
 Integral buffers will be    262144 words long.
 Raffenetti 2 integral format.
 Two-electron integral symmetry is turned on.
    48 basis functions,    78 primitive gaussians,    48 cartesian basis functions
     9 alpha electrons        9 beta electrons
       nuclear repulsion energy        37.2033008423 Hartrees.
 NAtoms=    4 NActive=    4 NUniq=    4 SFac= 7.50D-01 NAtFMM=   80 NAOKFM=F Big=F
 One-electron integrals computed using PRISM.
 NBasis=    48 RedAO= T  NBF=    48
 NBsUse=    48 1.00D-06 NBFU=    48
 Initial guess read from the read-write file.
 B after Tr=     0.000000    0.000000    0.000000
         Rot=    1.000000    0.000000    0.000000    0.000000 Ang=   0.00 deg.
 Initial guess orbital symmetries:
       Occupied  (A) (A) (A) (A) (A) (A) (A) (A) (A)
       Virtual   (A) (A) (A) (A) (A) (A) (A) (A) (A) (A) (A) (A)
                 (A) (A) (A) (A) (A) (A) (A) (A) (A) (A) (A) (A)
                 (A) (A) (A) (A) (A) (A) (A) (A) (A) (A) (A) (A)
                 (A) (A) (A)
 Harris functional with IExCor= 1009 diagonalized for initial guess.
 ExpMin= 8.45D-02 ExpMax= 5.48D+03 ExpMxC= 8.25D+02 IAcc=2 IRadAn=         0 AccDes= 0.00D+00
 HarFok:  IExCor= 1009 AccDes= 0.00D+00 IRadAn=         0 IDoV= 1
 ScaDFX=  1.000000  1.000000  1.000000  1.000000
 FoFCou: FMM=F IPFlag=           0 FMFlag=      100000 FMFlg1=           0
         NFxFlg=           0 DoJE=T BraDBF=F KetDBF=T FulRan=T
         Omega=  0.000000  0.000000  1.000000  0.000000  0.000000 ICntrl=     500 IOpCl=  0
         NMat0=    1 NMatS0=    1 NMatT0=    0 NMatD0=    1 NMtDS0=    0 NMtDT0=    0
         I1Cent=           4 NGrid=           0.
 Petite list used in FoFCou.
 Requested convergence on RMS density matrix=1.00D-08 within 128 cycles.
 Requested convergence on MAX density matrix=1.00D-06.
 Requested convergence on             energy=1.00D-06.
 No special actions if energy rises.
 Keep R1 ints in memory in canonical form, NReq=1615255.
 Integral accuracy reduced to 1.0D-05 until final iterations.
 Initial convergence to 1.0D-05 achieved.  Increase integral accuracy.
 SCF Done:  E(RM062X) =  -151.489068078     A.U. after   14 cycles
             Convg  =    0.7387D-08             -V/T =  2.0081
 Calling FoFJK, ICntrl=      2127 FMM=F ISym2X=0 I1Cent= 0 IOpClX= 0 NMat=1 NMatS=1 NMatT=0.
 ***** Axes restored to original set *****
 -------------------------------------------------------------------
 Center     Atomic                   Forces (Hartrees/Bohr)
 Number     Number              X              Y              Z
 -------------------------------------------------------------------
      1        8           0.000651072   -0.000330959   -0.000735285
      2        1          -0.000347435   -0.000074716    0.000327703
      3        8          -0.000647646    0.000732559    0.000332594
      4        1           0.000344008   -0.000326884    0.000074989
 -------------------------------------------------------------------
 Cartesian Forces:  Max     0.000735285 RMS     0.000465947

 GradGradGradGradGradGradGradGradGradGradGradGradGradGradGradGradGradGrad
 Berny optimization.
 Using GEDIIS/GDIIS optimizer.
 Internal  Forces:  Max     0.000803884 RMS     0.000510866
 Search for a local minimum.
 Step number   4 out of a maximum of   20
 All quantities printed in internal units (Hartrees-Bohrs-Radians)
 Mixed Optimization -- En-DIIS/RFO-DIIS
 Swaping is turned off.
 Update second derivatives using D2CorX and points    1    2    3    4
 DE= -3.90D-05 DEPred=-3.23D-05 R= 1.21D+00
 SS=  1.41D+00  RLast= 6.57D-02 DXNew= 1.4270D+00 1.9723D-01
 Trust test= 1.21D+00 RLast= 6.57D-02 DXMaxT set to 8.49D-01
 The second derivative matrix:
                          R1        R2        R3        A1        A2
           R1           0.55546
           R2           0.00340   0.47319
           R3           0.00072   0.00340   0.55544
           A1           0.00455   0.02219   0.00461   0.18833
           A2           0.00454   0.02218   0.00460   0.02795   0.18758
           D1           0.00436  -0.02841   0.00438   0.00816   0.00810
                          D1
           D1           0.01297
     Eigenvalues ---    0.01028   0.16000   0.21299   0.47813   0.55473
     Eigenvalues ---    0.55685
 En-DIIS/RFO-DIIS IScMMF=        0 using points:     4    3
 RFO step:  Lambda=-3.56253686D-06.
 DIIS coeffs:      0.98451      0.01549
 Iteration  1 RMS(Cart)=  0.00796063 RMS(Int)=  0.00004967
 Iteration  2 RMS(Cart)=  0.00003753 RMS(Int)=  0.00000000
 Iteration  3 RMS(Cart)=  0.00000000 RMS(Int)=  0.00000000
 Variable       Old X    -DE/DX   Delta X   Delta X   Delta X     New X
                                  (DIIS)     (GDIIS)  (Total)
    R1        1.82854  -0.00021   0.00004  -0.00061  -0.00057   1.82797
    R2        2.69922  -0.00034  -0.00009   0.00019   0.00011   2.69933
    R3        1.82854  -0.00021   0.00004  -0.00061  -0.00057   1.82797
    A1        1.76232   0.00080   0.00017   0.00286   0.00304   1.76536
    A2        1.76235   0.00080   0.00017   0.00285   0.00302   1.76537
    D1        2.04337   0.00028  -0.00098   0.01937   0.01839   2.06176
         Item               Value     Threshold  Converged?
 Maximum Force            0.000804     0.000450     NO 
 RMS     Force            0.000511     0.000300     NO 
 Maximum Displacement     0.009144     0.001800     NO 
 RMS     Displacement     0.007953     0.001200     NO 
 Predicted change in Energy=-5.100064D-06
 GradGradGradGradGradGradGradGradGradGradGradGradGradGradGradGradGradGrad

                          Input orientation:                          
 ---------------------------------------------------------------------
 Center     Atomic      Atomic             Coordinates (Angstroms)
 Number     Number       Type             X           Y           Z
 ---------------------------------------------------------------------
      1          8           0       -0.701280    0.104585    0.004684
      2          1           0       -0.981202   -0.106863   -0.896781
      3          8           0        0.717568   -0.012048   -0.112195
      4          1           0        0.997389    0.889423    0.099357
 ---------------------------------------------------------------------
                    Distance matrix (angstroms):
                    1          2          3          4
     1  O    0.000000
     2  H    0.967319   0.000000
     3  O    1.428424   1.873602   0.000000
     4  H    1.873610   2.428930   0.967318   0.000000
 Stoichiometry    H2O2
 Framework group  C1[X(H2O2)]
 Deg. of freedom     6
 Full point group                 C1      NOp   1
 Largest Abelian subgroup         C1      NOp   1
 Largest concise Abelian subgroup C1      NOp   1
                         Standard orientation:                         
 ---------------------------------------------------------------------
 Center     Atomic      Atomic             Coordinates (Angstroms)
 Number     Number       Type             X           Y           Z
 ---------------------------------------------------------------------
      1          8           0       -0.704284   -0.118676   -0.054208
      2          1           0       -1.023970    0.652998    0.433670
      3          8           0        0.704282    0.118675   -0.054210
      4          1           0        1.023979   -0.652991    0.433674
 ---------------------------------------------------------------------
 Rotational constants (GHZ):    305.0787830     27.2632164     26.1977985
 Standard basis: 6-31+G(d,p) (6D, 7F)
 There are    48 symmetry adapted basis functions of A   symmetry.
 Integral buffers will be    262144 words long.
 Raffenetti 2 integral format.
 Two-electron integral symmetry is turned on.
    48 basis functions,    78 primitive gaussians,    48 cartesian basis functions
     9 alpha electrons        9 beta electrons
       nuclear repulsion energy        37.1993550514 Hartrees.
 NAtoms=    4 NActive=    4 NUniq=    4 SFac= 7.50D-01 NAtFMM=   80 NAOKFM=F Big=F
 One-electron integrals computed using PRISM.
 NBasis=    48 RedAO= T  NBF=    48
 NBsUse=    48 1.00D-06 NBFU=    48
 Initial guess read from the read-write file.
 B after Tr=     0.000000    0.000000    0.000000
         Rot=    1.000000    0.000000    0.000000    0.000000 Ang=   0.00 deg.
 Initial guess orbital symmetries:
       Occupied  (A) (A) (A) (A) (A) (A) (A) (A) (A)
       Virtual   (A) (A) (A) (A) (A) (A) (A) (A) (A) (A) (A) (A)
                 (A) (A) (A) (A) (A) (A) (A) (A) (A) (A) (A) (A)
                 (A) (A) (A) (A) (A) (A) (A) (A) (A) (A) (A) (A)
                 (A) (A) (A)
 Requested convergence on RMS density matrix=1.00D-08 within 128 cycles.
 Requested convergence on MAX density matrix=1.00D-06.
 Requested convergence on             energy=1.00D-06.
 No special actions if energy rises.
 Keep R1 ints in memory in canonical form, NReq=1615255.
 SCF Done:  E(RM062X) =  -151.489072573     A.U. after   10 cycles
             Convg  =    0.1495D-08             -V/T =  2.0081
 Calling FoFJK, ICntrl=      2127 FMM=F ISym2X=0 I1Cent= 0 IOpClX= 0 NMat=1 NMatS=1 NMatT=0.
 ***** Axes restored to original set *****
 -------------------------------------------------------------------
 Center     Atomic                   Forces (Hartrees/Bohr)
 Number     Number              X              Y              Z
 -------------------------------------------------------------------
      1        8           0.000719948    0.000009584    0.000036170
      2        1           0.000098084   -0.000051934   -0.000079306
      3        8          -0.000718895   -0.000037952   -0.000009145
      4        1          -0.000099136    0.000080301    0.000052280
 -------------------------------------------------------------------
 Cartesian Forces:  Max     0.000719948 RMS     0.000299399

 GradGradGradGradGradGradGradGradGradGradGradGradGradGradGradGradGradGrad
 Berny optimization.
 Using GEDIIS/GDIIS optimizer.
 Internal  Forces:  Max     0.000787114 RMS     0.000334026
 Search for a local minimum.
 Step number   5 out of a maximum of   20
 All quantities printed in internal units (Hartrees-Bohrs-Radians)
 Mixed Optimization -- En-DIIS/RFO-DIIS
 Swaping is turned off.
 Update second derivatives using D2CorX and points    1    2    3    4    5
 DE= -4.49D-06 DEPred=-5.10D-06 R= 8.81D-01
 SS=  1.41D+00  RLast= 1.89D-02 DXNew= 1.4270D+00 5.6696D-02
 Trust test= 8.81D-01 RLast= 1.89D-02 DXMaxT set to 8.49D-01
 The second derivative matrix:
                          R1        R2        R3        A1        A2
           R1           0.56058
           R2          -0.01713   0.46041
           R3           0.00586  -0.01719   0.56062
           A1           0.00097   0.07940   0.00098   0.20504
           A2           0.00086   0.07917   0.00087   0.04476   0.20449
           D1           0.00420  -0.00563   0.00421   0.01041   0.01044
                          D1
           D1           0.01144
     Eigenvalues ---    0.01009   0.16000   0.20197   0.50177   0.55473
     Eigenvalues ---    0.57400
 En-DIIS/RFO-DIIS IScMMF=        0 using points:     5    4    3
 RFO step:  Lambda=-9.47220170D-07.
 DIIS coeffs:      0.92360      0.07369      0.00271
 Iteration  1 RMS(Cart)=  0.00065703 RMS(Int)=  0.00000011
 Iteration  2 RMS(Cart)=  0.00000011 RMS(Int)=  0.00000000
 Variable       Old X    -DE/DX   Delta X   Delta X   Delta X     New X
                                  (DIIS)     (GDIIS)  (Total)
    R1        1.82797   0.00003   0.00005  -0.00004   0.00001   1.82797
    R2        2.69933  -0.00079  -0.00002  -0.00165  -0.00167   2.69766
    R3        1.82797   0.00003   0.00005  -0.00004   0.00001   1.82797
    A1        1.76536  -0.00015  -0.00020   0.00011  -0.00010   1.76526
    A2        1.76537  -0.00016  -0.00020   0.00009  -0.00011   1.76526
    D1        2.06176   0.00001  -0.00158   0.00197   0.00039   2.06215
         Item               Value     Threshold  Converged?
 Maximum Force            0.000787     0.000450     NO 
 RMS     Force            0.000334     0.000300     NO 
 Maximum Displacement     0.000878     0.001800     YES
 RMS     Displacement     0.000657     0.001200     YES
 Predicted change in Energy=-6.751942D-07
 GradGradGradGradGradGradGradGradGradGradGradGradGradGradGradGradGradGrad

                          Input orientation:                          
 ---------------------------------------------------------------------
 Center     Atomic      Atomic             Coordinates (Angstroms)
 Number     Number       Type             X           Y           Z
 ---------------------------------------------------------------------
      1          8           0       -0.700816    0.104740    0.004731
      2          1           0       -0.980874   -0.106849   -0.896662
      3          8           0        0.717110   -0.012099   -0.112348
      4          1           0        0.997055    0.889305    0.099343
 ---------------------------------------------------------------------
                    Distance matrix (angstroms):
                    1          2          3          4
     1  O    0.000000
     2  H    0.967322   0.000000
     3  O    1.427540   1.872773   0.000000
     4  H    1.872768   2.428282   0.967322   0.000000
 Stoichiometry    H2O2
 Framework group  C1[X(H2O2)]
 Deg. of freedom     6
 Full point group                 C1      NOp   1
 Largest Abelian subgroup         C1      NOp   1
 Largest concise Abelian subgroup C1      NOp   1
                         Standard orientation:                         
 ---------------------------------------------------------------------
 Center     Atomic      Atomic             Coordinates (Angstroms)
 Number     Number       Type             X           Y           Z
 ---------------------------------------------------------------------
      1          8           0        0.703829    0.118712   -0.054193
      2          1           0        1.023565   -0.653036    0.433541
      3          8           0       -0.703829   -0.118712   -0.054192
      4          1           0       -1.023560    0.653040    0.433540
 ---------------------------------------------------------------------
 Rotational constants (GHZ):    305.0697859     27.2961393     26.2273865
 Standard basis: 6-31+G(d,p) (6D, 7F)
 There are    48 symmetry adapted basis functions of A   symmetry.
 Integral buffers will be    262144 words long.
 Raffenetti 2 integral format.
 Two-electron integral symmetry is turned on.
    48 basis functions,    78 primitive gaussians,    48 cartesian basis functions
     9 alpha electrons        9 beta electrons
       nuclear repulsion energy        37.2160719847 Hartrees.
 NAtoms=    4 NActive=    4 NUniq=    4 SFac= 7.50D-01 NAtFMM=   80 NAOKFM=F Big=F
 One-electron integrals computed using PRISM.
 NBasis=    48 RedAO= T  NBF=    48
 NBsUse=    48 1.00D-06 NBFU=    48
 Initial guess read from the read-write file.
 B after Tr=     0.000000    0.000000    0.000000
         Rot=    1.000000    0.000000    0.000000    0.000000 Ang=   0.00 deg.
 Initial guess orbital symmetries:
       Occupied  (A) (A) (A) (A) (A) (A) (A) (A) (A)
       Virtual   (A) (A) (A) (A) (A) (A) (A) (A) (A) (A) (A) (A)
                 (A) (A) (A) (A) (A) (A) (A) (A) (A) (A) (A) (A)
                 (A) (A) (A) (A) (A) (A) (A) (A) (A) (A) (A) (A)
                 (A) (A) (A)
 Requested convergence on RMS density matrix=1.00D-08 within 128 cycles.
 Requested convergence on MAX density matrix=1.00D-06.
 Requested convergence on             energy=1.00D-06.
 No special actions if energy rises.
 Keep R1 ints in memory in canonical form, NReq=1615255.
 SCF Done:  E(RM062X) =  -151.489073418     A.U. after   13 cycles
             Convg  =    0.1762D-08             -V/T =  2.0080
 Calling FoFJK, ICntrl=      2127 FMM=F ISym2X=0 I1Cent= 0 IOpClX= 0 NMat=1 NMatS=1 NMatT=0.
 ***** Axes restored to original set *****
 -------------------------------------------------------------------
 Center     Atomic                   Forces (Hartrees/Bohr)
 Number     Number              X              Y              Z
 -------------------------------------------------------------------
      1        8           0.000154122   -0.000020610   -0.000009485
      2        1           0.000027883   -0.000036037   -0.000046840
      3        8          -0.000154847    0.000009922    0.000020342
      4        1          -0.000027158    0.000046724    0.000035983
 -------------------------------------------------------------------
 Cartesian Forces:  Max     0.000154847 RMS     0.000069067

 GradGradGradGradGradGradGradGradGradGradGradGradGradGradGradGradGradGrad
 Berny optimization.
 Using GEDIIS/GDIIS optimizer.
 Internal  Forces:  Max     0.000157349 RMS     0.000065484
 Search for a local minimum.
 Step number   6 out of a maximum of   20
 All quantities printed in internal units (Hartrees-Bohrs-Radians)
 Mixed Optimization -- En-DIIS/RFO-DIIS
 Swaping is turned off.
 Update second derivatives using D2CorX and points    1    2    3    4    5
                                                      6
 DE= -8.45D-07 DEPred=-6.75D-07 R= 1.25D+00
 Trust test= 1.25D+00 RLast= 1.72D-03 DXMaxT set to 8.49D-01
 The second derivative matrix:
                          R1        R2        R3        A1        A2
           R1           0.56418
           R2          -0.00541   0.36751
           R3           0.00947  -0.00541   0.56423
           A1           0.00103   0.07283   0.00103   0.20607
           A2           0.00095   0.07336   0.00095   0.04595   0.20584
           D1           0.00423  -0.00218   0.00423   0.01012   0.01007
                          D1
           D1           0.01154
     Eigenvalues ---    0.01042   0.16000   0.19217   0.42801   0.55473
     Eigenvalues ---    0.57404
 En-DIIS/RFO-DIIS IScMMF=        0 using points:     6    5    4    3
 RFO step:  Lambda=-4.26001871D-08.
 DIIS coeffs:      1.26134     -0.24133     -0.02512      0.00511
 Iteration  1 RMS(Cart)=  0.00015472 RMS(Int)=  0.00000002
 Iteration  2 RMS(Cart)=  0.00000001 RMS(Int)=  0.00000000
 Variable       Old X    -DE/DX   Delta X   Delta X   Delta X     New X
                                  (DIIS)     (GDIIS)  (Total)
    R1        1.82797   0.00002   0.00000   0.00003   0.00003   1.82800
    R2        2.69766  -0.00016  -0.00046   0.00000  -0.00046   2.69720
    R3        1.82797   0.00002   0.00000   0.00003   0.00003   1.82800
    A1        1.76526  -0.00001   0.00009  -0.00001   0.00008   1.76534
    A2        1.76526  -0.00001   0.00009   0.00000   0.00009   1.76535
    D1        2.06215   0.00001   0.00015   0.00008   0.00022   2.06238
         Item               Value     Threshold  Converged?
 Maximum Force            0.000157     0.000450     YES
 RMS     Force            0.000065     0.000300     YES
 Maximum Displacement     0.000238     0.001800     YES
 RMS     Displacement     0.000155     0.001200     YES
 Predicted change in Energy=-3.655023D-08
 Optimization completed.
    -- Stationary point found.
                           ----------------------------
                           !   Optimized Parameters   !
                           ! (Angstroms and Degrees)  !
 --------------------------                            --------------------------
 ! Name  Definition              Value          Derivative Info.                !
 --------------------------------------------------------------------------------
 ! R1    R(1,2)                  0.9673         -DE/DX =    0.0                 !
 ! R2    R(1,3)                  1.4275         -DE/DX =   -0.0002              !
 ! R3    R(3,4)                  0.9673         -DE/DX =    0.0                 !
 ! A1    A(2,1,3)              101.1421         -DE/DX =    0.0                 !
 ! A2    A(1,3,4)              101.1417         -DE/DX =    0.0                 !
 ! D1    D(2,1,3,4)            118.1526         -DE/DX =    0.0                 !
 --------------------------------------------------------------------------------
 GradGradGradGradGradGradGradGradGradGradGradGradGradGradGradGradGradGrad

                          Input orientation:                          
 ---------------------------------------------------------------------
 Center     Atomic      Atomic             Coordinates (Angstroms)
 Number     Number       Type             X           Y           Z
 ---------------------------------------------------------------------
      1          8           0       -0.700816    0.104740    0.004731
      2          1           0       -0.980874   -0.106849   -0.896662
      3          8           0        0.717110   -0.012099   -0.112348
      4          1           0        0.997055    0.889305    0.099343
 ---------------------------------------------------------------------
                    Distance matrix (angstroms):
                    1          2          3          4
     1  O    0.000000
     2  H    0.967322   0.000000
     3  O    1.427540   1.872773   0.000000
     4  H    1.872768   2.428282   0.967322   0.000000
 Stoichiometry    H2O2
 Framework group  C1[X(H2O2)]
 Deg. of freedom     6
 Full point group                 C1      NOp   1
 Largest Abelian subgroup         C1      NOp   1
 Largest concise Abelian subgroup C1      NOp   1
                         Standard orientation:                         
 ---------------------------------------------------------------------
 Center     Atomic      Atomic             Coordinates (Angstroms)
 Number     Number       Type             X           Y           Z
 ---------------------------------------------------------------------
      1          8           0        0.703829    0.118712   -0.054193
      2          1           0        1.023565   -0.653036    0.433541
      3          8           0       -0.703829   -0.118712   -0.054192
      4          1           0       -1.023560    0.653040    0.433540
 ---------------------------------------------------------------------
 Rotational constants (GHZ):    305.0697859     27.2961393     26.2273865

 **********************************************************************

            Population analysis using the SCF density.

 **********************************************************************

 Orbital symmetries:
       Occupied  (A) (A) (A) (A) (A) (A) (A) (A) (A)
       Virtual   (A) (A) (A) (A) (A) (A) (A) (A) (A) (A) (A) (A)
                 (A) (A) (A) (A) (A) (A) (A) (A) (A) (A) (A) (A)
                 (A) (A) (A) (A) (A) (A) (A) (A) (A) (A) (A) (A)
                 (A) (A) (A)
 The electronic state is 1-A.
 Alpha  occ. eigenvalues --  -19.71238 -19.71219  -1.26629  -1.01911  -0.61880
 Alpha  occ. eigenvalues --   -0.59182  -0.51432  -0.41204  -0.36652
 Alpha virt. eigenvalues --    0.05341   0.07579   0.13554   0.16680   0.19225
 Alpha virt. eigenvalues --    0.19701   0.21467   0.22256   0.24831   0.31655
 Alpha virt. eigenvalues --    0.34335   0.98663   1.01205   1.09479   1.12899
 Alpha virt. eigenvalues --    1.13984   1.18963   1.24201   1.24813   1.34306
 Alpha virt. eigenvalues --    1.46136   1.50524   1.62347   1.62928   1.69194
 Alpha virt. eigenvalues --    2.06206   2.11194   2.25510   2.42759   2.47840
 Alpha virt. eigenvalues --    2.64259   2.69560   2.75802   2.94700   3.09092
 Alpha virt. eigenvalues --    3.38315   3.46331   3.84812   4.23352
          Condensed to atoms (all electrons):
              1          2          3          4
     1  O    8.036751   0.256002   0.126577  -0.041972
     2  H    0.256002   0.405632  -0.041972   0.002982
     3  O    0.126577  -0.041972   8.036748   0.256002
     4  H   -0.041972   0.002982   0.256002   0.405632
 Mulliken atomic charges:
              1
     1  O   -0.377357
     2  H    0.377356
     3  O   -0.377355
     4  H    0.377356
 Sum of Mulliken atomic charges =   0.00000
 Mulliken charges with hydrogens summed into heavy atoms:
              1
     1  O   -0.000001
     3  O    0.000001
 Sum of Mulliken charges with hydrogens summed into heavy atoms =   0.00000
 Electronic spatial extent (au):  <R**2>=             65.8136
 Charge=              0.0000 electrons
 Dipole moment (field-independent basis, Debye):
    X=              0.0000    Y=              0.0000    Z=              1.8562  Tot=              1.8562
 Quadrupole moment (field-independent basis, Debye-Ang):
   XX=            -10.4525   YY=            -10.6430   ZZ=            -12.0803
   XY=             -3.4560   XZ=              0.0000   YZ=              0.0000
 Traceless Quadrupole moment (field-independent basis, Debye-Ang):
   XX=              0.6061   YY=              0.4156   ZZ=             -1.0216
   XY=             -3.4560   XZ=              0.0000   YZ=              0.0000
 Octapole moment (field-independent basis, Debye-Ang**2):
  XXX=              0.0000  YYY=              0.0000  ZZZ=              1.2403  XYY=              0.0000
  XXY=              0.0000  XXZ=              2.5974  XZZ=              0.0000  YZZ=              0.0000
  YYZ=              0.9298  XYZ=             -1.5635
 Hexadecapole moment (field-independent basis, Debye-Ang**3):
 XXXX=            -42.9617 YYYY=            -11.7484 ZZZZ=            -11.5471 XXXY=             -4.8454
 XXXZ=              0.0000 YYYX=             -3.2583 YYYZ=              0.0000 ZZZX=              0.0000
 ZZZY=              0.0000 XXYY=             -8.7690 XXZZ=            -10.0282 YYZZ=             -3.6329
 XXYZ=              0.0000 YYXZ=              0.0000 ZZXY=             -1.2410
 N-N= 3.721607198468D+01 E-N=-4.321763371714D+02  KE= 1.502803779754D+02
 1|1|UNPC-DESKTOP-319GPER|FOpt|RM062X|6-31+G(d,p)|H2O2|SAGAD|06-Feb-202
 1|0||# opt freq=noraman 6-31+g(d,p) m062x||Hydrogen peroxide gas phase
  with m062x||0,1|O,-0.7008155808,0.1047396682,0.0047308916|H,-0.980874
 4869,-0.1068487282,-0.8966619489|O,0.7171097684,-0.012099032,-0.112347
 6194|H,0.9970552293,0.889304972,0.0993428466||Version=IA32W-G09RevA.02
 |State=1-A|HF=-151.4890734|RMSD=1.762e-009|RMSF=6.907e-005|Dipole=-0.0
 000832,0.5164282,-0.5163445|Quadrupole=0.1887637,-0.0942037,-0.0945599
 ,1.8124741,1.8126233,0.665188|PG=C01 [X(H2O2)]||@


 O WAD SOME POWER THE GIFTIE GIE US       
 TO SEE OURSELS AS OTHERS SEE US.....     
 IT WOULD FRAE MONIE A BLUNDER FREE US,   
                     AND FOOLISH NOTION...
 WHAT AIRS IN DRESS AND GAIT WAD LEA'E US,
                     AND EV'N DEVOTION....
                                          
              (ROBERT BURNS 'TO A LOUSE') 
 Job cpu time:  0 days  0 hours  0 minutes 16.0 seconds.
 File lengths (MBytes):  RWF=      5 Int=      0 D2E=      0 Chk=      1 Scr=      1
 Normal termination of Gaussian 09 at Sat Feb 06 00:32:27 2021.
 Link1:  Proceeding to internal job step number  2.
 ----------------------------------------------------------------------
 #N Geom=AllCheck Guess=TCheck SCRF=Check GenChk RM062X/6-31+G(d,p) Fre
 q
 ----------------------------------------------------------------------
 1/10=4,29=7,30=1,38=1,40=1/1,3;
 2/12=2,40=1/2;
 3/5=1,6=6,7=111,11=2,14=-4,16=1,25=1,30=1,70=2,71=2,74=-55,116=1/1,2,3;
 4/5=101/1;
 5/5=2,98=1/2;
 8/6=4,10=90,11=11/1;
 11/6=1,8=1,9=11,15=111,16=1/1,2,10;
 10/6=1/2;
 6/7=2,8=2,9=2,10=2,18=1,28=1/1;
 7/8=1,10=1,25=1/1,2,3,16;
 1/10=4,30=1/3;
 99//99;
 --------------------------------------
 Hydrogen peroxide gas phase with m062x
 --------------------------------------
 Redundant internal coordinates taken from checkpoint file:
 C:/G09W/Scratch\gxx.chk
 Charge =  0 Multiplicity = 1
 O,0,-0.7008155808,0.1047396682,0.0047308916
 H,0,-0.9808744869,-0.1068487282,-0.8966619489
 O,0,0.7171097684,-0.012099032,-0.1123476194
 H,0,0.9970552293,0.889304972,0.0993428466
 Recover connectivity data from disk.

 GradGradGradGradGradGradGradGradGradGradGradGradGradGradGradGradGradGrad
 Berny optimization.
 Initialization pass.
                           ----------------------------
                           !    Initial Parameters    !
                           ! (Angstroms and Degrees)  !
 --------------------------                            --------------------------
 ! Name  Definition              Value          Derivative Info.                !
 --------------------------------------------------------------------------------
 ! R1    R(1,2)                  0.9673         calculate D2E/DX2 analytically  !
 ! R2    R(1,3)                  1.4275         calculate D2E/DX2 analytically  !
 ! R3    R(3,4)                  0.9673         calculate D2E/DX2 analytically  !
 ! A1    A(2,1,3)              101.1421         calculate D2E/DX2 analytically  !
 ! A2    A(1,3,4)              101.1417         calculate D2E/DX2 analytically  !
 ! D1    D(2,1,3,4)            118.1526         calculate D2E/DX2 analytically  !
 --------------------------------------------------------------------------------
 Trust Radius=3.00D-01 FncErr=1.00D-07 GrdErr=1.00D-07
 Number of steps in this run=   2 maximum allowed number of steps=   2.
 GradGradGradGradGradGradGradGradGradGradGradGradGradGradGradGradGradGrad

                          Input orientation:                          
 ---------------------------------------------------------------------
 Center     Atomic      Atomic             Coordinates (Angstroms)
 Number     Number       Type             X           Y           Z
 ---------------------------------------------------------------------
      1          8           0       -0.700816    0.104740    0.004731
      2          1           0       -0.980874   -0.106849   -0.896662
      3          8           0        0.717110   -0.012099   -0.112348
      4          1           0        0.997055    0.889305    0.099343
 ---------------------------------------------------------------------
                    Distance matrix (angstroms):
                    1          2          3          4
     1  O    0.000000
     2  H    0.967322   0.000000
     3  O    1.427540   1.872773   0.000000
     4  H    1.872768   2.428282   0.967322   0.000000
 Stoichiometry    H2O2
 Framework group  C1[X(H2O2)]
 Deg. of freedom     6
 Full point group                 C1      NOp   1
 Largest Abelian subgroup         C1      NOp   1
 Largest concise Abelian subgroup C1      NOp   1
                         Standard orientation:                         
 ---------------------------------------------------------------------
 Center     Atomic      Atomic             Coordinates (Angstroms)
 Number     Number       Type             X           Y           Z
 ---------------------------------------------------------------------
      1          8           0        0.703829    0.118712   -0.054193
      2          1           0        1.023565   -0.653036    0.433541
      3          8           0       -0.703829   -0.118712   -0.054192
      4          1           0       -1.023560    0.653040    0.433540
 ---------------------------------------------------------------------
 Rotational constants (GHZ):    305.0697859     27.2961393     26.2273865
 Standard basis: 6-31+G(d,p) (6D, 7F)
 There are    48 symmetry adapted basis functions of A   symmetry.
 Integral buffers will be    262144 words long.
 Raffenetti 2 integral format.
 Two-electron integral symmetry is turned on.
    48 basis functions,    78 primitive gaussians,    48 cartesian basis functions
     9 alpha electrons        9 beta electrons
       nuclear repulsion energy        37.2160719847 Hartrees.
 NAtoms=    4 NActive=    4 NUniq=    4 SFac= 7.50D-01 NAtFMM=   80 NAOKFM=F Big=F
 One-electron integrals computed using PRISM.
 NBasis=    48 RedAO= T  NBF=    48
 NBsUse=    48 1.00D-06 NBFU=    48
 Initial guess read from the checkpoint file:  C:/G09W/Scratch\gxx.chk
 B after Tr=     0.000000    0.000000    0.000000
         Rot=    1.000000    0.000000    0.000000    0.000000 Ang=   0.00 deg.
 Initial guess orbital symmetries:
       Occupied  (A) (A) (A) (A) (A) (A) (A) (A) (A)
       Virtual   (A) (A) (A) (A) (A) (A) (A) (A) (A) (A) (A) (A)
                 (A) (A) (A) (A) (A) (A) (A) (A) (A) (A) (A) (A)
                 (A) (A) (A) (A) (A) (A) (A) (A) (A) (A) (A) (A)
                 (A) (A) (A)
 Requested convergence on RMS density matrix=1.00D-08 within 128 cycles.
 Requested convergence on MAX density matrix=1.00D-06.
 Requested convergence on             energy=1.00D-06.
 No special actions if energy rises.
 Keep R1 ints in memory in canonical form, NReq=1615255.
 SCF Done:  E(RM062X) =  -151.489073418     A.U. after    1 cycles
             Convg  =    0.4001D-09             -V/T =  2.0080
 Range of M.O.s used for correlation:     1    48
 NBasis=    48 NAE=     9 NBE=     9 NFC=     0 NFV=     0
 NROrb=     48 NOA=     9 NOB=     9 NVA=    39 NVB=    39

 **** Warning!!: The largest alpha MO coefficient is  0.14228312D+02

 Symmetrizing basis deriv contribution to polar:
 IMax=3 JMax=2 DiffMx= 0.00D+00
 G2DrvN: will do     5 centers at a time, making    1 passes doing MaxLOS=2.
 Calling FoFCou, ICntrl=  3107 FMM=F I1Cent=   0 AccDes= 0.00D+00.
 FoFDir/FoFCou used for L=0 through L=2.
 End of G2Drv Frequency-dependent properties file   721 does not exist.
 End of G2Drv Frequency-dependent properties file   722 does not exist.
          IDoAtm=1111
          Differentiating once with respect to electric field.
                with respect to dipole field.
          Differentiating once with respect to nuclear coordinates.
          Keep R1 ints in memory in canonical form, NReq=1513001.
          There are    15 degrees of freedom in the 1st order CPHF.  IDoFFX=5.
     12 vectors produced by pass  0 Test12= 2.34D-15 6.67D-09 XBig12= 6.01D+00 1.36D+00.
 AX will form    12 AO Fock derivatives at one time.
     12 vectors produced by pass  1 Test12= 2.34D-15 6.67D-09 XBig12= 1.05D+00 3.90D-01.
     12 vectors produced by pass  2 Test12= 2.34D-15 6.67D-09 XBig12= 3.77D-02 6.09D-02.
     12 vectors produced by pass  3 Test12= 2.34D-15 6.67D-09 XBig12= 3.82D-04 4.98D-03.
     12 vectors produced by pass  4 Test12= 2.34D-15 6.67D-09 XBig12= 2.00D-06 3.58D-04.
     12 vectors produced by pass  5 Test12= 2.34D-15 6.67D-09 XBig12= 5.06D-09 2.20D-05.
      6 vectors produced by pass  6 Test12= 2.34D-15 6.67D-09 XBig12= 7.71D-12 7.78D-07.
      3 vectors produced by pass  7 Test12= 2.34D-15 6.67D-09 XBig12= 1.17D-14 2.80D-08.
 Inverted reduced A of dimension    81 with in-core refinement.
 Isotropic polarizability for W=    0.000000       12.01 Bohr**3.
 End of Minotr Frequency-dependent properties file   721 does not exist.
 End of Minotr Frequency-dependent properties file   722 does not exist.

 **********************************************************************

            Population analysis using the SCF density.

 **********************************************************************

 Orbital symmetries:
       Occupied  (A) (A) (A) (A) (A) (A) (A) (A) (A)
       Virtual   (A) (A) (A) (A) (A) (A) (A) (A) (A) (A) (A) (A)
                 (A) (A) (A) (A) (A) (A) (A) (A) (A) (A) (A) (A)
                 (A) (A) (A) (A) (A) (A) (A) (A) (A) (A) (A) (A)
                 (A) (A) (A)
 The electronic state is 1-A.
 Alpha  occ. eigenvalues --  -19.71238 -19.71219  -1.26629  -1.01911  -0.61880
 Alpha  occ. eigenvalues --   -0.59182  -0.51432  -0.41204  -0.36652
 Alpha virt. eigenvalues --    0.05341   0.07579   0.13554   0.16680   0.19225
 Alpha virt. eigenvalues --    0.19701   0.21467   0.22256   0.24831   0.31655
 Alpha virt. eigenvalues --    0.34335   0.98663   1.01205   1.09479   1.12899
 Alpha virt. eigenvalues --    1.13984   1.18963   1.24201   1.24813   1.34306
 Alpha virt. eigenvalues --    1.46136   1.50524   1.62347   1.62928   1.69194
 Alpha virt. eigenvalues --    2.06206   2.11194   2.25510   2.42759   2.47840
 Alpha virt. eigenvalues --    2.64259   2.69560   2.75802   2.94700   3.09092
 Alpha virt. eigenvalues --    3.38315   3.46331   3.84812   4.23352
          Condensed to atoms (all electrons):
              1          2          3          4
     1  O    8.036751   0.256002   0.126577  -0.041972
     2  H    0.256002   0.405632  -0.041972   0.002982
     3  O    0.126577  -0.041972   8.036748   0.256002
     4  H   -0.041972   0.002982   0.256002   0.405632
 Mulliken atomic charges:
              1
     1  O   -0.377357
     2  H    0.377356
     3  O   -0.377355
     4  H    0.377356
 Sum of Mulliken atomic charges =   0.00000
 Mulliken charges with hydrogens summed into heavy atoms:
              1
     1  O   -0.000001
     3  O    0.000001
 Sum of Mulliken charges with hydrogens summed into heavy atoms =   0.00000
 APT atomic charges:
              1
     1  O   -0.282453
     2  H    0.282453
     3  O   -0.282452
     4  H    0.282453
 Sum of APT charges=   0.00000
 APT Atomic charges with hydrogens summed into heavy atoms:
              1
     1  O   -0.000001
     2  H    0.000000
     3  O    0.000001
     4  H    0.000000
 Sum of APT charges=   0.00000
 Electronic spatial extent (au):  <R**2>=             65.8136
 Charge=              0.0000 electrons
 Dipole moment (field-independent basis, Debye):
    X=              0.0000    Y=              0.0000    Z=              1.8562  Tot=              1.8562
 Quadrupole moment (field-independent basis, Debye-Ang):
   XX=            -10.4525   YY=            -10.6430   ZZ=            -12.0803
   XY=             -3.4560   XZ=              0.0000   YZ=              0.0000
 Traceless Quadrupole moment (field-independent basis, Debye-Ang):
   XX=              0.6061   YY=              0.4156   ZZ=             -1.0216
   XY=             -3.4560   XZ=              0.0000   YZ=              0.0000
 Octapole moment (field-independent basis, Debye-Ang**2):
  XXX=              0.0000  YYY=              0.0000  ZZZ=              1.2403  XYY=              0.0000
  XXY=              0.0000  XXZ=              2.5974  XZZ=              0.0000  YZZ=              0.0000
  YYZ=              0.9298  XYZ=             -1.5635
 Hexadecapole moment (field-independent basis, Debye-Ang**3):
 XXXX=            -42.9617 YYYY=            -11.7484 ZZZZ=            -11.5471 XXXY=             -4.8454
 XXXZ=              0.0000 YYYX=             -3.2583 YYYZ=              0.0000 ZZZX=              0.0000
 ZZZY=              0.0000 XXYY=             -8.7690 XXZZ=            -10.0282 YYZZ=             -3.6329
 XXYZ=              0.0000 YYXZ=              0.0000 ZZXY=             -1.2410
 N-N= 3.721607198468D+01 E-N=-4.321763372885D+02  KE= 1.502803780348D+02
  Exact polarizability:  16.087  -0.656  10.359   0.000   0.000   9.577
 Approx polarizability:  16.999  -0.494  11.097   0.000   0.000   9.816
 Calling FoFJK, ICntrl=    100127 FMM=F ISym2X=0 I1Cent= 0 IOpClX= 0 NMat=1 NMatS=1 NMatT=0.
 Full mass-weighted force constant matrix:
 Low frequencies ---   -0.0005    0.0013    0.0017   20.3791   64.6230  189.4367
 Low frequencies ---  429.5133 1039.5703 1347.5548
 Diagonal vibrational polarizability:
        1.5417215       0.1555512      33.9247914
 Harmonic frequencies (cm**-1), IR intensities (KM/Mole), Raman scattering
 activities (A**4/AMU), depolarization ratios for plane and unpolarized
 incident light, reduced masses (AMU), force constants (mDyne/A),
 and normal coordinates:
                     1                      2                      3
                     A                      A                      A
 Frequencies --   429.3547              1039.5698              1347.4558
 Red. masses --     1.0841                14.4095                 1.1028
 Frc consts  --     0.1177                 9.1750                 1.1797
 IR Inten    --   231.9251                 1.2353               103.5490
  Atom  AN      X      Y      Z        X      Y      Z        X      Y      Z
     1   8     0.01   0.03   0.04     0.66   0.12  -0.01    -0.04  -0.01   0.03
     2   1     0.03  -0.36  -0.61    -0.01  -0.04   0.23     0.67   0.22  -0.06
     3   8    -0.01  -0.03   0.04    -0.66  -0.12  -0.01    -0.04  -0.01  -0.03
     4   1    -0.03   0.36  -0.61     0.01   0.04   0.23     0.67   0.22   0.06
                     4                      5                      6
                     A                      A                      A
 Frequencies --  1487.8781              3850.3806              3851.2273
 Red. masses --     1.0940                 1.0672                 1.0697
 Frc consts  --     1.4270                 9.3220                 9.3477
 IR Inten    --     0.1689                89.5104                19.2796
  Atom  AN      X      Y      Z        X      Y      Z        X      Y      Z
     1   8    -0.01   0.05  -0.01    -0.01   0.04  -0.02     0.02  -0.04   0.02
     2   1    -0.68  -0.15   0.09     0.23  -0.56   0.36    -0.23   0.57  -0.35
     3   8     0.01  -0.05  -0.01    -0.01   0.04   0.02    -0.02   0.04   0.02
     4   1     0.68   0.15   0.09     0.23  -0.56  -0.36     0.23  -0.57  -0.35

 -------------------
 - Thermochemistry -
 -------------------
 Temperature   298.150 Kelvin.  Pressure   1.00000 Atm.
 Atom     1 has atomic number  8 and mass  15.99491
 Atom     2 has atomic number  1 and mass   1.00783
 Atom     3 has atomic number  8 and mass  15.99491
 Atom     4 has atomic number  1 and mass   1.00783
 Molecular mass:    34.00548 amu.
 Principal axes and moments of inertia in atomic units:
                           1         2         3
     Eigenvalues --     5.91583  66.11709  68.81132
           X            0.99688  -0.07888   0.00000
           Y            0.07888   0.99688   0.00000
           Z            0.00000   0.00000   1.00000
 This molecule is an asymmetric top.
 Rotational symmetry number  1.
 Rotational temperatures (Kelvin)     14.64102     1.31001     1.25871
 Rotational constants (GHZ):         305.06979    27.29614    26.22739
 Zero-point vibrational energy      71811.0 (Joules/Mol)
                                   17.16325 (Kcal/Mol)
 Warning -- explicit consideration of   1 degrees of freedom as
           vibrations may cause significant error
 Vibrational temperatures:    617.74  1495.71  1938.69  2140.72  5539.83
          (Kelvin)           5541.05
 
 Zero-point correction=                           0.027351 (Hartree/Particle)
 Thermal correction to Energy=                    0.030512
 Thermal correction to Enthalpy=                  0.031456
 Thermal correction to Gibbs Free Energy=         0.005126
 Sum of electronic and zero-point Energies=           -151.461722
 Sum of electronic and thermal Energies=              -151.458562
 Sum of electronic and thermal Enthalpies=            -151.457617
 Sum of electronic and thermal Free Energies=         -151.483947
 
                     E (Thermal)             CV                S
                      KCal/Mol        Cal/Mol-Kelvin    Cal/Mol-Kelvin
 Total                   19.146              7.908             55.416
 Electronic               0.000              0.000              0.000
 Translational            0.889              2.981             36.503
 Rotational               0.889              2.981             17.938
 Vibrational             17.369              1.947              0.975
 Vibration     1          0.791              1.406              0.861
                       Q            Log10(Q)             Ln(Q)
 Total Bot       0.438750D-02         -2.357782         -5.428995
 Total V=0       0.167090D+11         10.222950         23.539213
 Vib (Bot)       0.303108D-12        -12.518402        -28.824686
 Vib (Bot)    1  0.406020D+00         -0.391453         -0.901354
 Vib (V=0)       0.115433D+01          0.062331          0.143521
 Vib (V=0)    1  0.114409D+01          0.058460          0.134610
 Electronic      0.100000D+01          0.000000          0.000000
 Translational   0.779433D+07          6.891779         15.868907
 Rotational      0.185712D+04          3.268841          7.526785
 ***** Axes restored to original set *****
 -------------------------------------------------------------------
 Center     Atomic                   Forces (Hartrees/Bohr)
 Number     Number              X              Y              Z
 -------------------------------------------------------------------
      1        8           0.000154122   -0.000020609   -0.000009483
      2        1           0.000027883   -0.000036037   -0.000046842
      3        8          -0.000154847    0.000009920    0.000020342
      4        1          -0.000027158    0.000046726    0.000035983
 -------------------------------------------------------------------
 Cartesian Forces:  Max     0.000154847 RMS     0.000069068

 GradGradGradGradGradGradGradGradGradGradGradGradGradGradGradGradGradGrad
 Berny optimization.
 Internal  Forces:  Max     0.000157349 RMS     0.000065484
 Search for a local minimum.
 Step number   1 out of a maximum of    2
 All quantities printed in internal units (Hartrees-Bohrs-Radians)
 Second derivative matrix not updated -- analytic derivatives used.
 The second derivative matrix:
                          R1        R2        R3        A1        A2
           R1           0.53197
           R2          -0.00578   0.36891
           R3          -0.00024  -0.00578   0.53197
           A1           0.00023   0.07301  -0.00009   0.23269
           A2          -0.00009   0.07301   0.00024   0.02214   0.23269
           D1           0.00340  -0.00226   0.00340   0.00971   0.00971
                          D1
           D1           0.01208
     Eigenvalues ---    0.01106   0.19476   0.21056   0.42943   0.53221
     Eigenvalues ---    0.53230
 Angle between quadratic step and forces=  30.31 degrees.
 Linear search not attempted -- first point.
 Iteration  1 RMS(Cart)=  0.00015466 RMS(Int)=  0.00000002
 Iteration  2 RMS(Cart)=  0.00000001 RMS(Int)=  0.00000000
 Variable       Old X    -DE/DX   Delta X   Delta X   Delta X     New X
                                 (Linear)    (Quad)   (Total)
    R1        1.82797   0.00002   0.00000   0.00003   0.00003   1.82800
    R2        2.69766  -0.00016   0.00000  -0.00046  -0.00046   2.69720
    R3        1.82797   0.00002   0.00000   0.00003   0.00003   1.82800
    A1        1.76526  -0.00001   0.00000   0.00008   0.00008   1.76534
    A2        1.76526  -0.00001   0.00000   0.00009   0.00009   1.76534
    D1        2.06215   0.00001   0.00000   0.00023   0.00023   2.06238
         Item               Value     Threshold  Converged?
 Maximum Force            0.000157     0.000450     YES
 RMS     Force            0.000065     0.000300     YES
 Maximum Displacement     0.000236     0.001800     YES
 RMS     Displacement     0.000155     0.001200     YES
 Predicted change in Energy=-3.641060D-08
 Optimization completed.
    -- Stationary point found.
                           ----------------------------
                           !   Optimized Parameters   !
                           ! (Angstroms and Degrees)  !
 --------------------------                            --------------------------
 ! Name  Definition              Value          Derivative Info.                !
 --------------------------------------------------------------------------------
 ! R1    R(1,2)                  0.9673         -DE/DX =    0.0                 !
 ! R2    R(1,3)                  1.4275         -DE/DX =   -0.0002              !
 ! R3    R(3,4)                  0.9673         -DE/DX =    0.0                 !
 ! A1    A(2,1,3)              101.1421         -DE/DX =    0.0                 !
 ! A2    A(1,3,4)              101.1417         -DE/DX =    0.0                 !
 ! D1    D(2,1,3,4)            118.1526         -DE/DX =    0.0                 !
 --------------------------------------------------------------------------------
 GradGradGradGradGradGradGradGradGradGradGradGradGradGradGradGradGradGrad

 1|1|UNPC-DESKTOP-319GPER|Freq|RM062X|6-31+G(d,p)|H2O2|SAGAD|06-Feb-202
 1|0||#N Geom=AllCheck Guess=TCheck SCRF=Check GenChk RM062X/6-31+G(d,p
 ) Freq||Hydrogen peroxide gas phase with m062x||0,1|O,-0.7008155808,0.
 1047396682,0.0047308916|H,-0.9808744869,-0.1068487282,-0.8966619489|O,
 0.7171097684,-0.012099032,-0.1123476194|H,0.9970552293,0.889304972,0.0
 993428466||Version=IA32W-G09RevA.02|State=1-A|HF=-151.4890734|RMSD=4.0
 01e-010|RMSF=6.907e-005|ZeroPoint=0.0273514|Thermal=0.0305118|Dipole=-
 0.0000832,0.5164282,-0.5163445|DipoleDeriv=-0.2537992,-0.0180454,-0.01
 46913,0.0550478,-0.4296807,0.0431658,-0.1150759,0.0390072,-0.1638791,0
 .2537888,0.0078096,0.0249327,0.0189385,0.3824943,-0.0443249,0.0411079,
 -0.037873,0.2110744,-0.2537725,-0.0146962,-0.0180811,-0.1150918,-0.163
 9123,0.0390646,0.0549965,0.0432191,-0.4296719,0.253783,0.0249321,0.007
 8398,0.0411055,0.2110988,-0.0379054,0.0189715,-0.0443533,0.3824765|Pol
 ar=16.0049835,0.6681221,10.0090846,0.6672367,0.4320903,10.0090137|PG=C
 01 [X(H2O2)]|NImag=0||0.40183352,0.03148123,0.05957550,0.10698851,0.13
 260373,0.52013375,-0.06762091,-0.01767341,-0.08388554,0.10870305,-0.03
 703051,-0.02999582,-0.11440877,0.02939594,0.03065077,-0.14177052,-0.11
 422098,-0.47800141,0.12478522,0.11082073,0.46610654,-0.29982307,0.0249
 2488,-0.00901093,-0.03439183,0.00980758,0.01461662,0.40180732,-0.00905
 908,-0.04119825,-0.02172829,-0.01409042,-0.00092618,0.00353594,0.10698
 389,0.52012568,0.02496783,-0.02457023,-0.04120867,-0.03872858,0.006178
 02,0.01162414,0.03142355,0.13266630,0.05960896,-0.03438954,-0.03873270
 ,-0.01409204,-0.00669030,-0.00217301,0.00236868,-0.06759242,-0.0838344
 0,-0.01766281,0.10867226,0.01460835,0.01161857,0.00353334,0.00236789,0
 .00027123,-0.00013569,-0.14171635,-0.47800125,-0.11427408,0.12474012,0
 .46611145,0.00981418,0.00618748,-0.00092367,-0.00217110,-0.00258997,0.
 00027074,-0.03702924,-0.11447394,-0.03002443,0.02938616,0.11087644,0.0
 3067736||-0.00015412,0.00002061,0.00000948,-0.00002788,0.00003604,0.00
 004684,0.00015485,-0.00000992,-0.00002034,0.00002716,-0.00004673,-0.00
 003598|||@


 O WAD SOME POWER THE GIFTIE GIE US       
 TO SEE OURSELS AS OTHERS SEE US.....     
 IT WOULD FRAE MONIE A BLUNDER FREE US,   
                     AND FOOLISH NOTION...
 WHAT AIRS IN DRESS AND GAIT WAD LEA'E US,
                     AND EV'N DEVOTION....
                                          
              (ROBERT BURNS 'TO A LOUSE') 
 Job cpu time:  0 days  0 hours  0 minutes  5.0 seconds.
 File lengths (MBytes):  RWF=      5 Int=      0 D2E=      0 Chk=      1 Scr=      1
 Normal termination of Gaussian 09 at Sat Feb 06 00:32:32 2021.
