 Entering Link 1 = C:\G09W\l1.exe PID=     15160.
  
 Copyright (c) 1988,1990,1992,1993,1995,1998,2003,2009, Gaussian, Inc.
                  All Rights Reserved.
  
 This is part of the Gaussian(R) 09 program.  It is based on
 the Gaussian(R) 03 system (copyright 2003, Gaussian, Inc.),
 the Gaussian(R) 98 system (copyright 1998, Gaussian, Inc.),
 the Gaussian(R) 94 system (copyright 1995, Gaussian, Inc.),
 the Gaussian 92(TM) system (copyright 1992, Gaussian, Inc.),
 the Gaussian 90(TM) system (copyright 1990, Gaussian, Inc.),
 the Gaussian 88(TM) system (copyright 1988, Gaussian, Inc.),
 the Gaussian 86(TM) system (copyright 1986, Carnegie Mellon
 University), and the Gaussian 82(TM) system (copyright 1983,
 Carnegie Mellon University). Gaussian is a federally registered
 trademark of Gaussian, Inc.
  
 This software contains proprietary and confidential information,
 including trade secrets, belonging to Gaussian, Inc.
  
 This software is provided under written license and may be
 used, copied, transmitted, or stored only in accord with that
 written license.
  
 The following legend is applicable only to US Government
 contracts under FAR:
  
                    RESTRICTED RIGHTS LEGEND
  
 Use, reproduction and disclosure by the US Government is
 subject to restrictions as set forth in subparagraphs (a)
 and (c) of the Commercial Computer Software - Restricted
 Rights clause in FAR 52.227-19.
  
 Gaussian, Inc.
 340 Quinnipiac St., Bldg. 40, Wallingford CT 06492
  
  
 ---------------------------------------------------------------
 Warning -- This program may not be used in any manner that
 competes with the business of Gaussian, Inc. or will provide
 assistance to any competitor of Gaussian, Inc.  The licensee
 of this program is prohibited from giving any competitor of
 Gaussian, Inc. access to this program.  By using this program,
 the user acknowledges that Gaussian, Inc. is engaged in the
 business of creating and licensing software in the field of
 computational chemistry and represents and warrants to the
 licensee that it is not a competitor of Gaussian, Inc. and that
 it will not use this program in any manner prohibited above.
 ---------------------------------------------------------------
  

 Cite this work as:
 Gaussian 09, Revision A.02,
 M. J. Frisch, G. W. Trucks, H. B. Schlegel, G. E. Scuseria, 
 M. A. Robb, J. R. Cheeseman, G. Scalmani, V. Barone, B. Mennucci, 
 G. A. Petersson, H. Nakatsuji, M. Caricato, X. Li, H. P. Hratchian, 
 A. F. Izmaylov, J. Bloino, G. Zheng, J. L. Sonnenberg, M. Hada, 
 M. Ehara, K. Toyota, R. Fukuda, J. Hasegawa, M. Ishida, T. Nakajima, 
 Y. Honda, O. Kitao, H. Nakai, T. Vreven, J. A. Montgomery, Jr., 
 J. E. Peralta, F. Ogliaro, M. Bearpark, J. J. Heyd, E. Brothers, 
 K. N. Kudin, V. N. Staroverov, R. Kobayashi, J. Normand, 
 K. Raghavachari, A. Rendell, J. C. Burant, S. S. Iyengar, J. Tomasi, 
 M. Cossi, N. Rega, J. M. Millam, M. Klene, J. E. Knox, J. B. Cross, 
 V. Bakken, C. Adamo, J. Jaramillo, R. Gomperts, R. E. Stratmann, 
 O. Yazyev, A. J. Austin, R. Cammi, C. Pomelli, J. W. Ochterski, 
 R. L. Martin, K. Morokuma, V. G. Zakrzewski, G. A. Voth, 
 P. Salvador, J. J. Dannenberg, S. Dapprich, A. D. Daniels, 
 O. Farkas, J. B. Foresman, J. V. Ortiz, J. Cioslowski, 
 and D. J. Fox, Gaussian, Inc., Wallingford CT, 2009.
 
 ******************************************
 Gaussian 09:  IA32W-G09RevA.02 11-Jun-2009
                01-Feb-2021 
 ******************************************
 %chk=D:\Documents\rayGit\FQ\quimicaComputacional\p5Fenol\products\fenoxideM062X.
 chk
 %mem=1500mb
 %nproc=4
 Will use up to    4 processors via shared memory.
 -------------------------------------
 # opt freq scrf=smd 6-31+G(d,p) m062x
 -------------------------------------
 1/14=-1,18=20,19=15,26=3,38=1/1,3;
 2/9=110,12=2,17=6,18=5,40=1/2;
 3/5=1,6=6,7=111,11=2,16=1,25=1,30=1,70=32201,71=1,72=1,74=-55/1,2,3;
 4//1;
 5/5=2,38=5/2;
 6/7=2,8=2,9=2,10=2,28=1/1;
 7//1,2,3,16;
 1/14=-1,18=20,19=15/3(2);
 2/9=110/2;
 99//99;
 2/9=110/2;
 3/5=1,6=6,7=111,11=2,16=1,25=1,30=1,70=32205,71=1,74=-55/1,2,3;
 4/5=5,16=3/1;
 5/5=2,38=5/2;
 7//1,2,3,16;
 1/14=-1,18=20,19=15/3(-5);
 2/9=110/2;
 6/7=2,8=2,9=2,10=2,19=2,28=1/1;
 99/9=1/99;
 --------
 fenoxide
 --------
 Symbolic Z-matrix:
 Charge =  0 Multiplicity = 2
 C                    -0.77587   0.89802   0. 
 C                     0.61929   0.89802   0. 
 C                     1.31683   2.10577   0. 
 C                     0.61918   3.31428  -0.0012 
 C                    -0.77565   3.3142   -0.00168 
 C                    -1.47325   2.10599  -0.00068 
 H                    -1.32562  -0.0543    0.00045 
 H                     1.1688   -0.05449   0.00132 
 H                     1.16938   4.26642  -0.00126 
 H                    -1.32577   4.26648  -0.00263 
 H                    -2.57285   2.10618  -0.00086 
 O                     2.74683   2.10587   0.00082 
 

 GradGradGradGradGradGradGradGradGradGradGradGradGradGradGradGradGradGrad
 Berny optimization.
 Initialization pass.
                           ----------------------------
                           !    Initial Parameters    !
                           ! (Angstroms and Degrees)  !
 --------------------------                            --------------------------
 ! Name  Definition              Value          Derivative Info.                !
 --------------------------------------------------------------------------------
 ! R1    R(1,2)                  1.3952         estimate D2E/DX2                !
 ! R2    R(1,6)                  1.3948         estimate D2E/DX2                !
 ! R3    R(1,7)                  1.0996         estimate D2E/DX2                !
 ! R4    R(2,3)                  1.3947         estimate D2E/DX2                !
 ! R5    R(2,8)                  1.0997         estimate D2E/DX2                !
 ! R6    R(3,4)                  1.3954         estimate D2E/DX2                !
 ! R7    R(3,12)                 1.43           estimate D2E/DX2                !
 ! R8    R(4,5)                  1.3948         estimate D2E/DX2                !
 ! R9    R(4,9)                  1.0997         estimate D2E/DX2                !
 ! R10   R(5,6)                  1.3951         estimate D2E/DX2                !
 ! R11   R(5,10)                 1.0998         estimate D2E/DX2                !
 ! R12   R(6,11)                 1.0996         estimate D2E/DX2                !
 ! A1    A(2,1,6)              119.9985         estimate D2E/DX2                !
 ! A2    A(2,1,7)              119.9972         estimate D2E/DX2                !
 ! A3    A(6,1,7)              120.0043         estimate D2E/DX2                !
 ! A4    A(1,2,3)              120.0086         estimate D2E/DX2                !
 ! A5    A(1,2,8)              119.9808         estimate D2E/DX2                !
 ! A6    A(3,2,8)              120.0106         estimate D2E/DX2                !
 ! A7    A(2,3,4)              119.9942         estimate D2E/DX2                !
 ! A8    A(2,3,12)             120.0128         estimate D2E/DX2                !
 ! A9    A(4,3,12)             119.993          estimate D2E/DX2                !
 ! A10   A(3,4,5)              119.994          estimate D2E/DX2                !
 ! A11   A(3,4,9)              119.9811         estimate D2E/DX2                !
 ! A12   A(5,4,9)              120.0249         estimate D2E/DX2                !
 ! A13   A(4,5,6)              120.0047         estimate D2E/DX2                !
 ! A14   A(4,5,10)             120.0113         estimate D2E/DX2                !
 ! A15   A(6,5,10)             119.984          estimate D2E/DX2                !
 ! A16   A(1,6,5)              120.0            estimate D2E/DX2                !
 ! A17   A(1,6,11)             120.008          estimate D2E/DX2                !
 ! A18   A(5,6,11)             119.992          estimate D2E/DX2                !
 ! D1    D(6,1,2,3)              0.0323         estimate D2E/DX2                !
 ! D2    D(6,1,2,8)            179.9532         estimate D2E/DX2                !
 ! D3    D(7,1,2,3)           -179.9729         estimate D2E/DX2                !
 ! D4    D(7,1,2,8)             -0.052          estimate D2E/DX2                !
 ! D5    D(2,1,6,5)              0.0149         estimate D2E/DX2                !
 ! D6    D(2,1,6,11)           179.9892         estimate D2E/DX2                !
 ! D7    D(7,1,6,5)           -179.9798         estimate D2E/DX2                !
 ! D8    D(7,1,6,11)            -0.0056         estimate D2E/DX2                !
 ! D9    D(1,2,3,4)             -0.0568         estimate D2E/DX2                !
 ! D10   D(1,2,3,12)           179.9619         estimate D2E/DX2                !
 ! D11   D(8,2,3,4)           -179.9777         estimate D2E/DX2                !
 ! D12   D(8,2,3,12)             0.041          estimate D2E/DX2                !
 ! D13   D(2,3,4,5)              0.0341         estimate D2E/DX2                !
 ! D14   D(2,3,4,9)           -179.9964         estimate D2E/DX2                !
 ! D15   D(12,3,4,5)          -179.9846         estimate D2E/DX2                !
 ! D16   D(12,3,4,9)            -0.0151         estimate D2E/DX2                !
 ! D17   D(3,4,5,6)              0.0131         estimate D2E/DX2                !
 ! D18   D(3,4,5,10)          -179.9995         estimate D2E/DX2                !
 ! D19   D(9,4,5,6)           -179.9563         estimate D2E/DX2                !
 ! D20   D(9,4,5,10)             0.0311         estimate D2E/DX2                !
 ! D21   D(4,5,6,1)             -0.0376         estimate D2E/DX2                !
 ! D22   D(4,5,6,11)           179.9881         estimate D2E/DX2                !
 ! D23   D(10,5,6,1)           179.975          estimate D2E/DX2                !
 ! D24   D(10,5,6,11)            0.0007         estimate D2E/DX2                !
 --------------------------------------------------------------------------------
 Trust Radius=3.00D-01 FncErr=1.00D-07 GrdErr=1.00D-06
 Number of steps in this run=  64 maximum allowed number of steps= 100.
 GradGradGradGradGradGradGradGradGradGradGradGradGradGradGradGradGradGrad

                          Input orientation:                          
 ---------------------------------------------------------------------
 Center     Atomic      Atomic             Coordinates (Angstroms)
 Number     Number       Type             X           Y           Z
 ---------------------------------------------------------------------
      1          6           0       -0.775865    0.898019    0.000000
      2          6           0        0.619295    0.898019    0.000000
      3          6           0        1.316833    2.105770    0.000000
      4          6           0        0.619179    3.314279   -0.001199
      5          6           0       -0.775646    3.314201   -0.001678
      6          6           0       -1.473247    2.105995   -0.000682
      7          1           0       -1.325624   -0.054298    0.000450
      8          1           0        1.168803   -0.054494    0.001315
      9          1           0        1.169379    4.266422   -0.001258
     10          1           0       -1.325768    4.266482   -0.002631
     11          1           0       -2.572851    2.106178   -0.000862
     12          8           0        2.746833    2.105874    0.000824
 ---------------------------------------------------------------------
                    Distance matrix (angstroms):
                    1          2          3          4          5
     1  C    0.000000
     2  C    1.395160   0.000000
     3  C    2.416205   1.394712   0.000000
     4  C    2.790065   2.416260   1.395427   0.000000
     5  C    2.416183   2.789946   2.416356   1.394825   0.000000
     6  C    1.394829   2.416183   2.790080   2.416236   1.395138
     7  H    1.099610   2.165553   3.412986   3.889675   3.413102
     8  H    2.165414   1.099655   2.165330   3.413316   3.889601
     9  H    3.889745   3.413024   2.165678   1.099680   2.165606
    10  H    3.413055   3.889707   3.413506   2.165528   1.099761
    11  H    2.165365   3.413128   3.889684   3.412999   2.165471
    12  O    3.724019   2.446494   1.430000   2.446867   3.723965
                    6          7          8          9         10
     6  C    0.000000
     7  H    2.165331   0.000000
     8  H    3.412938   2.494427   0.000000
     9  H    3.413344   4.989355   4.320917   0.000000
    10  H    2.165516   4.320781   4.989362   2.495147   0.000000
    11  H    1.099604   2.494641   4.320704   4.320988   2.494420
    12  O    4.220080   4.609908   2.675326   2.675132   4.610240
                   11         12
    11  H    0.000000
    12  O    5.319684   0.000000
 Stoichiometry    C6H5O(2)
 Framework group  C1[X(C6H5O)]
 Deg. of freedom    30
 Full point group                 C1      NOp   1
 Largest Abelian subgroup         C1      NOp   1
 Largest concise Abelian subgroup C1      NOp   1
                         Standard orientation:                         
 ---------------------------------------------------------------------
 Center     Atomic      Atomic             Coordinates (Angstroms)
 Number     Number       Type             X           Y           Z
 ---------------------------------------------------------------------
      1          6           0        1.107849   -1.208089   -0.000362
      2          6           0       -0.287311   -1.207978   -0.000362
      3          6           0       -0.984754   -0.000172   -0.000362
      4          6           0       -0.287004    1.208282    0.000837
      5          6           0        1.107821    1.208093    0.001316
      6          6           0        1.805326   -0.000168    0.000320
      7          1           0        1.657532   -2.160449   -0.000812
      8          1           0       -0.836895   -2.160448   -0.001677
      9          1           0       -0.837128    2.160468    0.000896
     10          1           0        1.658019    2.160331    0.002269
     11          1           0        2.904930   -0.000072    0.000500
     12          8           0       -2.414753    0.000045   -0.001187
 ---------------------------------------------------------------------
 Rotational constants (GHZ):      5.6865081      2.6503046      1.8077627
 Standard basis: 6-31+G(d,p) (6D, 7F)
 There are   158 symmetry adapted basis functions of A   symmetry.
 Integral buffers will be    262144 words long.
 Raffenetti 2 integral format.
 Two-electron integral symmetry is turned on.
   158 basis functions,   259 primitive gaussians,   158 cartesian basis functions
    25 alpha electrons       24 beta electrons
       nuclear repulsion energy       257.7429031552 Hartrees.
 NAtoms=   12 NActive=   12 NUniq=   12 SFac= 7.50D-01 NAtFMM=   80 NAOKFM=F Big=F
 ------------------------------------------------------------------------------
 Polarizable Continuum Model (PCM)
 =================================
 Model                : PCM.
 Atomic radii         : SMD-Coulomb.
 Polarization charges : Total charges.
 Charge compensation  : None.
 Solution method      : Matrix inversion.
 Cavity type          : VdW (van der Waals Surface) (Alpha=1.000).
 Cavity algorithm     : GePol (No added spheres)
                        Default sphere list used, NSphG=   12.
                        Lebedev-Laikov grids with approx.  5.0 points / Ang**2.
                        Smoothing algorithm: Karplus/York (Gamma=1.0000).
                        Polarization charges: spherical gaussians, with
                                              point-specific exponents (IZeta= 3).
                        Self-potential: point-specific (ISelfS= 7).
                        Self-field    : sphere-specific E.n sum rule (ISelfD= 2).
 1st derivatives      : Analytical E(r).r(x)/FMM algorithm (CHGder, D1EAlg=3).
                        Cavity 1st derivative terms included.
 Solvent              : Water, Eps=  78.355300 Eps(inf)=   1.777849
 ------------------------------------------------------------------------------
 Spheres list:
 ISph  on   Nord    Re0     Alpha      Xe            Ye            Ze
    1   C      1    1.850   1.000      1.107849     -1.208089     -0.000362
    2   C      2    1.850   1.000     -0.287311     -1.207978     -0.000362
    3   C      3    1.850   1.000     -0.984754     -0.000172     -0.000362
    4   C      4    1.850   1.000     -0.287004      1.208282      0.000837
    5   C      5    1.850   1.000      1.107821      1.208093      0.001316
    6   C      6    1.850   1.000      1.805326     -0.000168      0.000320
    7   H      7    1.200   1.000      1.657532     -2.160449     -0.000812
    8   H      8    1.200   1.000     -0.836895     -2.160448     -0.001677
    9   H      9    1.200   1.000     -0.837128      2.160468      0.000896
   10   H     10    1.200   1.000      1.658019      2.160331      0.002269
   11   H     11    1.200   1.000      2.904930     -0.000072      0.000500
   12   O     12    1.520   1.000     -2.414753      0.000045     -0.001187
 ------------------------------------------------------------------------------
 ------------------------------------------------------------------------------
 Atomic radii for non-electrostatic terms: SMD-CDS.
 ------------------------------------------------------------------------------
 Nuclear repulsion after PCM non-electrostatic terms =      257.7468753783 Hartrees.
 One-electron integrals computed using PRISM.
 NBasis=   158 RedAO= T  NBF=   158
 NBsUse=   158 1.00D-06 NBFU=   158
 Harris functional with IExCor= 1009 diagonalized for initial guess.
 ExpMin= 4.38D-02 ExpMax= 5.48D+03 ExpMxC= 8.25D+02 IAcc=2 IRadAn=         0 AccDes= 0.00D+00
 HarFok:  IExCor= 1009 AccDes= 0.00D+00 IRadAn=         0 IDoV= 1
 ScaDFX=  1.000000  1.000000  1.000000  1.000000
 FoFCou: FMM=F IPFlag=           0 FMFlag=      100000 FMFlg1=           0
         NFxFlg=           0 DoJE=T BraDBF=F KetDBF=T FulRan=T
         Omega=  0.000000  0.000000  1.000000  0.000000  0.000000 ICntrl=     500 IOpCl=  0
         NMat0=    1 NMatS0=    1 NMatT0=    0 NMatD0=    1 NMtDS0=    0 NMtDT0=    0
         I1Cent=           4 NGrid=           0.
 Petite list used in FoFCou.
 Initial guess orbital symmetries:
 Alpha Orbitals:
       Occupied  (A) (A) (A) (A) (A) (A) (A) (A) (A) (A) (A) (A)
                 (A) (A) (A) (A) (A) (A) (A) (A) (A) (A) (A) (A)
                 (A)
       Virtual   (A) (A) (A) (A) (A) (A) (A) (A) (A) (A) (A) (A)
                 (A) (A) (A) (A) (A) (A) (A) (A) (A) (A) (A) (A)
                 (A) (A) (A) (A) (A) (A) (A) (A) (A) (A) (A) (A)
                 (A) (A) (A) (A) (A) (A) (A) (A) (A) (A) (A) (A)
                 (A) (A) (A) (A) (A) (A) (A) (A) (A) (A) (A) (A)
                 (A) (A) (A) (A) (A) (A) (A) (A) (A) (A) (A) (A)
                 (A) (A) (A) (A) (A) (A) (A) (A) (A) (A) (A) (A)
                 (A) (A) (A) (A) (A) (A) (A) (A) (A) (A) (A) (A)
                 (A) (A) (A) (A) (A) (A) (A) (A) (A) (A) (A) (A)
                 (A) (A) (A) (A) (A) (A) (A) (A) (A) (A) (A) (A)
                 (A) (A) (A) (A) (A) (A) (A) (A) (A) (A) (A) (A)
                 (A)
 Beta  Orbitals:
       Occupied  (A) (A) (A) (A) (A) (A) (A) (A) (A) (A) (A) (A)
                 (A) (A) (A) (A) (A) (A) (A) (A) (A) (A) (A) (A)
       Virtual   (A) (A) (A) (A) (A) (A) (A) (A) (A) (A) (A) (A)
                 (A) (A) (A) (A) (A) (A) (A) (A) (A) (A) (A) (A)
                 (A) (A) (A) (A) (A) (A) (A) (A) (A) (A) (A) (A)
                 (A) (A) (A) (A) (A) (A) (A) (A) (A) (A) (A) (A)
                 (A) (A) (A) (A) (A) (A) (A) (A) (A) (A) (A) (A)
                 (A) (A) (A) (A) (A) (A) (A) (A) (A) (A) (A) (A)
                 (A) (A) (A) (A) (A) (A) (A) (A) (A) (A) (A) (A)
                 (A) (A) (A) (A) (A) (A) (A) (A) (A) (A) (A) (A)
                 (A) (A) (A) (A) (A) (A) (A) (A) (A) (A) (A) (A)
                 (A) (A) (A) (A) (A) (A) (A) (A) (A) (A) (A) (A)
                 (A) (A) (A) (A) (A) (A) (A) (A) (A) (A) (A) (A)
                 (A) (A)
 The electronic state of the initial guess is 2-A.
 Initial guess <Sx>= 0.0000 <Sy>= 0.0000 <Sz>= 0.5000 <S**2>= 0.7500 S= 0.5000
 Requested convergence on RMS density matrix=1.00D-08 within 128 cycles.
 Requested convergence on MAX density matrix=1.00D-06.
 Requested convergence on             energy=1.00D-06.
 No special actions if energy rises.
 Keep R1 and R2 ints in memory in canonical form, NReq=162199351.
 Error on total polarization charges =  0.04483
 SCF Done:  E(UM062X) =  -306.693386043     A.U. after   17 cycles
             Convg  =    0.5807D-08             -V/T =  2.0096
 <Sx>= 0.0000 <Sy>= 0.0000 <Sz>= 0.5000 <S**2>= 0.7798 S= 0.5148
 <L.S>= 0.000000000000E+00
 SMD-CDS (non-electrostatic) energy             (kcal/mol) =       2.49
 (included in total energy above)
 Annihilation of the first spin contaminant:
 S**2 before annihilation     0.7798,   after     0.7505

 **********************************************************************

            Population analysis using the SCF density.

 **********************************************************************

 Orbital symmetries:
 Alpha Orbitals:
       Occupied  (A) (A) (A) (A) (A) (A) (A) (A) (A) (A) (A) (A)
                 (A) (A) (A) (A) (A) (A) (A) (A) (A) (A) (A) (A)
                 (A)
       Virtual   (A) (A) (A) (A) (A) (A) (A) (A) (A) (A) (A) (A)
                 (A) (A) (A) (A) (A) (A) (A) (A) (A) (A) (A) (A)
                 (A) (A) (A) (A) (A) (A) (A) (A) (A) (A) (A) (A)
                 (A) (A) (A) (A) (A) (A) (A) (A) (A) (A) (A) (A)
                 (A) (A) (A) (A) (A) (A) (A) (A) (A) (A) (A) (A)
                 (A) (A) (A) (A) (A) (A) (A) (A) (A) (A) (A) (A)
                 (A) (A) (A) (A) (A) (A) (A) (A) (A) (A) (A) (A)
                 (A) (A) (A) (A) (A) (A) (A) (A) (A) (A) (A) (A)
                 (A) (A) (A) (A) (A) (A) (A) (A) (A) (A) (A) (A)
                 (A) (A) (A) (A) (A) (A) (A) (A) (A) (A) (A) (A)
                 (A) (A) (A) (A) (A) (A) (A) (A) (A) (A) (A) (A)
                 (A)
 Beta  Orbitals:
       Occupied  (A) (A) (A) (A) (A) (A) (A) (A) (A) (A) (A) (A)
                 (A) (A) (A) (A) (A) (A) (A) (A) (A) (A) (A) (A)
       Virtual   (A) (A) (A) (A) (A) (A) (A) (A) (A) (A) (A) (A)
                 (A) (A) (A) (A) (A) (A) (A) (A) (A) (A) (A) (A)
                 (A) (A) (A) (A) (A) (A) (A) (A) (A) (A) (A) (A)
                 (A) (A) (A) (A) (A) (A) (A) (A) (A) (A) (A) (A)
                 (A) (A) (A) (A) (A) (A) (A) (A) (A) (A) (A) (A)
                 (A) (A) (A) (A) (A) (A) (A) (A) (A) (A) (A) (A)
                 (A) (A) (A) (A) (A) (A) (A) (A) (A) (A) (A) (A)
                 (A) (A) (A) (A) (A) (A) (A) (A) (A) (A) (A) (A)
                 (A) (A) (A) (A) (A) (A) (A) (A) (A) (A) (A) (A)
                 (A) (A) (A) (A) (A) (A) (A) (A) (A) (A) (A) (A)
                 (A) (A) (A) (A) (A) (A) (A) (A) (A) (A) (A) (A)
                 (A) (A)
 The electronic state is 2-A.
 Alpha  occ. eigenvalues --  -19.68489 -10.63056 -10.58218 -10.57913 -10.57912
 Alpha  occ. eigenvalues --  -10.57141 -10.57138  -1.12236  -0.97634  -0.86264
 Alpha  occ. eigenvalues --   -0.84922  -0.70826  -0.68682  -0.60185  -0.54798
 Alpha  occ. eigenvalues --   -0.53847  -0.50451  -0.50236  -0.49970  -0.43348
 Alpha  occ. eigenvalues --   -0.42939  -0.42844  -0.37953  -0.32930  -0.31171
 Alpha virt. eigenvalues --    0.00267   0.01431   0.03012   0.03884   0.04330
 Alpha virt. eigenvalues --    0.05619   0.06178   0.07262   0.08655   0.09763
 Alpha virt. eigenvalues --    0.09973   0.10008   0.11452   0.14281   0.14791
 Alpha virt. eigenvalues --    0.14911   0.15185   0.15562   0.16459   0.16930
 Alpha virt. eigenvalues --    0.18984   0.19804   0.20217   0.22180   0.22513
 Alpha virt. eigenvalues --    0.22887   0.25113   0.25817   0.25902   0.27002
 Alpha virt. eigenvalues --    0.27379   0.29771   0.31033   0.31641   0.32859
 Alpha virt. eigenvalues --    0.34891   0.37512   0.38310   0.40762   0.41305
 Alpha virt. eigenvalues --    0.41587   0.61025   0.64236   0.64960   0.68079
 Alpha virt. eigenvalues --    0.68866   0.74389   0.74704   0.75982   0.77829
 Alpha virt. eigenvalues --    0.78307   0.78628   0.82037   0.84105   0.84899
 Alpha virt. eigenvalues --    0.92369   0.93557   0.97201   0.97238   0.99976
 Alpha virt. eigenvalues --    1.04890   1.05254   1.07538   1.10426   1.15171
 Alpha virt. eigenvalues --    1.17193   1.18192   1.23451   1.25406   1.27622
 Alpha virt. eigenvalues --    1.30692   1.34856   1.36462   1.40087   1.43296
 Alpha virt. eigenvalues --    1.43828   1.43830   1.45257   1.46901   1.47020
 Alpha virt. eigenvalues --    1.66772   1.81140   1.81241   1.83021   1.84868
 Alpha virt. eigenvalues --    1.88088   1.93769   1.94509   1.97121   1.98733
 Alpha virt. eigenvalues --    1.99402   2.01235   2.04686   2.05290   2.07767
 Alpha virt. eigenvalues --    2.12702   2.28415   2.28872   2.30674   2.33405
 Alpha virt. eigenvalues --    2.39488   2.39704   2.40657   2.41552   2.47738
 Alpha virt. eigenvalues --    2.50127   2.51076   2.54191   2.56039   2.58974
 Alpha virt. eigenvalues --    2.60759   2.65141   2.66081   2.74358   2.78764
 Alpha virt. eigenvalues --    2.81419   3.00652   3.01427   3.03316   3.17644
 Alpha virt. eigenvalues --    3.22772   3.24312   3.33743   3.40423   3.49213
 Alpha virt. eigenvalues --    3.85400   4.17894   4.28809   4.29582   4.33721
 Alpha virt. eigenvalues --    4.48975   4.52603   4.86960
  Beta  occ. eigenvalues --  -19.67275 -10.63115 -10.58066 -10.57796 -10.57794
  Beta  occ. eigenvalues --  -10.57209 -10.57205  -1.08609  -0.96904  -0.86065
  Beta  occ. eigenvalues --   -0.83882  -0.70577  -0.68230  -0.59613  -0.54416
  Beta  occ. eigenvalues --   -0.53243  -0.49834  -0.49348  -0.46305  -0.42394
  Beta  occ. eigenvalues --   -0.42363  -0.35838  -0.35733  -0.32265
  Beta virt. eigenvalues --   -0.12658   0.01236   0.03126   0.03656   0.04082
  Beta virt. eigenvalues --    0.04411   0.05691   0.06322   0.07201   0.08728
  Beta virt. eigenvalues --    0.09659   0.10051   0.10330   0.11635   0.14471
  Beta virt. eigenvalues --    0.15033   0.15086   0.15568   0.15678   0.16369
  Beta virt. eigenvalues --    0.16809   0.19344   0.19822   0.20332   0.22506
  Beta virt. eigenvalues --    0.22725   0.22866   0.25351   0.25888   0.25980
  Beta virt. eigenvalues --    0.27108   0.28554   0.29912   0.31212   0.31840
  Beta virt. eigenvalues --    0.32949   0.35025   0.37815   0.38546   0.41056
  Beta virt. eigenvalues --    0.41592   0.41988   0.61176   0.64676   0.65489
  Beta virt. eigenvalues --    0.68719   0.69098   0.75235   0.75239   0.76198
  Beta virt. eigenvalues --    0.78339   0.78560   0.78962   0.82366   0.84221
  Beta virt. eigenvalues --    0.85251   0.92649   0.93876   0.97443   0.97741
  Beta virt. eigenvalues --    1.00188   1.05157   1.05574   1.07961   1.10764
  Beta virt. eigenvalues --    1.15423   1.17813   1.18299   1.25995   1.28561
  Beta virt. eigenvalues --    1.28683   1.31005   1.35898   1.37543   1.40583
  Beta virt. eigenvalues --    1.44096   1.44511   1.45245   1.45876   1.47460
  Beta virt. eigenvalues --    1.48474   1.67092   1.81684   1.82122   1.85803
  Beta virt. eigenvalues --    1.85939   1.90056   1.94702   1.95883   1.97507
  Beta virt. eigenvalues --    1.99751   2.00053   2.01824   2.05110   2.05688
  Beta virt. eigenvalues --    2.08228   2.13540   2.29164   2.29672   2.31651
  Beta virt. eigenvalues --    2.34379   2.39906   2.40352   2.41017   2.41845
  Beta virt. eigenvalues --    2.48244   2.50855   2.51644   2.54667   2.56957
  Beta virt. eigenvalues --    2.59300   2.61212   2.66044   2.66788   2.74951
  Beta virt. eigenvalues --    2.79322   2.81725   3.01792   3.01895   3.03866
  Beta virt. eigenvalues --    3.18105   3.23092   3.24567   3.34737   3.41193
  Beta virt. eigenvalues --    3.49635   3.86149   4.19651   4.29477   4.30045
  Beta virt. eigenvalues --    4.35236   4.49493   4.53142   4.87526
          Condensed to atoms (all electrons):
              1          2          3          4          5          6
     1  C    5.082790   0.245455   0.225046  -0.047548   0.027186   0.436246
     2  C    0.245455   6.168454   0.057486  -0.737163  -0.047265  -0.005394
     3  C    0.225046   0.057486   5.342191   0.059513   0.224822  -0.138228
     4  C   -0.047548  -0.737163   0.059513   6.166759   0.245466  -0.005492
     5  C    0.027186  -0.047265   0.224822   0.245466   5.083100   0.435813
     6  C    0.436246  -0.005394  -0.138228  -0.005492   0.435813   5.013968
     7  H    0.299683   0.017984  -0.013070  -0.000258  -0.002101   0.028801
     8  H    0.009499   0.330621  -0.021904   0.008628  -0.002808   0.005210
     9  H   -0.002798   0.008634  -0.021875   0.330554   0.009536   0.005206
    10  H   -0.002108  -0.000251  -0.013061   0.018020   0.299608   0.028813
    11  H    0.022922  -0.004977   0.005740  -0.004978   0.022896   0.286818
    12  O    0.012217  -0.192704   0.495669  -0.192453   0.012266  -0.013761
              7          8          9         10         11         12
     1  C    0.299683   0.009499  -0.002798  -0.002108   0.022922   0.012217
     2  C    0.017984   0.330621   0.008634  -0.000251  -0.004977  -0.192704
     3  C   -0.013070  -0.021904  -0.021875  -0.013061   0.005740   0.495669
     4  C   -0.000258   0.008628   0.330554   0.018020  -0.004978  -0.192453
     5  C   -0.002101  -0.002808   0.009536   0.299608   0.022896   0.012266
     6  C    0.028801   0.005210   0.005206   0.028813   0.286818  -0.013761
     7  H    0.461061  -0.003645   0.000008  -0.000104  -0.003585  -0.000359
     8  H   -0.003645   0.456440  -0.000080   0.000008  -0.000091  -0.003263
     9  H    0.000008  -0.000080   0.456448  -0.003637  -0.000091  -0.003264
    10  H   -0.000104   0.000008  -0.003637   0.461073  -0.003588  -0.000359
    11  H   -0.003585  -0.000091  -0.000091  -0.003588   0.459567   0.000039
    12  O   -0.000359  -0.003263  -0.003264  -0.000359   0.000039   8.399848
 Mulliken atomic charges:
              1
     1  C   -0.308589
     2  C    0.159119
     3  C   -0.202328
     4  C    0.158952
     5  C   -0.308520
     6  C   -0.078000
     7  H    0.215585
     8  H    0.221384
     9  H    0.221359
    10  H    0.215585
    11  H    0.219328
    12  O   -0.513876
 Sum of Mulliken atomic charges =   0.00000
 Mulliken charges with hydrogens summed into heavy atoms:
              1
     1  C   -0.093004
     2  C    0.380504
     3  C   -0.202328
     4  C    0.380311
     5  C   -0.092934
     6  C    0.141328
    12  O   -0.513876
 Sum of Mulliken charges with hydrogens summed into heavy atoms =   0.00000
          Atomic-Atomic Spin Densities.
              1          2          3          4          5          6
     1  C   -0.137926   0.008515  -0.015091  -0.003370  -0.006384   0.023195
     2  C    0.008515   0.258704   0.032981  -0.028233  -0.003390  -0.021919
     3  C   -0.015091   0.032981  -0.068355   0.033047  -0.015043  -0.000879
     4  C   -0.003370  -0.028233   0.033047   0.257946   0.008607  -0.021899
     5  C   -0.006384  -0.003390  -0.015043   0.008607  -0.137853   0.023121
     6  C    0.023195  -0.021919  -0.000879  -0.021899   0.023121   0.296476
     7  H    0.000525  -0.001159   0.000915  -0.000081   0.000082  -0.000210
     8  H    0.001783   0.000516  -0.003722  -0.000078  -0.000530   0.001389
     9  H   -0.000529  -0.000082  -0.003709   0.000505   0.001788   0.001388
    10  H    0.000082  -0.000081   0.000911  -0.001155   0.000526  -0.000211
    11  H    0.000656  -0.000547   0.000097  -0.000548   0.000658  -0.001462
    12  O    0.000929  -0.039034  -0.022577  -0.038963   0.000920  -0.002352
              7          8          9         10         11         12
     1  C    0.000525   0.001783  -0.000529   0.000082   0.000656   0.000929
     2  C   -0.001159   0.000516  -0.000082  -0.000081  -0.000547  -0.039034
     3  C    0.000915  -0.003722  -0.003709   0.000911   0.000097  -0.022577
     4  C   -0.000081  -0.000078   0.000505  -0.001155  -0.000548  -0.038963
     5  C    0.000082  -0.000530   0.001788   0.000526   0.000658   0.000920
     6  C   -0.000210   0.001389   0.001388  -0.000211  -0.001462  -0.002352
     7  H    0.003045  -0.000042   0.000000  -0.000001  -0.000026   0.000001
     8  H   -0.000042  -0.009364   0.000000   0.000000   0.000003   0.000064
     9  H    0.000000   0.000000  -0.009343  -0.000042   0.000003   0.000064
    10  H   -0.000001   0.000000  -0.000042   0.003043  -0.000026   0.000001
    11  H   -0.000026   0.000003   0.000003  -0.000026  -0.011152   0.000001
    12  O    0.000001   0.000064   0.000064   0.000001   0.000001   0.734987
 Mulliken atomic spin densities:
              1
     1  C   -0.127616
     2  C    0.206270
     3  C   -0.061426
     4  C    0.205777
     5  C   -0.127498
     6  C    0.296638
     7  H    0.003049
     8  H   -0.009980
     9  H   -0.009958
    10  H    0.003047
    11  H   -0.012344
    12  O    0.634042
 Sum of Mulliken atomic spin densities =   1.00000
 Electronic spatial extent (au):  <R**2>=            651.1997
 Charge=              0.0000 electrons
 Dipole moment (field-independent basis, Debye):
    X=              6.3020    Y=             -0.0016    Z=              0.0023  Tot=              6.3020
 Quadrupole moment (field-independent basis, Debye-Ang):
   XX=            -46.9658   YY=            -32.3309   ZZ=            -43.5728
   XY=              0.0002   XZ=             -0.0037   YZ=              0.0080
 Traceless Quadrupole moment (field-independent basis, Debye-Ang):
   XX=             -6.0093   YY=              8.6256   ZZ=             -2.6163
   XY=              0.0002   XZ=             -0.0037   YZ=              0.0080
 Octapole moment (field-independent basis, Debye-Ang**2):
  XXX=             48.8940  YYY=             -0.0116  ZZZ=             -0.0072  XYY=              2.4084
  XXY=              0.0038  XXZ=              0.0218  XZZ=             -4.1426  YZZ=             -0.0020
  YYZ=             -0.0011  XYZ=              0.0050
 Hexadecapole moment (field-independent basis, Debye-Ang**3):
 XXXX=           -568.6241 YYYY=           -246.9235 ZZZZ=            -49.8701 XXXY=              0.0054
 XXXZ=             -0.1227 YYYX=             -0.0057 YYYZ=             -0.0272 ZZZX=             -0.0914
 ZZZY=             -0.0869 XXYY=           -123.1812 XXZZ=           -100.2136 YYZZ=            -64.3741
 XXYZ=             -0.0098 YYXZ=             -0.0177 ZZXY=              0.0001
 N-N= 2.577468753783D+02 E-N=-1.834167929601D+03  KE= 4.544557886432D+02
                          Isotropic Fermi Contact Couplings
        Atom                 a.u.       MegaHertz       Gauss      10(-4) cm-1
     1  C(13)             -0.02398     -26.95265      -9.61738      -8.99044
     2  C(13)              0.03063      34.43164      12.28606      11.48516
     3  C(13)             -0.03175     -35.69682     -12.73751     -11.90718
     4  C(13)              0.03055      34.34262      12.25430      11.45546
     5  C(13)             -0.02395     -26.92993      -9.60927      -8.98286
     6  C(13)              0.04514      50.74801      18.10815      16.92772
     7  H(1)               0.00092       4.11901       1.46977       1.37395
     8  H(1)              -0.00348     -15.53887      -5.54465      -5.18321
     9  H(1)              -0.00347     -15.49995      -5.53077      -5.17023
    10  H(1)               0.00092       4.11657       1.46889       1.37314
    11  H(1)              -0.00406     -18.15278      -6.47736      -6.05511
    12  O(17)              0.13160     -79.77434     -28.46547     -26.60985
 --------------------------------------------------------
       Center         ----  Spin Dipole Couplings  ----
                      3XX-RR        3YY-RR        3ZZ-RR
 --------------------------------------------------------
     1   Atom        0.036106      0.032462     -0.068568
     2   Atom       -0.088973     -0.086275      0.175249
     3   Atom        0.027360     -0.004936     -0.022423
     4   Atom       -0.088742     -0.086027      0.174770
     5   Atom        0.036094      0.032437     -0.068531
     6   Atom       -0.108948     -0.121775      0.230724
     7   Atom        0.002394      0.001209     -0.003603
     8   Atom       -0.007448      0.013906     -0.006459
     9   Atom       -0.007418      0.013873     -0.006455
    10   Atom        0.002385      0.001214     -0.003600
    11   Atom        0.020031     -0.017215     -0.002816
    12   Atom       -1.173619     -1.149608      2.323227
 --------------------------------------------------------
                        XY            XZ            YZ
 --------------------------------------------------------
     1   Atom        0.001579     -0.000013      0.000048
     2   Atom       -0.002380     -0.000095     -0.000182
     3   Atom       -0.000033     -0.000005      0.000034
     4   Atom        0.002385     -0.000170     -0.000157
     5   Atom       -0.001568      0.000013      0.000096
     6   Atom        0.000000      0.000032     -0.000257
     7   Atom        0.002090      0.000001      0.000002
     8   Atom        0.005278      0.000007      0.000019
     9   Atom       -0.005259     -0.000003      0.000006
    10   Atom       -0.002089      0.000000      0.000005
    11   Atom        0.000005      0.000002     -0.000011
    12   Atom        0.000000     -0.002230     -0.001259
 --------------------------------------------------------


 ---------------------------------------------------------------------------------
              Anisotropic Spin Dipole Couplings in Principal Axis System
 ---------------------------------------------------------------------------------

       Atom             a.u.   MegaHertz   Gauss  10(-4) cm-1        Axes

              Baa    -0.0686    -9.201    -3.283    -3.069  0.0001 -0.0005  1.0000
     1 C(13)  Bbb     0.0319     4.277     1.526     1.427 -0.3494  0.9370  0.0005
              Bcc     0.0367     4.924     1.757     1.643  0.9370  0.3494  0.0000
 
              Baa    -0.0904   -12.126    -4.327    -4.045  0.8640  0.5035  0.0007
     2 C(13)  Bbb    -0.0849   -11.391    -4.065    -3.800 -0.5035  0.8640  0.0004
              Bcc     0.1752    23.517     8.391     7.844 -0.0004 -0.0007  1.0000
 
              Baa    -0.0224    -3.009    -1.074    -1.004  0.0001 -0.0020  1.0000
     3 C(13)  Bbb    -0.0049    -0.662    -0.236    -0.221  0.0010  1.0000  0.0020
              Bcc     0.0274     3.671     1.310     1.225  1.0000 -0.0010 -0.0001
 
              Baa    -0.0901   -12.094    -4.316    -4.034  0.8645 -0.5026  0.0003
     4 C(13)  Bbb    -0.0846   -11.358    -4.053    -3.789  0.5026  0.8645  0.0009
              Bcc     0.1748    23.452     8.368     7.823 -0.0006 -0.0006  1.0000
 
              Baa    -0.0685    -9.196    -3.281    -3.068 -0.0001 -0.0010  1.0000
     5 C(13)  Bbb     0.0319     4.275     1.525     1.426  0.3470  0.9379  0.0009
              Bcc     0.0367     4.921     1.756     1.642  0.9379 -0.3470 -0.0002
 
              Baa    -0.1218   -16.341    -5.831    -5.451  0.0000  1.0000  0.0007
     6 C(13)  Bbb    -0.1089   -14.620    -5.217    -4.877  1.0000  0.0000 -0.0001
              Bcc     0.2307    30.961    11.048    10.327  0.0001 -0.0007  1.0000
 
              Baa    -0.0036    -1.923    -0.686    -0.641  0.0000 -0.0005  1.0000
     7 H(1)   Bbb    -0.0004    -0.198    -0.071    -0.066 -0.6029  0.7978  0.0004
              Bcc     0.0040     2.120     0.757     0.707  0.7978  0.6029  0.0003
 
              Baa    -0.0087    -4.632    -1.653    -1.545  0.9738 -0.2275 -0.0012
     8 H(1)   Bbb    -0.0065    -3.446    -1.230    -1.150  0.0010 -0.0012  1.0000
              Bcc     0.0151     8.078     2.882     2.694  0.2275  0.9738  0.0009
 
              Baa    -0.0086    -4.613    -1.646    -1.539  0.9738  0.2274  0.0007
     9 H(1)   Bbb    -0.0065    -3.444    -1.229    -1.149 -0.0006 -0.0005  1.0000
              Bcc     0.0151     8.057     2.875     2.688 -0.2274  0.9738  0.0003
 
              Baa    -0.0036    -1.921    -0.685    -0.641 -0.0003 -0.0011  1.0000
    10 H(1)   Bbb    -0.0004    -0.197    -0.070    -0.066  0.6042  0.7968  0.0011
              Bcc     0.0040     2.118     0.756     0.706  0.7968 -0.6042 -0.0004
 
              Baa    -0.0172    -9.185    -3.277    -3.064 -0.0001  1.0000  0.0007
    11 H(1)   Bbb    -0.0028    -1.502    -0.536    -0.501 -0.0001 -0.0007  1.0000
              Bcc     0.0200    10.688     3.814     3.565  1.0000  0.0001  0.0001
 
              Baa    -1.1736    84.922    30.302    28.327  1.0000  0.0000  0.0006
    12 O(17)  Bbb    -1.1496    83.185    29.682    27.747  0.0000  1.0000  0.0004
              Bcc     2.3232  -168.107   -59.985   -56.075 -0.0006 -0.0004  1.0000
 

 ---------------------------------------------------------------------------------

 D1PCM: PCM CHGder 1st derivatives, ID1Alg=3 FixD1E=F DoIter=F DoCFld=F I1PDM=0.
 Calling FoFJK, ICntrl=      2127 FMM=F ISym2X=0 I1Cent= 0 IOpClX= 1 NMat=1 NMatS=1 NMatT=0.
 ***** Axes restored to original set *****
 -------------------------------------------------------------------
 Center     Atomic                   Forces (Hartrees/Bohr)
 Number     Number              X              Y              Z
 -------------------------------------------------------------------
      1        6           0.006927186   -0.014147546   -0.000008416
      2        6          -0.011365296   -0.029933863    0.000128606
      3        6           0.104236364    0.000453377    0.000006540
      4        6          -0.010946518    0.029448132    0.000013253
      5        6           0.006672938    0.014159998    0.000009387
      6        6          -0.012427466    0.000109842   -0.000059093
      7        1           0.005619890    0.008376068    0.000001502
      8        1          -0.003152238    0.009201687   -0.000049077
      9        1          -0.003211838   -0.009194133   -0.000017964
     10        1           0.005682850   -0.008446599    0.000015586
     11        1           0.009598239   -0.000009153    0.000011249
     12        8          -0.097634113   -0.000017812   -0.000051572
 -------------------------------------------------------------------
 Cartesian Forces:  Max     0.104236364 RMS     0.025573797

 GradGradGradGradGradGradGradGradGradGradGradGradGradGradGradGradGradGrad
 Berny optimization.
 Internal  Forces:  Max     0.097634127 RMS     0.014354950
 Search for a local minimum.
 Step number   1 out of a maximum of   64
 All quantities printed in internal units (Hartrees-Bohrs-Radians)
 Mixed Optimization -- RFO/linear search
 Second derivative matrix not updated -- first step.
     Eigenvalues ---    0.02152   0.02153   0.02154   0.02155   0.02155
     Eigenvalues ---    0.02155   0.02155   0.02156   0.02157   0.16000
     Eigenvalues ---    0.16000   0.16000   0.16000   0.16000   0.22000
     Eigenvalues ---    0.22000   0.23486   0.25000   0.33709   0.33718
     Eigenvalues ---    0.33720   0.33725   0.33726   0.40989   0.42116
     Eigenvalues ---    0.42305   0.46412   0.46453   0.46466   0.46497
     Eigenvalues --- 1000.000001000.000001000.000001000.000001000.00000
     Eigenvalues --- 1000.000001000.000001000.000001000.000001000.00000
     Eigenvalues --- 1000.000001000.000001000.000001000.000001000.00000
     Eigenvalues --- 1000.000001000.000001000.000001000.000001000.00000
     Eigenvalues --- 1000.000001000.000001000.000001000.00000
 RFO step:  Lambda=-2.58454648D-02 EMin= 2.15189817D-02
 Linear search not attempted -- first point.
 Iteration  1 RMS(Cart)=  0.03286989 RMS(Int)=  0.00327700
 Iteration  2 RMS(Cart)=  0.00318779 RMS(Int)=  0.00001391
 Iteration  3 RMS(Cart)=  0.00000002 RMS(Int)=  0.00001391
 Variable       Old X    -DE/DX   Delta X   Delta X   Delta X     New X
                                 (Linear)    (Quad)   (Total)
    R1        2.63647  -0.01111   0.00000  -0.02265  -0.02264   2.61383
    R2        2.63584   0.00903   0.00000   0.01748   0.01750   2.65335
    R3        2.07796  -0.01006   0.00000  -0.02772  -0.02772   2.05025
    R4        2.63562   0.01635   0.00000   0.03424   0.03421   2.66984
    R5        2.07805  -0.00955   0.00000  -0.02629  -0.02629   2.05175
    R6        2.63697   0.01586   0.00000   0.03332   0.03329   2.67027
    R7        2.70231  -0.09763   0.00000  -0.22407  -0.22407   2.47824
    R8        2.63584  -0.01097   0.00000  -0.02236  -0.02236   2.61348
    R9        2.07809  -0.00957   0.00000  -0.02636  -0.02636   2.05174
   R10        2.63643   0.00892   0.00000   0.01725   0.01727   2.65370
   R11        2.07825  -0.01016   0.00000  -0.02798  -0.02798   2.05026
   R12        2.07795  -0.00960   0.00000  -0.02643  -0.02643   2.05152
    A1        2.09437  -0.00032   0.00000  -0.00265  -0.00262   2.09174
    A2        2.09435  -0.00055   0.00000  -0.00247  -0.00249   2.09186
    A3        2.09447   0.00087   0.00000   0.00512   0.00511   2.09958
    A4        2.09455  -0.00528   0.00000  -0.01904  -0.01906   2.07548
    A5        2.09406   0.00458   0.00000   0.01996   0.01997   2.11403
    A6        2.09458   0.00070   0.00000  -0.00092  -0.00091   2.09367
    A7        2.09429   0.00568   0.00000   0.02438   0.02433   2.11863
    A8        2.09462  -0.00285   0.00000  -0.01224  -0.01222   2.08240
    A9        2.09427  -0.00283   0.00000  -0.01213  -0.01211   2.08216
   A10        2.09429  -0.00521   0.00000  -0.01887  -0.01889   2.07540
   A11        2.09407   0.00072   0.00000  -0.00074  -0.00073   2.09334
   A12        2.09483   0.00450   0.00000   0.01960   0.01962   2.11444
   A13        2.09448  -0.00031   0.00000  -0.00269  -0.00267   2.09181
   A14        2.09459  -0.00057   0.00000  -0.00255  -0.00256   2.09204
   A15        2.09411   0.00088   0.00000   0.00523   0.00522   2.09934
   A16        2.09440   0.00544   0.00000   0.01887   0.01891   2.11331
   A17        2.09453  -0.00273   0.00000  -0.00948  -0.00950   2.08504
   A18        2.09426  -0.00271   0.00000  -0.00939  -0.00942   2.08484
    D1        0.00056  -0.00002   0.00000  -0.00031  -0.00031   0.00026
    D2        3.14078   0.00002   0.00000   0.00039   0.00040   3.14118
    D3       -3.14112  -0.00001   0.00000  -0.00028  -0.00028  -3.14140
    D4       -0.00091   0.00002   0.00000   0.00042   0.00042  -0.00048
    D5        0.00026  -0.00001   0.00000  -0.00016  -0.00016   0.00010
    D6        3.14140   0.00001   0.00000   0.00017   0.00017   3.14158
    D7       -3.14124  -0.00001   0.00000  -0.00019  -0.00018  -3.14142
    D8       -0.00010   0.00001   0.00000   0.00015   0.00015   0.00005
    D9       -0.00099   0.00002   0.00000   0.00054   0.00054  -0.00046
   D10        3.14093   0.00001   0.00000   0.00029   0.00029   3.14122
   D11       -3.14120  -0.00001   0.00000  -0.00018  -0.00018  -3.14138
   D12        0.00072  -0.00002   0.00000  -0.00043  -0.00042   0.00029
   D13        0.00060  -0.00002   0.00000  -0.00031  -0.00031   0.00029
   D14       -3.14153   0.00000   0.00000  -0.00007  -0.00007   3.14158
   D15       -3.14132   0.00000   0.00000  -0.00007  -0.00006  -3.14139
   D16       -0.00026   0.00001   0.00000   0.00017   0.00017  -0.00009
   D17        0.00023  -0.00001   0.00000  -0.00015  -0.00015   0.00008
   D18       -3.14158   0.00000   0.00000   0.00002   0.00002  -3.14157
   D19       -3.14083  -0.00002   0.00000  -0.00038  -0.00038  -3.14121
   D20        0.00054  -0.00001   0.00000  -0.00022  -0.00022   0.00032
   D21       -0.00066   0.00002   0.00000   0.00038   0.00038  -0.00027
   D22        3.14138   0.00000   0.00000   0.00005   0.00005   3.14143
   D23        3.14116   0.00001   0.00000   0.00022   0.00022   3.14137
   D24        0.00001  -0.00001   0.00000  -0.00012  -0.00012  -0.00010
         Item               Value     Threshold  Converged?
 Maximum Force            0.097634     0.000450     NO 
 RMS     Force            0.014355     0.000300     NO 
 Maximum Displacement     0.233211     0.001800     NO 
 RMS     Displacement     0.035819     0.001200     NO 
 Predicted change in Energy=-1.370801D-02
 GradGradGradGradGradGradGradGradGradGradGradGradGradGradGradGradGradGrad

                          Input orientation:                          
 ---------------------------------------------------------------------
 Center     Atomic      Atomic             Coordinates (Angstroms)
 Number     Number       Type             X           Y           Z
 ---------------------------------------------------------------------
      1          6           0       -0.762756    0.883443    0.000036
      2          6           0        0.620388    0.873960    0.000278
      3          6           0        1.311993    2.105924   -0.000039
      4          6           0        0.620420    3.338166   -0.001144
      5          6           0       -0.762540    3.328732   -0.001582
      6          6           0       -1.453208    2.106040   -0.000830
      7          1           0       -1.309284   -0.053792    0.000452
      8          1           0        1.175233   -0.059304    0.001331
      9          1           0        1.175677    4.271175   -0.001356
     10          1           0       -1.309204    4.265897   -0.002452
     11          1           0       -2.538824    2.106201   -0.001030
     12          8           0        2.623423    2.106004    0.000617
 ---------------------------------------------------------------------
                    Distance matrix (angstroms):
                    1          2          3          4          5
     1  C    0.000000
     2  C    1.383177   0.000000
     3  C    2.408121   1.412817   0.000000
     4  C    2.817595   2.464206   1.413045   0.000000
     5  C    2.445289   2.817517   2.408101   1.382992   0.000000
     6  C    1.404090   2.412017   2.765202   2.412067   1.404279
     7  H    1.084943   2.141111   3.396390   3.902453   3.426427
     8  H    2.155128   1.085742   2.169543   3.442473   3.903045
     9  H    3.903108   3.442299   2.169539   1.085733   2.155199
    10  H    3.426311   3.902380   3.396493   2.141059   1.084952
    11  H    2.156283   3.391024   3.850818   3.390953   2.156332
    12  O    3.600120   2.351613   1.311429   2.351647   3.599973
                    6          7          8          9         10
     6  C    0.000000
     7  H    2.164622   0.000000
     8  H    3.405499   2.484523   0.000000
     9  H    3.405708   4.988023   4.330480   0.000000
    10  H    2.164653   4.319690   4.987966   2.484887   0.000000
    11  H    1.085616   2.485426   4.299260   4.299376   2.485207
    12  O    4.076631   4.486747   2.604960   2.604599   4.486724
                   11         12
    11  H    0.000000
    12  O    5.162247   0.000000
 Stoichiometry    C6H5O(2)
 Framework group  C1[X(C6H5O)]
 Deg. of freedom    30
 Full point group                 C1      NOp   1
 Largest Abelian subgroup         C1      NOp   1
 Largest concise Abelian subgroup C1      NOp   1
                         Standard orientation:                         
 ---------------------------------------------------------------------
 Center     Atomic      Atomic             Coordinates (Angstroms)
 Number     Number       Type             X           Y           Z
 ---------------------------------------------------------------------
      1          6           0       -1.081681   -1.222584    0.000016
      2          6           0        0.301464   -1.232080   -0.000240
      3          6           0        0.993080   -0.000122   -0.000029
      4          6           0        0.301517    1.232127   -0.000114
      5          6           0       -1.081443    1.222705   -0.000065
      6          6           0       -1.772122    0.000019    0.000163
      7          1           0       -1.628217   -2.159814    0.000038
      8          1           0        0.856300   -2.165349    0.000029
      9          1           0        0.856783    2.165131    0.000063
     10          1           0       -1.628098    2.159876   -0.000153
     11          1           0       -2.857738    0.000190    0.000350
     12          8           0        2.304509   -0.000053    0.000161
 ---------------------------------------------------------------------
 Rotational constants (GHZ):      5.5436679      2.8143900      1.8667068
 Standard basis: 6-31+G(d,p) (6D, 7F)
 There are   158 symmetry adapted basis functions of A   symmetry.
 Integral buffers will be    262144 words long.
 Raffenetti 2 integral format.
 Two-electron integral symmetry is turned on.
   158 basis functions,   259 primitive gaussians,   158 cartesian basis functions
    25 alpha electrons       24 beta electrons
       nuclear repulsion energy       260.7516155653 Hartrees.
 NAtoms=   12 NActive=   12 NUniq=   12 SFac= 7.50D-01 NAtFMM=   80 NAOKFM=F Big=F
 ------------------------------------------------------------------------------
 Polarizable Continuum Model (PCM)
 =================================
 Model                : PCM.
 Atomic radii         : SMD-Coulomb.
 Polarization charges : Total charges.
 Charge compensation  : None.
 Solution method      : Matrix inversion.
 Cavity type          : VdW (van der Waals Surface) (Alpha=1.000).
 Cavity algorithm     : GePol (No added spheres)
                        Default sphere list used, NSphG=   12.
                        Lebedev-Laikov grids with approx.  5.0 points / Ang**2.
                        Smoothing algorithm: Karplus/York (Gamma=1.0000).
                        Polarization charges: spherical gaussians, with
                                              point-specific exponents (IZeta= 3).
                        Self-potential: point-specific (ISelfS= 7).
                        Self-field    : sphere-specific E.n sum rule (ISelfD= 2).
 1st derivatives      : Analytical E(r).r(x)/FMM algorithm (CHGder, D1EAlg=3).
                        Cavity 1st derivative terms included.
 Solvent              : Water, Eps=  78.355300 Eps(inf)=   1.777849
 ------------------------------------------------------------------------------
 Spheres list:
 ISph  on   Nord    Re0     Alpha      Xe            Ye            Ze
    1   C      1    1.850   1.000     -1.081681     -1.222584      0.000016
    2   C      2    1.850   1.000      0.301464     -1.232080     -0.000240
    3   C      3    1.850   1.000      0.993080     -0.000122     -0.000029
    4   C      4    1.850   1.000      0.301517      1.232127     -0.000114
    5   C      5    1.850   1.000     -1.081443      1.222705     -0.000065
    6   C      6    1.850   1.000     -1.772122      0.000019      0.000163
    7   H      7    1.200   1.000     -1.628217     -2.159814      0.000038
    8   H      8    1.200   1.000      0.856300     -2.165349      0.000029
    9   H      9    1.200   1.000      0.856783      2.165131      0.000063
   10   H     10    1.200   1.000     -1.628098      2.159876     -0.000153
   11   H     11    1.200   1.000     -2.857738      0.000190      0.000350
   12   O     12    1.520   1.000      2.304509     -0.000053      0.000161
 ------------------------------------------------------------------------------
 ------------------------------------------------------------------------------
 Atomic radii for non-electrostatic terms: SMD-CDS.
 ------------------------------------------------------------------------------
 Nuclear repulsion after PCM non-electrostatic terms =      260.7568013111 Hartrees.
 One-electron integrals computed using PRISM.
 NBasis=   158 RedAO= T  NBF=   158
 NBsUse=   158 1.00D-06 NBFU=   158
 Initial guess read from the read-write file.
 B after Tr=     0.000000    0.000000    0.000000
         Rot=    1.000000    0.000000    0.000000    0.000000 Ang=   0.00 deg.
 Initial guess orbital symmetries:
 Alpha Orbitals:
       Occupied  (A) (A) (A) (A) (A) (A) (A) (A) (A) (A) (A) (A)
                 (A) (A) (A) (A) (A) (A) (A) (A) (A) (A) (A) (A)
                 (A)
       Virtual   (A) (A) (A) (A) (A) (A) (A) (A) (A) (A) (A) (A)
                 (A) (A) (A) (A) (A) (A) (A) (A) (A) (A) (A) (A)
                 (A) (A) (A) (A) (A) (A) (A) (A) (A) (A) (A) (A)
                 (A) (A) (A) (A) (A) (A) (A) (A) (A) (A) (A) (A)
                 (A) (A) (A) (A) (A) (A) (A) (A) (A) (A) (A) (A)
                 (A) (A) (A) (A) (A) (A) (A) (A) (A) (A) (A) (A)
                 (A) (A) (A) (A) (A) (A) (A) (A) (A) (A) (A) (A)
                 (A) (A) (A) (A) (A) (A) (A) (A) (A) (A) (A) (A)
                 (A) (A) (A) (A) (A) (A) (A) (A) (A) (A) (A) (A)
                 (A) (A) (A) (A) (A) (A) (A) (A) (A) (A) (A) (A)
                 (A) (A) (A) (A) (A) (A) (A) (A) (A) (A) (A) (A)
                 (A)
 Beta  Orbitals:
       Occupied  (A) (A) (A) (A) (A) (A) (A) (A) (A) (A) (A) (A)
                 (A) (A) (A) (A) (A) (A) (A) (A) (A) (A) (A) (A)
       Virtual   (A) (A) (A) (A) (A) (A) (A) (A) (A) (A) (A) (A)
                 (A) (A) (A) (A) (A) (A) (A) (A) (A) (A) (A) (A)
                 (A) (A) (A) (A) (A) (A) (A) (A) (A) (A) (A) (A)
                 (A) (A) (A) (A) (A) (A) (A) (A) (A) (A) (A) (A)
                 (A) (A) (A) (A) (A) (A) (A) (A) (A) (A) (A) (A)
                 (A) (A) (A) (A) (A) (A) (A) (A) (A) (A) (A) (A)
                 (A) (A) (A) (A) (A) (A) (A) (A) (A) (A) (A) (A)
                 (A) (A) (A) (A) (A) (A) (A) (A) (A) (A) (A) (A)
                 (A) (A) (A) (A) (A) (A) (A) (A) (A) (A) (A) (A)
                 (A) (A) (A) (A) (A) (A) (A) (A) (A) (A) (A) (A)
                 (A) (A) (A) (A) (A) (A) (A) (A) (A) (A) (A) (A)
                 (A) (A)
 Initial guess <Sx>= 0.0000 <Sy>= 0.0000 <Sz>= 0.5000 <S**2>= 0.7975 S= 0.5235
 Harris functional with IExCor= 1009 diagonalized for initial guess.
 ExpMin= 4.38D-02 ExpMax= 5.48D+03 ExpMxC= 8.25D+02 IAcc=2 IRadAn=         0 AccDes= 0.00D+00
 HarFok:  IExCor= 1009 AccDes= 0.00D+00 IRadAn=         0 IDoV= 1
 ScaDFX=  1.000000  1.000000  1.000000  1.000000
 FoFCou: FMM=F IPFlag=           0 FMFlag=      100000 FMFlg1=           0
         NFxFlg=           0 DoJE=T BraDBF=F KetDBF=T FulRan=T
         Omega=  0.000000  0.000000  1.000000  0.000000  0.000000 ICntrl=     500 IOpCl=  0
         NMat0=    1 NMatS0=    1 NMatT0=    0 NMatD0=    1 NMtDS0=    0 NMtDT0=    0
         I1Cent=           4 NGrid=           0.
 Petite list used in FoFCou.
 Requested convergence on RMS density matrix=1.00D-08 within 128 cycles.
 Requested convergence on MAX density matrix=1.00D-06.
 Requested convergence on             energy=1.00D-06.
 No special actions if energy rises.
 Keep R1 and R2 ints in memory in canonical form, NReq=162200013.
 Error on total polarization charges =  0.04436
 SCF Done:  E(UM062X) =  -306.710976835     A.U. after   18 cycles
             Convg  =    0.3750D-08             -V/T =  2.0087
 <Sx>= 0.0000 <Sy>= 0.0000 <Sz>= 0.5000 <S**2>= 0.7846 S= 0.5171
 <L.S>= 0.000000000000E+00
 SMD-CDS (non-electrostatic) energy             (kcal/mol) =       3.25
 (included in total energy above)
 Annihilation of the first spin contaminant:
 S**2 before annihilation     0.7846,   after     0.7507
 D1PCM: PCM CHGder 1st derivatives, ID1Alg=3 FixD1E=F DoIter=F DoCFld=F I1PDM=0.
 Calling FoFJK, ICntrl=      2127 FMM=F ISym2X=0 I1Cent= 0 IOpClX= 1 NMat=1 NMatS=1 NMatT=0.
 ***** Axes restored to original set *****
 -------------------------------------------------------------------
 Center     Atomic                   Forces (Hartrees/Bohr)
 Number     Number              X              Y              Z
 -------------------------------------------------------------------
      1        6           0.006864091   -0.004335703   -0.000008187
      2        6          -0.020735916   -0.012770634    0.000047505
      3        6           0.062834901    0.000132525    0.000010106
      4        6          -0.020563508    0.012613337    0.000001475
      5        6           0.006711319    0.004289346    0.000001960
      6        6          -0.004435382    0.000073304   -0.000020881
      7        1          -0.001038835    0.000703000    0.000004001
      8        1           0.001721057    0.001929066   -0.000019618
      9        1           0.001695499   -0.001910342   -0.000009190
     10        1          -0.001025914   -0.000700023    0.000005973
     11        1           0.000255222   -0.000005837    0.000001098
     12        8          -0.032282533   -0.000018040   -0.000014243
 -------------------------------------------------------------------
 Cartesian Forces:  Max     0.062834901 RMS     0.013261107

 GradGradGradGradGradGradGradGradGradGradGradGradGradGradGradGradGradGrad
 Berny optimization.
 Using GEDIIS/GDIIS optimizer.
 Internal  Forces:  Max     0.032282538 RMS     0.005920615
 Search for a local minimum.
 Step number   2 out of a maximum of   64
 All quantities printed in internal units (Hartrees-Bohrs-Radians)
 Mixed Optimization -- RFO/linear search
 Update second derivatives using D2CorX and points    1    2
 DE= -1.76D-02 DEPred=-1.37D-02 R= 1.28D+00
 SS=  1.41D+00  RLast= 2.46D-01 DXNew= 5.0454D-01 7.3943D-01
 Trust test= 1.28D+00 RLast= 2.46D-01 DXMaxT set to 5.05D-01
 Use linear search instead of GDIIS.
     Eigenvalues ---    0.02152   0.02153   0.02154   0.02155   0.02155
     Eigenvalues ---    0.02155   0.02155   0.02156   0.02157   0.15605
     Eigenvalues ---    0.16000   0.16000   0.16000   0.16026   0.21769
     Eigenvalues ---    0.22000   0.22397   0.25000   0.28743   0.33713
     Eigenvalues ---    0.33719   0.33725   0.33727   0.34461   0.42272
     Eigenvalues ---    0.43842   0.46290   0.46450   0.46462   0.48919
     Eigenvalues --- 1000.000001000.000001000.000001000.000001000.00000
     Eigenvalues --- 1000.000001000.000001000.000001000.000001000.00000
     Eigenvalues --- 1000.000001000.000001000.000001000.000001000.00000
     Eigenvalues --- 1000.000001000.000001000.000001000.000001000.00000
     Eigenvalues --- 1000.000001000.000001000.000001000.00000
 RFO step:  Lambda=-3.76608771D-03 EMin= 2.15190278D-02
 Quartic linear search produced a step of  0.38499.
 Iteration  1 RMS(Cart)=  0.01336248 RMS(Int)=  0.00024283
 Iteration  2 RMS(Cart)=  0.00032649 RMS(Int)=  0.00007475
 Iteration  3 RMS(Cart)=  0.00000007 RMS(Int)=  0.00007475
 Variable       Old X    -DE/DX   Delta X   Delta X   Delta X     New X
                                 (Linear)    (Quad)   (Total)
    R1        2.61383  -0.00372  -0.00872  -0.00405  -0.01277   2.60106
    R2        2.65335   0.00375   0.00674   0.00416   0.01078   2.66413
    R3        2.05025  -0.00008  -0.01067   0.00894  -0.00173   2.04852
    R4        2.66984   0.01739   0.01317   0.04242   0.05570   2.72554
    R5        2.05175  -0.00078  -0.01012   0.00565  -0.00448   2.04728
    R6        2.67027   0.01727   0.01282   0.04245   0.05538   2.72565
    R7        2.47824  -0.03228  -0.08626  -0.03707  -0.12333   2.35491
    R8        2.61348  -0.00362  -0.00861  -0.00386  -0.01247   2.60101
    R9        2.05174  -0.00077  -0.01015   0.00568  -0.00446   2.04728
   R10        2.65370   0.00367   0.00665   0.00399   0.01053   2.66423
   R11        2.05026  -0.00009  -0.01077   0.00902  -0.00176   2.04851
   R12        2.05152  -0.00026  -0.01018   0.00782  -0.00236   2.04916
    A1        2.09174   0.00114  -0.00101   0.00365   0.00252   2.09427
    A2        2.09186   0.00071  -0.00096   0.01072   0.00982   2.10168
    A3        2.09958  -0.00185   0.00197  -0.01437  -0.01234   2.08724
    A4        2.07548   0.00282  -0.00734   0.02707   0.01985   2.09533
    A5        2.11403   0.00112   0.00769   0.00314   0.01077   2.12481
    A6        2.09367  -0.00394  -0.00035  -0.03021  -0.03062   2.06305
    A7        2.11863  -0.00936   0.00937  -0.05524  -0.04563   2.07300
    A8        2.08240   0.00466  -0.00470   0.02753   0.02271   2.10511
    A9        2.08216   0.00470  -0.00466   0.02771   0.02292   2.10508
   A10        2.07540   0.00284  -0.00727   0.02709   0.01994   2.09534
   A11        2.09334  -0.00392  -0.00028  -0.03007  -0.03041   2.06293
   A12        2.11444   0.00108   0.00755   0.00298   0.01047   2.12492
   A13        2.09181   0.00112  -0.00103   0.00357   0.00243   2.09424
   A14        2.09204   0.00071  -0.00098   0.01069   0.00976   2.10180
   A15        2.09934  -0.00183   0.00201  -0.01426  -0.01219   2.08715
   A16        2.11331   0.00145   0.00728  -0.00615   0.00090   2.11421
   A17        2.08504  -0.00073  -0.00366   0.00304  -0.00050   2.08454
   A18        2.08484  -0.00072  -0.00362   0.00311  -0.00040   2.08444
    D1        0.00026   0.00000  -0.00012   0.00018   0.00006   0.00032
    D2        3.14118   0.00001   0.00015  -0.00016   0.00000   3.14118
    D3       -3.14140   0.00000  -0.00011   0.00020   0.00010  -3.14131
    D4       -0.00048   0.00001   0.00016  -0.00013   0.00003  -0.00045
    D5        0.00010   0.00000  -0.00006   0.00012   0.00006   0.00016
    D6        3.14158   0.00000   0.00007  -0.00016  -0.00010   3.14148
    D7       -3.14142   0.00000  -0.00007   0.00009   0.00003  -3.14140
    D8        0.00005   0.00000   0.00006  -0.00019  -0.00013  -0.00008
    D9       -0.00046   0.00001   0.00021  -0.00032  -0.00011  -0.00057
   D10        3.14122   0.00001   0.00011  -0.00011   0.00000   3.14122
   D11       -3.14138  -0.00001  -0.00007   0.00000  -0.00007  -3.14145
   D12        0.00029  -0.00001  -0.00016   0.00021   0.00005   0.00034
   D13        0.00029  -0.00001  -0.00012   0.00018   0.00006   0.00034
   D14        3.14158   0.00000  -0.00003   0.00014   0.00011  -3.14149
   D15       -3.14139   0.00000  -0.00002  -0.00004  -0.00006  -3.14145
   D16       -0.00009   0.00000   0.00007  -0.00007   0.00000  -0.00009
   D17        0.00008   0.00000  -0.00006   0.00011   0.00005   0.00013
   D18       -3.14157   0.00000   0.00001  -0.00003  -0.00003   3.14159
   D19       -3.14121  -0.00001  -0.00015   0.00015   0.00000  -3.14122
   D20        0.00032  -0.00001  -0.00008   0.00001  -0.00008   0.00025
   D21       -0.00027   0.00001   0.00015  -0.00026  -0.00012  -0.00039
   D22        3.14143   0.00000   0.00002   0.00002   0.00004   3.14147
   D23        3.14137   0.00000   0.00008  -0.00012  -0.00004   3.14133
   D24       -0.00010   0.00000  -0.00004   0.00016   0.00011   0.00001
         Item               Value     Threshold  Converged?
 Maximum Force            0.032283     0.000450     NO 
 RMS     Force            0.005921     0.000300     NO 
 Maximum Displacement     0.073709     0.001800     NO 
 RMS     Displacement     0.013288     0.001200     NO 
 Predicted change in Energy=-4.025935D-03
 GradGradGradGradGradGradGradGradGradGradGradGradGradGradGradGradGradGrad

                          Input orientation:                          
 ---------------------------------------------------------------------
 Center     Atomic      Atomic             Coordinates (Angstroms)
 Number     Number       Type             X           Y           Z
 ---------------------------------------------------------------------
      1          6           0       -0.759886    0.878227    0.000044
      2          6           0        0.616467    0.864718    0.000257
      3          6           0        1.350998    2.105958    0.000034
      4          6           0        0.616559    3.347319   -0.001131
      5          6           0       -0.759770    3.333955   -0.001600
      6          6           0       -1.452610    2.106092   -0.000785
      7          1           0       -1.317873   -0.051165    0.000477
      8          1           0        1.177361   -0.062155    0.001271
      9          1           0        1.177656    4.274070   -0.001386
     10          1           0       -1.317770    4.263332   -0.002473
     11          1           0       -2.536978    2.106186   -0.001052
     12          8           0        2.597164    2.105910    0.000624
 ---------------------------------------------------------------------
                    Distance matrix (angstroms):
                    1          2          3          4          5
     1  C    0.000000
     2  C    1.376419   0.000000
     3  C    2.441958   1.442294   0.000000
     4  C    2.826840   2.482602   1.442352   0.000000
     5  C    2.455729   2.826864   2.441991   1.376394   0.000000
     6  C    1.409795   2.412901   2.803609   2.412905   1.409850
     7  H    1.084029   2.140213   3.431626   3.910464   3.430819
     8  H    2.153427   1.083373   2.175056   3.455289   3.909738
     9  H    3.909709   3.455230   2.175030   1.083372   2.153470
    10  H    3.430769   3.910480   3.431704   2.140259   1.084023
    11  H    2.160079   3.389020   3.887976   3.388984   2.160066
    12  O    3.574492   2.337460   1.246166   2.337497   3.574507
                    6          7          8          9         10
     6  C    0.000000
     7  H    2.161461   0.000000
     8  H    3.408526   2.495259   0.000000
     9  H    3.408582   4.993528   4.336226   0.000000
    10  H    2.161450   4.314497   4.993549   2.495449   0.000000
    11  H    1.084368   2.477979   4.300933   4.300957   2.477852
    12  O    4.049774   4.469954   2.591592   2.591509   4.470031
                   11         12
    11  H    0.000000
    12  O    5.134142   0.000000
 Stoichiometry    C6H5O(2)
 Framework group  C1[X(C6H5O)]
 Deg. of freedom    30
 Full point group                 C1      NOp   1
 Largest Abelian subgroup         C1      NOp   1
 Largest concise Abelian subgroup C1      NOp   1
                         Standard orientation:                         
 ---------------------------------------------------------------------
 Center     Atomic      Atomic             Coordinates (Angstroms)
 Number     Number       Type             X           Y           Z
 ---------------------------------------------------------------------
      1          6           0        1.078798    1.227861    0.000014
      2          6           0       -0.297556    1.241288   -0.000273
      3          6           0       -1.032014    0.000004    0.000017
      4          6           0       -0.297501   -1.241314   -0.000109
      5          6           0        1.078828   -1.227868   -0.000094
      6          6           0        1.771595    0.000037    0.000201
      7          1           0        1.636730    2.157286    0.000066
      8          1           0       -0.858506    2.168128   -0.000039
      9          1           0       -0.858542   -2.168097    0.000015
     10          1           0        1.636883   -2.157211   -0.000187
     11          1           0        2.855963    0.000008    0.000322
     12          8           0       -2.278179   -0.000022    0.000161
 ---------------------------------------------------------------------
 Rotational constants (GHZ):      5.4921298      2.8325821      1.8687624
 Standard basis: 6-31+G(d,p) (6D, 7F)
 There are   158 symmetry adapted basis functions of A   symmetry.
 Integral buffers will be    262144 words long.
 Raffenetti 2 integral format.
 Two-electron integral symmetry is turned on.
   158 basis functions,   259 primitive gaussians,   158 cartesian basis functions
    25 alpha electrons       24 beta electrons
       nuclear repulsion energy       261.0609789180 Hartrees.
 NAtoms=   12 NActive=   12 NUniq=   12 SFac= 7.50D-01 NAtFMM=   80 NAOKFM=F Big=F
 ------------------------------------------------------------------------------
 Polarizable Continuum Model (PCM)
 =================================
 Model                : PCM.
 Atomic radii         : SMD-Coulomb.
 Polarization charges : Total charges.
 Charge compensation  : None.
 Solution method      : Matrix inversion.
 Cavity type          : VdW (van der Waals Surface) (Alpha=1.000).
 Cavity algorithm     : GePol (No added spheres)
                        Default sphere list used, NSphG=   12.
                        Lebedev-Laikov grids with approx.  5.0 points / Ang**2.
                        Smoothing algorithm: Karplus/York (Gamma=1.0000).
                        Polarization charges: spherical gaussians, with
                                              point-specific exponents (IZeta= 3).
                        Self-potential: point-specific (ISelfS= 7).
                        Self-field    : sphere-specific E.n sum rule (ISelfD= 2).
 1st derivatives      : Analytical E(r).r(x)/FMM algorithm (CHGder, D1EAlg=3).
                        Cavity 1st derivative terms included.
 Solvent              : Water, Eps=  78.355300 Eps(inf)=   1.777849
 ------------------------------------------------------------------------------
 Spheres list:
 ISph  on   Nord    Re0     Alpha      Xe            Ye            Ze
    1   C      1    1.850   1.000      1.078798      1.227861      0.000014
    2   C      2    1.850   1.000     -0.297556      1.241288     -0.000273
    3   C      3    1.850   1.000     -1.032014      0.000004      0.000017
    4   C      4    1.850   1.000     -0.297501     -1.241314     -0.000109
    5   C      5    1.850   1.000      1.078828     -1.227868     -0.000094
    6   C      6    1.850   1.000      1.771595      0.000037      0.000201
    7   H      7    1.200   1.000      1.636730      2.157286      0.000066
    8   H      8    1.200   1.000     -0.858506      2.168128     -0.000039
    9   H      9    1.200   1.000     -0.858542     -2.168097      0.000015
   10   H     10    1.200   1.000      1.636883     -2.157211     -0.000187
   11   H     11    1.200   1.000      2.855963      0.000008      0.000322
   12   O     12    1.520   1.000     -2.278179     -0.000022      0.000161
 ------------------------------------------------------------------------------
 ------------------------------------------------------------------------------
 Atomic radii for non-electrostatic terms: SMD-CDS.
 ------------------------------------------------------------------------------
 Nuclear repulsion after PCM non-electrostatic terms =      261.0666275282 Hartrees.
 One-electron integrals computed using PRISM.
 NBasis=   158 RedAO= T  NBF=   158
 NBsUse=   158 1.00D-06 NBFU=   158
 Initial guess read from the read-write file.
 B after Tr=     0.000000    0.000000    0.000000
         Rot=    1.000000    0.000000    0.000000    0.000000 Ang=   0.00 deg.
 Initial guess orbital symmetries:
 Alpha Orbitals:
       Occupied  (A) (A) (A) (A) (A) (A) (A) (A) (A) (A) (A) (A)
                 (A) (A) (A) (A) (A) (A) (A) (A) (A) (A) (A) (A)
                 (A)
       Virtual   (A) (A) (A) (A) (A) (A) (A) (A) (A) (A) (A) (A)
                 (A) (A) (A) (A) (A) (A) (A) (A) (A) (A) (A) (A)
                 (A) (A) (A) (A) (A) (A) (A) (A) (A) (A) (A) (A)
                 (A) (A) (A) (A) (A) (A) (A) (A) (A) (A) (A) (A)
                 (A) (A) (A) (A) (A) (A) (A) (A) (A) (A) (A) (A)
                 (A) (A) (A) (A) (A) (A) (A) (A) (A) (A) (A) (A)
                 (A) (A) (A) (A) (A) (A) (A) (A) (A) (A) (A) (A)
                 (A) (A) (A) (A) (A) (A) (A) (A) (A) (A) (A) (A)
                 (A) (A) (A) (A) (A) (A) (A) (A) (A) (A) (A) (A)
                 (A) (A) (A) (A) (A) (A) (A) (A) (A) (A) (A) (A)
                 (A) (A) (A) (A) (A) (A) (A) (A) (A) (A) (A) (A)
                 (A)
 Beta  Orbitals:
       Occupied  (A) (A) (A) (A) (A) (A) (A) (A) (A) (A) (A) (A)
                 (A) (A) (A) (A) (A) (A) (A) (A) (A) (A) (A) (A)
       Virtual   (A) (A) (A) (A) (A) (A) (A) (A) (A) (A) (A) (A)
                 (A) (A) (A) (A) (A) (A) (A) (A) (A) (A) (A) (A)
                 (A) (A) (A) (A) (A) (A) (A) (A) (A) (A) (A) (A)
                 (A) (A) (A) (A) (A) (A) (A) (A) (A) (A) (A) (A)
                 (A) (A) (A) (A) (A) (A) (A) (A) (A) (A) (A) (A)
                 (A) (A) (A) (A) (A) (A) (A) (A) (A) (A) (A) (A)
                 (A) (A) (A) (A) (A) (A) (A) (A) (A) (A) (A) (A)
                 (A) (A) (A) (A) (A) (A) (A) (A) (A) (A) (A) (A)
                 (A) (A) (A) (A) (A) (A) (A) (A) (A) (A) (A) (A)
                 (A) (A) (A) (A) (A) (A) (A) (A) (A) (A) (A) (A)
                 (A) (A) (A) (A) (A) (A) (A) (A) (A) (A) (A) (A)
                 (A) (A)
 Initial guess <Sx>= 0.0000 <Sy>= 0.0000 <Sz>= 0.5000 <S**2>= 0.8085 S= 0.5288
 Harris functional with IExCor= 1009 diagonalized for initial guess.
 ExpMin= 4.38D-02 ExpMax= 5.48D+03 ExpMxC= 8.25D+02 IAcc=2 IRadAn=         0 AccDes= 0.00D+00
 HarFok:  IExCor= 1009 AccDes= 0.00D+00 IRadAn=         0 IDoV= 1
 ScaDFX=  1.000000  1.000000  1.000000  1.000000
 FoFCou: FMM=F IPFlag=           0 FMFlag=      100000 FMFlg1=           0
         NFxFlg=           0 DoJE=T BraDBF=F KetDBF=T FulRan=T
         Omega=  0.000000  0.000000  1.000000  0.000000  0.000000 ICntrl=     500 IOpCl=  0
         NMat0=    1 NMatS0=    1 NMatT0=    0 NMatD0=    1 NMtDS0=    0 NMtDT0=    0
         I1Cent=           4 NGrid=           0.
 Petite list used in FoFCou.
 Requested convergence on RMS density matrix=1.00D-08 within 128 cycles.
 Requested convergence on MAX density matrix=1.00D-06.
 Requested convergence on             energy=1.00D-06.
 No special actions if energy rises.
 Keep R1 and R2 ints in memory in canonical form, NReq=162199971.
 Error on total polarization charges =  0.04432
 SCF Done:  E(UM062X) =  -306.714112562     A.U. after   18 cycles
             Convg  =    0.2485D-08             -V/T =  2.0084
 <Sx>= 0.0000 <Sy>= 0.0000 <Sz>= 0.5000 <S**2>= 0.7842 S= 0.5170
 <L.S>= 0.000000000000E+00
 SMD-CDS (non-electrostatic) energy             (kcal/mol) =       3.54
 (included in total energy above)
 Annihilation of the first spin contaminant:
 S**2 before annihilation     0.7842,   after     0.7508
 D1PCM: PCM CHGder 1st derivatives, ID1Alg=3 FixD1E=F DoIter=F DoCFld=F I1PDM=0.
 Calling FoFJK, ICntrl=      2127 FMM=F ISym2X=0 I1Cent= 0 IOpClX= 1 NMat=1 NMatS=1 NMatT=0.
 ***** Axes restored to original set *****
 -------------------------------------------------------------------
 Center     Atomic                   Forces (Hartrees/Bohr)
 Number     Number              X              Y              Z
 -------------------------------------------------------------------
      1        6           0.003890830   -0.000262979   -0.000005326
      2        6          -0.010375198   -0.002887248    0.000051104
      3        6          -0.009560694    0.000022795   -0.000038849
      4        6          -0.010341534    0.002862724    0.000010546
      5        6           0.003870703    0.000227745    0.000013677
      6        6          -0.001457556    0.000026795   -0.000032757
      7        1          -0.000494913   -0.000501727    0.000002150
      8        1           0.001459712   -0.000805924   -0.000017512
      9        1           0.001451566    0.000812020   -0.000009244
     10        1          -0.000488119    0.000509955    0.000002980
     11        1          -0.000413489   -0.000004469    0.000005613
     12        8           0.022458691    0.000000312    0.000017618
 -------------------------------------------------------------------
 Cartesian Forces:  Max     0.022458691 RMS     0.004904674

 GradGradGradGradGradGradGradGradGradGradGradGradGradGradGradGradGradGrad
 Berny optimization.
 Using GEDIIS/GDIIS optimizer.
 Internal  Forces:  Max     0.022458697 RMS     0.003475114
 Search for a local minimum.
 Step number   3 out of a maximum of   64
 All quantities printed in internal units (Hartrees-Bohrs-Radians)
 Mixed Optimization -- RFO/linear search
 Update second derivatives using D2CorX and points    1    2    3
 DE= -3.14D-03 DEPred=-4.03D-03 R= 7.79D-01
 SS=  1.41D+00  RLast= 1.69D-01 DXNew= 8.4853D-01 5.0634D-01
 Trust test= 7.79D-01 RLast= 1.69D-01 DXMaxT set to 5.06D-01
 Use linear search instead of GDIIS.
     Eigenvalues ---    0.02152   0.02153   0.02154   0.02155   0.02155
     Eigenvalues ---    0.02155   0.02155   0.02156   0.02157   0.15533
     Eigenvalues ---    0.16000   0.16000   0.16000   0.16031   0.21953
[...]
    R4        2.73983  -0.00008   0.00000  -0.00026  -0.00026   2.73957
    R5        2.05176  -0.00005   0.00000  -0.00013  -0.00013   2.05163
    R6        2.73983  -0.00008   0.00000  -0.00026  -0.00026   2.73957
    R7        2.38382   0.00001   0.00000   0.00007   0.00007   2.38389
    R8        2.59471   0.00002   0.00000   0.00005   0.00005   2.59476
    R9        2.05176  -0.00005   0.00000  -0.00014  -0.00014   2.05163
   R10        2.66626  -0.00001   0.00000  -0.00002  -0.00002   2.66624
   R11        2.05041   0.00000   0.00000   0.00001   0.00001   2.05042
   R12        2.05017  -0.00005   0.00000  -0.00014  -0.00014   2.05002
    A1        2.09684   0.00001   0.00000   0.00010   0.00010   2.09694
    A2        2.10152  -0.00003   0.00000  -0.00024  -0.00024   2.10128
    A3        2.08483   0.00001   0.00000   0.00014   0.00014   2.08497
    A4        2.10114   0.00002   0.00000   0.00005   0.00005   2.10119
    A5        2.12933  -0.00001   0.00000  -0.00008  -0.00008   2.12925
    A6        2.05272  -0.00001   0.00000   0.00003   0.00003   2.05275
    A7        2.05922   0.00000   0.00000  -0.00004  -0.00004   2.05917
    A8        2.11199   0.00000   0.00000   0.00002   0.00002   2.11201
    A9        2.11198   0.00000   0.00000   0.00003   0.00003   2.11201
   A10        2.10114   0.00002   0.00000   0.00005   0.00005   2.10119
   A11        2.05271  -0.00001   0.00000   0.00004   0.00004   2.05275
   A12        2.12934  -0.00001   0.00000  -0.00009  -0.00009   2.12925
   A13        2.09683   0.00002   0.00000   0.00011   0.00011   2.09694
   A14        2.10154  -0.00003   0.00000  -0.00026  -0.00026   2.10128
   A15        2.08482   0.00001   0.00000   0.00015   0.00015   2.08497
   A16        2.11120  -0.00006   0.00000  -0.00026  -0.00026   2.11094
   A17        2.08600   0.00003   0.00000   0.00012   0.00012   2.08612
   A18        2.08598   0.00003   0.00000   0.00014   0.00014   2.08612
    D1        0.00002   0.00000   0.00000  -0.00002  -0.00002   0.00000
    D2       -3.14157   0.00000   0.00000  -0.00002  -0.00002   3.14159
    D3       -3.14157   0.00000   0.00000  -0.00003  -0.00003   3.14159
    D4        0.00003   0.00000   0.00000  -0.00003  -0.00003   0.00000
    D5        0.00003   0.00000   0.00000  -0.00003  -0.00003   0.00000
    D6       -3.14158   0.00000   0.00000  -0.00001  -0.00001   3.14159
    D7       -3.14157   0.00000   0.00000  -0.00003  -0.00003   3.14159
    D8        0.00001   0.00000   0.00000  -0.00001  -0.00001   0.00000
    D9       -0.00008   0.00000   0.00000   0.00008   0.00008   0.00000
   D10        3.14159   0.00000   0.00000   0.00000   0.00000  -3.14159
   D11        3.14151   0.00000   0.00000   0.00008   0.00008  -3.14159
   D12        0.00000   0.00000   0.00000   0.00000   0.00000   0.00000
   D13        0.00009   0.00000   0.00000  -0.00009  -0.00009   0.00000
   D14       -3.14152   0.00000   0.00000  -0.00007  -0.00007   3.14159
   D15       -3.14158   0.00000   0.00000  -0.00001  -0.00001   3.14159
   D16       -0.00001   0.00000   0.00000   0.00001   0.00001   0.00000
   D17       -0.00003   0.00000   0.00000   0.00003   0.00003   0.00000
   D18        3.14156   0.00000   0.00000   0.00004   0.00004  -3.14159
   D19        3.14157   0.00000   0.00000   0.00002   0.00002  -3.14159
   D20       -0.00002   0.00000   0.00000   0.00002   0.00002   0.00000
   D21       -0.00003   0.00000   0.00000   0.00003   0.00003   0.00000
   D22        3.14159   0.00000   0.00000   0.00001   0.00001  -3.14159
   D23        3.14157   0.00000   0.00000   0.00002   0.00002  -3.14159
   D24        0.00000   0.00000   0.00000   0.00000   0.00000   0.00000
         Item               Value     Threshold  Converged?
 Maximum Force            0.000084     0.000450     YES
 RMS     Force            0.000023     0.000300     YES
 Maximum Displacement     0.000467     0.001800     YES
 RMS     Displacement     0.000140     0.001200     YES
 Predicted change in Energy=-5.590812D-08
 Optimization completed.
    -- Stationary point found.
                           ----------------------------
                           !   Optimized Parameters   !
                           ! (Angstroms and Degrees)  !
 --------------------------                            --------------------------
 ! Name  Definition              Value          Derivative Info.                !
 --------------------------------------------------------------------------------
 ! R1    R(1,2)                  1.3731         -DE/DX =    0.0                 !
 ! R2    R(1,6)                  1.4109         -DE/DX =    0.0                 !
 ! R3    R(1,7)                  1.085          -DE/DX =    0.0                 !
 ! R4    R(2,3)                  1.4499         -DE/DX =   -0.0001              !
 ! R5    R(2,8)                  1.0857         -DE/DX =    0.0                 !
 ! R6    R(3,4)                  1.4499         -DE/DX =   -0.0001              !
 ! R7    R(3,12)                 1.2615         -DE/DX =    0.0                 !
 ! R8    R(4,5)                  1.3731         -DE/DX =    0.0                 !
 ! R9    R(4,9)                  1.0857         -DE/DX =   -0.0001              !
 ! R10   R(5,6)                  1.4109         -DE/DX =    0.0                 !
 ! R11   R(5,10)                 1.085          -DE/DX =    0.0                 !
 ! R12   R(6,11)                 1.0849         -DE/DX =    0.0                 !
 ! A1    A(2,1,6)              120.1399         -DE/DX =    0.0                 !
 ! A2    A(2,1,7)              120.4082         -DE/DX =    0.0                 !
 ! A3    A(6,1,7)              119.4518         -DE/DX =    0.0                 !
 ! A4    A(1,2,3)              120.3863         -DE/DX =    0.0                 !
 ! A5    A(1,2,8)              122.0016         -DE/DX =    0.0                 !
 ! A6    A(3,2,8)              117.6121         -DE/DX =    0.0                 !
 ! A7    A(2,3,4)              117.9845         -DE/DX =    0.0                 !
 ! A8    A(2,3,12)             121.008          -DE/DX =    0.0                 !
 ! A9    A(4,3,12)             121.0074         -DE/DX =    0.0                 !
 ! A10   A(3,4,5)              120.3865         -DE/DX =    0.0                 !
 ! A11   A(3,4,9)              117.6113         -DE/DX =    0.0                 !
 ! A12   A(5,4,9)              122.0022         -DE/DX =    0.0                 !
 ! A13   A(4,5,6)              120.1397         -DE/DX =    0.0                 !
 ! A14   A(4,5,10)             120.4091         -DE/DX =    0.0                 !
 ! A15   A(6,5,10)             119.4512         -DE/DX =    0.0                 !
 ! A16   A(1,6,5)              120.9631         -DE/DX =   -0.0001              !
 ! A17   A(1,6,11)             119.5189         -DE/DX =    0.0                 !
 ! A18   A(5,6,11)             119.518          -DE/DX =    0.0                 !
 ! D1    D(6,1,2,3)              0.0012         -DE/DX =    0.0                 !
 ! D2    D(6,1,2,8)            180.0014         -DE/DX =    0.0                 !
 ! D3    D(7,1,2,3)            180.0016         -DE/DX =    0.0                 !
 ! D4    D(7,1,2,8)              0.0017         -DE/DX =    0.0                 !
 ! D5    D(2,1,6,5)              0.0019         -DE/DX =    0.0                 !
 ! D6    D(2,1,6,11)           180.0007         -DE/DX =    0.0                 !
 ! D7    D(7,1,6,5)            180.0016         -DE/DX =    0.0                 !
 ! D8    D(7,1,6,11)             0.0004         -DE/DX =    0.0                 !
 ! D9    D(1,2,3,4)             -0.0046         -DE/DX =    0.0                 !
 ! D10   D(1,2,3,12)          -180.0001         -DE/DX =    0.0                 !
 ! D11   D(8,2,3,4)           -180.0047         -DE/DX =    0.0                 !
 ! D12   D(8,2,3,12)            -0.0002         -DE/DX =    0.0                 !
 ! D13   D(2,3,4,5)              0.0049         -DE/DX =    0.0                 !
 ! D14   D(2,3,4,9)            180.0041         -DE/DX =    0.0                 !
 ! D15   D(12,3,4,5)           180.0005         -DE/DX =    0.0                 !
 ! D16   D(12,3,4,9)            -0.0004         -DE/DX =    0.0                 !
 ! D17   D(3,4,5,6)             -0.002          -DE/DX =    0.0                 !
 ! D18   D(3,4,5,10)          -180.0021         -DE/DX =    0.0                 !
 ! D19   D(9,4,5,6)           -180.0011         -DE/DX =    0.0                 !
 ! D20   D(9,4,5,10)            -0.0012         -DE/DX =    0.0                 !
 ! D21   D(4,5,6,1)             -0.0015         -DE/DX =    0.0                 !
 ! D22   D(4,5,6,11)          -180.0004         -DE/DX =    0.0                 !
 ! D23   D(10,5,6,1)          -180.0014         -DE/DX =    0.0                 !
 ! D24   D(10,5,6,11)           -0.0002         -DE/DX =    0.0                 !
 --------------------------------------------------------------------------------
 GradGradGradGradGradGradGradGradGradGradGradGradGradGradGradGradGradGrad

 1|1|UNPC-DESKTOP-319GPER|Freq|UM062X|6-31+G(d,p)|C6H5O1(2)|SAGAD|01-Fe
 b-2021|0||#N Geom=AllCheck Guess=TCheck SCRF=Check GenChk UM062X/6-31+
 G(d,p) Freq||fenoxide||0,2|C,-0.7616207527,0.8782962089,0.0000698714|C
 ,0.6113648737,0.8633380604,0.0005318056|C,1.3583224452,2.1059677986,0.
 0000312338|C,0.6114832051,3.3486725055,-0.0010644128|C,-0.7614979362,3
 .3338508948,-0.0014997085|C,-1.4567251657,2.1061021445,-0.0009240367|H
 ,-1.3209792461,-0.0514405876,0.0004699083|H,1.176683563,-0.0636243918,
 0.0012738191|H,1.1769039455,4.2755736093,-0.001503348|H,-1.3207787658,
 4.2636345072,-0.0022849801|H,-2.54162627,2.106162342,-0.0012698781|O,2
 .6197877439,2.1059135781,0.000449166||Version=IA32W-G09RevA.02|State=2
 -A|HF=-306.7146244|S2=0.784562|S2-1=0.|S2A=0.75076|RMSD=2.709e-009|RMS
 F=3.291e-005|ZeroPoint=0.0923489|Thermal=0.097643|Dipole=-2.5671802,0.
 0001076,-0.0008937|DipoleDeriv=-0.6548698,0.4375684,-0.0003791,0.51323
 98,-0.1477842,0.0001083,-0.0004161,0.0001196,-0.1824317,0.4376064,-0.2
 315354,0.0002694,-0.1904036,-0.0822579,-0.0000763,0.0001847,-0.000081,
 -0.1399596,1.109594,-0.0002314,0.0003325,-0.0001544,0.37275,-0.0000762
 ,0.0004754,-0.0000777,0.2913508,0.4373934,0.2315875,0.0000598,0.190618
 7,-0.0823841,0.0000044,-0.0000336,0.0000475,-0.139965,-0.6545963,-0.43
 72231,0.0000275,-0.5131709,-0.1476253,-0.0002079,0.0002258,-0.000161,-
 0.1824283,0.5350989,-0.0001698,0.0002049,-0.0003425,0.5094594,-0.00025
 57,0.0000475,-0.0003355,-0.041857,0.0894082,-0.0659938,0.0000208,-0.08
 57838,-0.0071108,0.000112,0.0000436,0.0000943,0.1902103,0.0794823,0.05
 72233,-0.0000523,0.0546767,0.0214628,0.000089,-0.0000368,0.0001126,0.1
 911001,0.0794537,-0.0573328,0.000012,-0.0545675,0.0213475,0.0001123,0.
 0000424,0.0000829,0.1910993,0.0894303,0.0658827,-0.0000547,0.0858321,-
 0.0069605,0.0001233,-0.0000873,0.0001499,0.1902117,-0.0374336,-0.00000
 26,-0.0000867,-0.0000035,0.1174586,0.000041,-0.0000415,0.0000202,0.176
 015,-1.5105676,0.000227,-0.0003541,0.0000589,-0.5683557,0.0000259,-0.0
 004043,0.0000281,-0.5433455|Polar=163.0400257,-0.0162439,108.4880647,0
 .0396944,-0.0349809,53.2339167|PG=C01 [X(C6H5O1)]|NImag=0||0.70072521,
 0.07526155,0.69754783,0.00013964,-0.00033183,0.12556623,-0.39569419,-0
 .04380978,-0.00008297,0.75092222,0.02363181,-0.12955158,0.00005411,-0.
 07331869,0.66058570,-0.00012629,0.00003020,-0.05448891,0.00025175,-0.0
 0035441,0.11912790,-0.04836414,-0.01283508,-0.00001011,-0.08893394,-0.
 03272506,0.00001465,0.72181908,-0.02746276,0.02413479,-0.00002254,-0.0
 3767878,-0.24464721,0.00009118,0.00000228,0.58401922,0.00000020,-0.000
 01713,0.00180796,0.00001788,0.00009540,-0.07008485,0.00018775,-0.00026
 542,0.16831485,-0.03541428,0.02319092,-0.00002666,0.03520350,-0.003186
 20,0.00001009,-0.08893293,0.03765979,-0.00003412,0.75095633,0.00966893
 ,-0.00926941,0.00000931,0.00318774,-0.02984950,0.00002877,0.03270363,-
 0.24464376,0.00012805,0.07330760,0.66055944,-0.00001705,0.00001286,0.0
 0025693,0.00000380,0.00002374,0.01054018,-0.00002740,0.00013096,-0.070
 08550,0.00015895,-0.00033773,0.11912766,0.07210792,-0.02364844,0.00003
 907,-0.03541478,-0.00967591,-0.00000881,-0.04834641,0.02746770,-0.0000
 2872,-0.39571436,-0.02359001,-0.00009751,0.70073813,0.02364523,-0.0534
 8750,0.00004520,-0.02319375,-0.00927035,-0.00000255,0.01284931,0.02412
 709,-0.00000899,0.04383832,-0.12954638,0.00006419,-0.07528108,0.697533
 33,0.00000624,0.00003004,0.00459632,0.00000433,0.00000284,0.00025679,-
 0.00002644,-0.00000514,0.00180783,-0.00013814,0.00004166,-0.05448764,0
 .00023531,-0.00039775,0.12556709,-0.15659225,0.10478881,-0.00009758,-0
 .03872133,0.02787907,-0.00002918,0.02051455,0.00000068,0.00000694,-0.0
 3873083,-0.02787726,0.00000591,-0.15659820,-0.10478638,0.00003665,0.72
 408484,0.00761008,-0.25852288,0.00012459,0.08368256,0.01918098,0.00001
 995,-0.00000863,-0.01966099,0.00000436,-0.08367590,0.01917742,-0.00003
 618,-0.00761932,-0.25848414,0.00012693,-0.00001786,0.59441901,-0.00003
 511,0.00015790,-0.05929030,-0.00006781,-0.00000076,0.00299228,0.000009
 69,0.00000669,-0.00740166,0.00004184,-0.00001903,0.00299244,-0.0000299
 4,0.00009466,-0.05929204,0.00018755,-0.00029046,0.13580604,-0.13633178
 ,-0.12963974,0.00005007,-0.01137208,-0.02817637,0.00001187,-0.00293298
 ,0.00341292,-0.00000686,-0.00060348,0.00014212,0.00000045,-0.00128453,
 0.00308064,-0.00000439,0.01186766,0.01601171,-0.00000690,0.14011104,-0
 .12845162,-0.27311897,0.00010284,0.00240209,0.00582347,0.00000167,0.00
 176452,0.00088239,0.00000584,0.00082383,0.00052396,-0.00000051,0.00327
 143,-0.00298940,0.00000620,-0.01507633,-0.01684347,0.00000839,0.136800
 89,0.28461004,0.00005085,0.00010260,-0.04093225,-0.00000845,-0.0000092
 9,0.00614523,-0.00000555,0.00000747,0.01043081,0.00000007,-0.00000147,
 -0.00142484,-0.00000417,0.00000636,0.00568254,0.00001149,0.00001852,0.
 00349783,-0.00004871,-0.00011653,0.02718240,-0.00863212,0.02645597,-0.
 00002174,-0.13587344,0.13002695,-0.00011024,0.00972591,-0.01506571,0.0
 0001026,-0.00207287,-0.00302369,0.00000077,-0.00014335,-0.00010054,0.0
 0000009,-0.00544224,-0.00147294,-0.00000303,0.00142565,-0.00021731,0.0
 0000231,0.13867294,-0.00324174,0.00632445,-0.00000018,0.12955067,-0.27
 358099,0.00018529,0.01603617,-0.01668277,0.00001900,-0.00363656,-0.003
 29934,0.00000194,-0.00055864,0.00014959,-0.00000050,-0.00118713,0.0012
 3375,0.00000327,0.00035319,0.00049302,-0.00000334,-0.13883280,0.283196
 38,-0.00000369,0.00000970,0.00701888,-0.00010981,0.00018581,-0.0370500
 0,-0.00000745,0.00000797,0.00371326,0.,0.00000273,0.00301899,0.0000018
 6,-0.00000021,-0.00110302,-0.00000458,0.00000326,0.00881762,0.00000187
 ,-0.00000396,-0.00542395,0.00012107,-0.00020276,0.02400758,-0.00013996
 ,0.00010029,0.00000006,-0.00207441,0.00302179,-0.00000336,0.00972700,0
 .01506301,-0.00000853,-0.13589996,-0.13004187,0.00005515,-0.00863789,-
 0.02645590,0.00001223,-0.00544137,0.00147883,-0.00000524,0.00013797,-0
 .00013921,0.00000032,0.00057368,0.00077222,-0.00000055,0.13870314,0.00
 056746,0.00014774,-0.00000097,0.00363246,-0.00330164,0.00000596,-0.016
 03885,-0.01668456,0.00000742,-0.12956040,-0.27355261,0.00011620,0.0032
 3683,0.00632375,0.00000135,0.00118681,0.00124404,0.00000609,-0.0001447
 7,0.00001991,-0.00000056,-0.00077269,-0.00095973,0.00000065,0.13884727
 ,0.28316457,-0.00000022,-0.00000072,-0.00110303,-0.00000385,0.00000508
 ,0.00301896,0.00001280,0.00001908,0.00371326,0.00005440,0.00011524,-0.
 03705070,-0.00000613,-0.00000799,0.00701886,-0.00000606,0.00000474,0.0
 0881787,0.00000023,-0.00000071,-0.00065889,0.00000027,0.00000170,0.000
 73459,-0.00005581,-0.00012791,0.02400824,-0.00128129,-0.00308246,-0.00
 000063,-0.00060576,-0.00014189,0.00000092,-0.00293459,-0.00341275,-0.0
 0000278,-0.01136677,0.02817607,-0.00002391,-0.13631395,0.12962797,-0.0
 0011512,0.01186700,-0.01600874,0.00001384,0.00047478,-0.00075362,0.000
 00049,0.00013821,0.00014376,0.,0.00142562,-0.00035366,0.00000213,0.140
 08782,-0.00327683,-0.00298650,0.00000521,-0.00082010,0.00052416,-0.000
 00241,-0.00176308,0.00088301,0.00000693,-0.00240394,0.00582368,-0.0000
 0152,0.12844647,-0.27314020,0.00019356,0.01507345,-0.01685233,0.000017
 15,0.00075319,-0.00092141,0.00000093,0.00013858,0.00002184,-0.00000012
 ,0.00021700,0.00049316,-0.00000336,-0.13678913,0.28463510,-0.00000022,
 0.00000478,0.00568223,0.00000105,-0.00000111,-0.00142486,-0.00000307,0
 .00000488,0.01043108,-0.00000532,0.00000948,0.00614526,-0.00011311,0.0
 0019367,-0.04093260,-0.00000751,0.00000761,0.00349777,-0.00000039,0.00
 000052,0.00011147,0.00000021,-0.00000045,-0.00065885,0.00000214,-0.000
 00411,-0.00542409,0.00012560,-0.00021210,0.02718277,-0.00937840,-0.002
 07062,-0.00000392,0.00112905,0.00262192,-0.00000301,-0.00009661,0.0000
 0216,0.00000035,0.00112238,-0.00262361,0.00000033,-0.00937037,0.002076
 62,-0.00000662,-0.35140658,0.00000946,-0.00009899,0.00064834,-0.000168
 28,0.00000128,-0.00045513,-0.00021681,0.00000020,-0.00045450,0.0002177
 8,-0.00000005,0.00064777,0.00016942,0.00000103,0.36731010,0.02723829,0
 .00485102,0.00001035,0.00243569,-0.00472289,0.00000731,-0.00000031,-0.
 00127889,0.00000009,-0.00243635,-0.00472299,0.00000604,-0.02723726,0.0
 0485372,-0.00000714,0.00001627,-0.05976818,0.00001232,-0.00072757,0.00
 124354,-0.00000299,0.00133643,0.00018653,-0.00000022,-0.00133618,0.000
 18702,-0.00000113,0.00072778,0.00124312,-0.00000263,-0.00001719,0.0574
 7535,-0.00002271,0.00000083,0.00743203,-0.00000262,0.00000746,0.005605
 21,-0.00000063,0.00000055,-0.00094255,0.00000006,0.00000534,0.00560491
 ,0.00001295,0.00000306,0.00743201,-0.00009984,0.00001187,-0.04058172,0
 .00000166,-0.00000290,-0.00315573,-0.00000086,-0.00000069,-0.00083793,
 0.00000094,-0.00000067,-0.00083793,0.00000064,-0.00000268,-0.00315550,
 0.00010927,-0.00002168,0.02356485,0.01899528,-0.01471141,0.00001477,-0
 .07856483,-0.03995741,-0.00000839,-0.48124494,0.00001146,-0.00014238,-
 0.07854673,0.03997034,-0.00005948,0.01897779,0.01469956,-0.00000414,-0
 .01540125,0.00001076,-0.00000590,-0.00214058,-0.00025639,0.00000009,0.
 00208276,0.00081768,0.00000109,0.00208066,-0.00081824,0.00000230,-0.00
 213884,0.00025496,-0.00000042,0.00030394,0.00000040,0.00000113,0.61559
 675,-0.00519040,-0.00606900,0.00000391,-0.04607012,0.00880987,-0.00001
 097,0.00001511,-0.09044831,0.00002445,0.04607889,0.00879949,0.00002003
 ,0.00518823,-0.00606951,0.00000794,-0.00000013,-0.00512319,0.00000376,
 -0.00186621,0.00027692,-0.00000170,0.00152775,0.00291728,-0.00000284,-
 0.00152725,0.00291836,-0.00000402,0.00186667,0.00027635,-0.00000055,-0
 .00000084,0.00045263,-0.00000048,-0.00002170,0.08325910,0.00000836,0.0
 0000078,0.00345391,-0.00000331,-0.00000886,0.01536206,-0.00014426,0.00
 002432,-0.05170449,-0.00006117,0.00001765,0.01536231,-0.00000079,0.000
 01035,0.00345385,-0.00000378,0.00000481,0.00014388,0.00000109,-0.00000
 086,-0.00145462,0.00000090,-0.00000328,-0.00223718,0.00000266,-0.00000
 345,-0.00223715,-0.00000116,-0.00000159,-0.00145468,0.00000013,-0.0000
 0032,-0.00012765,0.00020134,-0.00003955,0.02143975||0.00000295,-0.0000
 3777,-0.00000098,-0.00007141,-0.00002620,-0.00000233,0.00007198,-0.000
 00161,0.00001013,-0.00007546,0.00002647,-0.00000361,0.00000887,0.00004
 335,-0.00000060,0.00009895,-0.00000515,0.00000064,-0.00001550,0.000011
 96,0.00000066,0.00002501,-0.00004327,-0.00000124,0.00002597,0.00004307
 ,-0.00000090,-0.00001665,-0.00001232,0.00000077,-0.00004898,0.00000067
 ,-0.00000010,-0.00000573,0.00000080,-0.00000245|||@


 IT IS WELL TO REMEMBER THAT MAN IS A PART OF NATURE AND THAT HIS WORKS,
 WHATEVER THEY MAY BE, ARE NO MORE "UNNATURAL" THAN 
 THE FLIGHT OF AN EAGLE OR THE PASSAGE OF A TORNADO.

                                    -- CHARLES MCCARRY IN "THE GREAT SOUTHWEST"
 Job cpu time:  0 days  0 hours  5 minutes 50.0 seconds.
 File lengths (MBytes):  RWF=     87 Int=      0 D2E=      0 Chk=      6 Scr=      1
 Normal termination of Gaussian 09 at Mon Feb 01 23:12:32 2021.
