 Entering Link 1 = C:\G09W\l1.exe PID=      9292.
  
 Copyright (c) 1988,1990,1992,1993,1995,1998,2003,2009, Gaussian, Inc.
                  All Rights Reserved.
  
 This is part of the Gaussian(R) 09 program.  It is based on
 the Gaussian(R) 03 system (copyright 2003, Gaussian, Inc.),
 the Gaussian(R) 98 system (copyright 1998, Gaussian, Inc.),
 the Gaussian(R) 94 system (copyright 1995, Gaussian, Inc.),
 the Gaussian 92(TM) system (copyright 1992, Gaussian, Inc.),
 the Gaussian 90(TM) system (copyright 1990, Gaussian, Inc.),
 the Gaussian 88(TM) system (copyright 1988, Gaussian, Inc.),
 the Gaussian 86(TM) system (copyright 1986, Carnegie Mellon
 University), and the Gaussian 82(TM) system (copyright 1983,
 Carnegie Mellon University). Gaussian is a federally registered
 trademark of Gaussian, Inc.
  
 This software contains proprietary and confidential information,
 including trade secrets, belonging to Gaussian, Inc.
  
 This software is provided under written license and may be
 used, copied, transmitted, or stored only in accord with that
 written license.
  
 The following legend is applicable only to US Government
 contracts under FAR:
  
                    RESTRICTED RIGHTS LEGEND
  
 Use, reproduction and disclosure by the US Government is
 subject to restrictions as set forth in subparagraphs (a)
 and (c) of the Commercial Computer Software - Restricted
 Rights clause in FAR 52.227-19.
  
 Gaussian, Inc.
 340 Quinnipiac St., Bldg. 40, Wallingford CT 06492
  
  
 ---------------------------------------------------------------
 Warning -- This program may not be used in any manner that
 competes with the business of Gaussian, Inc. or will provide
 assistance to any competitor of Gaussian, Inc.  The licensee
 of this program is prohibited from giving any competitor of
 Gaussian, Inc. access to this program.  By using this program,
 the user acknowledges that Gaussian, Inc. is engaged in the
 business of creating and licensing software in the field of
 computational chemistry and represents and warrants to the
 licensee that it is not a competitor of Gaussian, Inc. and that
 it will not use this program in any manner prohibited above.
 ---------------------------------------------------------------
  

 Cite this work as:
 Gaussian 09, Revision A.02,
 M. J. Frisch, G. W. Trucks, H. B. Schlegel, G. E. Scuseria, 
 M. A. Robb, J. R. Cheeseman, G. Scalmani, V. Barone, B. Mennucci, 
 G. A. Petersson, H. Nakatsuji, M. Caricato, X. Li, H. P. Hratchian, 
 A. F. Izmaylov, J. Bloino, G. Zheng, J. L. Sonnenberg, M. Hada, 
 M. Ehara, K. Toyota, R. Fukuda, J. Hasegawa, M. Ishida, T. Nakajima, 
 Y. Honda, O. Kitao, H. Nakai, T. Vreven, J. A. Montgomery, Jr., 
 J. E. Peralta, F. Ogliaro, M. Bearpark, J. J. Heyd, E. Brothers, 
 K. N. Kudin, V. N. Staroverov, R. Kobayashi, J. Normand, 
 K. Raghavachari, A. Rendell, J. C. Burant, S. S. Iyengar, J. Tomasi, 
 M. Cossi, N. Rega, J. M. Millam, M. Klene, J. E. Knox, J. B. Cross, 
 V. Bakken, C. Adamo, J. Jaramillo, R. Gomperts, R. E. Stratmann, 
 O. Yazyev, A. J. Austin, R. Cammi, C. Pomelli, J. W. Ochterski, 
 R. L. Martin, K. Morokuma, V. G. Zakrzewski, G. A. Voth, 
 P. Salvador, J. J. Dannenberg, S. Dapprich, A. D. Daniels, 
 O. Farkas, J. B. Foresman, J. V. Ortiz, J. Cioslowski, 
 and D. J. Fox, Gaussian, Inc., Wallingford CT, 2009.
 
 ******************************************
 Gaussian 09:  IA32W-G09RevA.02 11-Jun-2009
                05-Feb-2021 
 ******************************************
 %chk=D:\Documents\rayGit\FQ\quimicaComputacional\proyecto\decompositionHydrogenP
 eroxide\descompositionByRadicals\solvated\step1\products\hidroxylRadical.chk
 %mem=1500MB
 %nprocshared=4
 Will use up to    4 processors via shared memory.
 -------------------------------------
 # opt freq 6-31+g(d,p) scrf=smd m062x
 -------------------------------------
 1/14=-1,18=20,19=15,26=3,38=1/1,3;
 2/9=110,12=2,17=6,18=5,40=1/2;
 3/5=1,6=6,7=111,11=2,16=1,25=1,30=1,70=32201,71=1,72=1,74=-55/1,2,3;
 4//1;
 5/5=2,38=5/2;
 6/7=2,8=2,9=2,10=2,28=1/1;
 7//1,2,3,16;
 1/14=-1,18=20,19=15/3(2);
 2/9=110/2;
 99//99;
 2/9=110/2;
 3/5=1,6=6,7=111,11=2,16=1,25=1,30=1,70=32205,71=1,74=-55/1,2,3;
 4/5=5,16=3/1;
 5/5=2,38=5/2;
 7//1,2,3,16;
 1/14=-1,18=20,19=15/3(-5);
 2/9=110/2;
 6/7=2,8=2,9=2,10=2,19=2,28=1/1;
 99/9=1/99;
 ---------------------------
 Hidroxyl radical with m062x
 ---------------------------
 Symbolic Z-matrix:
 Charge =  0 Multiplicity = 2
 O                    -0.65177  -0.0075    0. 
 H                    -0.97222  -0.0075   -0.90494 
 

 GradGradGradGradGradGradGradGradGradGradGradGradGradGradGradGradGradGrad
 Berny optimization.
 Initialization pass.
                           ----------------------------
                           !    Initial Parameters    !
                           ! (Angstroms and Degrees)  !
 --------------------------                            --------------------------
 ! Name  Definition              Value          Derivative Info.                !
 --------------------------------------------------------------------------------
 ! R1    R(1,2)                  0.96           estimate D2E/DX2                !
 --------------------------------------------------------------------------------
 Trust Radius=3.00D-01 FncErr=1.00D-07 GrdErr=1.00D-06
 Number of steps in this run=  20 maximum allowed number of steps= 100.
 GradGradGradGradGradGradGradGradGradGradGradGradGradGradGradGradGradGrad

                          Input orientation:                          
 ---------------------------------------------------------------------
 Center     Atomic      Atomic             Coordinates (Angstroms)
 Number     Number       Type             X           Y           Z
 ---------------------------------------------------------------------
      1          8           0       -0.651768   -0.007500    0.000000
      2          1           0       -0.972222   -0.007500   -0.904936
 ---------------------------------------------------------------------
 Stoichiometry    HO(2)
 Framework group  C*V[C*(HO)]
 Deg. of freedom     1
 Full point group                 C*V     NOp   4
 Largest Abelian subgroup         C2V     NOp   4
 Largest concise Abelian subgroup C1      NOp   1
                         Standard orientation:                         
 ---------------------------------------------------------------------
 Center     Atomic      Atomic             Coordinates (Angstroms)
 Number     Number       Type             X           Y           Z
 ---------------------------------------------------------------------
      1          8           0        0.000000    0.000000    0.106667
      2          1           0        0.000000    0.000000   -0.853333
 ---------------------------------------------------------------------
 Rotational constants (GHZ):      0.0000000    578.3977106    578.3977106
 Standard basis: 6-31+G(d,p) (6D, 7F)
 There are    13 symmetry adapted basis functions of A1  symmetry.
 There are     1 symmetry adapted basis functions of A2  symmetry.
 There are     5 symmetry adapted basis functions of B1  symmetry.
 There are     5 symmetry adapted basis functions of B2  symmetry.
 Integral buffers will be    262144 words long.
 Raffenetti 2 integral format.
 Two-electron integral symmetry is turned on.
    24 basis functions,    39 primitive gaussians,    24 cartesian basis functions
     5 alpha electrons        4 beta electrons
       nuclear repulsion energy         4.4098100700 Hartrees.
 NAtoms=    2 NActive=    2 NUniq=    2 SFac= 7.50D-01 NAtFMM=   80 NAOKFM=F Big=F
 ------------------------------------------------------------------------------
 Polarizable Continuum Model (PCM)
 =================================
 Model                : PCM.
 Atomic radii         : SMD-Coulomb.
 Polarization charges : Total charges.
 Charge compensation  : None.
 Solution method      : Matrix inversion.
 Cavity type          : VdW (van der Waals Surface) (Alpha=1.000).
 Cavity algorithm     : GePol (No added spheres)
                        Default sphere list used, NSphG=    2.
                        Lebedev-Laikov grids with approx.  5.0 points / Ang**2.
                        Smoothing algorithm: Karplus/York (Gamma=1.0000).
                        Polarization charges: spherical gaussians, with
                                              point-specific exponents (IZeta= 3).
                        Self-potential: point-specific (ISelfS= 7).
                        Self-field    : sphere-specific E.n sum rule (ISelfD= 2).
 1st derivatives      : Analytical E(r).r(x)/FMM algorithm (CHGder, D1EAlg=3).
                        Cavity 1st derivative terms included.
 Solvent              : Water, Eps=  78.355300 Eps(inf)=   1.777849
 ------------------------------------------------------------------------------
 Spheres list:
 ISph  on   Nord    Re0     Alpha      Xe            Ye            Ze
    1   O      1    1.520   1.000      0.000000      0.000000      0.106667
    2   H      2    1.200   1.000      0.000000      0.000000     -0.853333
 ------------------------------------------------------------------------------
 ------------------------------------------------------------------------------
 Atomic radii for non-electrostatic terms: SMD-CDS.
 ------------------------------------------------------------------------------
 Nuclear repulsion after PCM non-electrostatic terms =        4.4109679415 Hartrees.
 One-electron integrals computed using PRISM.
 NBasis=    24 RedAO= T  NBF=    13     1     5     5
 NBsUse=    24 1.00D-06 NBFU=    13     1     5     5
 Harris functional with IExCor= 1009 diagonalized for initial guess.
 ExpMin= 8.45D-02 ExpMax= 5.48D+03 ExpMxC= 8.25D+02 IAcc=2 IRadAn=         0 AccDes= 0.00D+00
 HarFok:  IExCor= 1009 AccDes= 0.00D+00 IRadAn=         0 IDoV= 1
 ScaDFX=  1.000000  1.000000  1.000000  1.000000
 FoFCou: FMM=F IPFlag=           0 FMFlag=      100000 FMFlg1=           0
         NFxFlg=           0 DoJE=T BraDBF=F KetDBF=T FulRan=T
         Omega=  0.000000  0.000000  1.000000  0.000000  0.000000 ICntrl=     500 IOpCl=  0
         NMat0=    1 NMatS0=    1 NMatT0=    0 NMatD0=    1 NMtDS0=    0 NMtDT0=    0
         I1Cent=           4 NGrid=           0.
 Petite list used in FoFCou.
 Initial guess orbital symmetries:
 Alpha Orbitals:
       Occupied  (SG) (SG) (SG) (PI) (PI)
       Virtual   (SG) (SG) (PI) (PI) (SG) (SG) (PI) (PI) (SG) (SG)
                 (PI) (PI) (DLTA) (DLTA) (SG) (PI) (PI) (SG) (SG)
 Beta  Orbitals:
       Occupied  (SG) (SG) (SG) (PI)
       Virtual   (PI) (SG) (SG) (PI) (PI) (SG) (SG) (PI) (PI) (SG)
                 (SG) (PI) (PI) (DLTA) (DLTA) (SG) (PI) (PI) (SG)
                 (SG)
 Initial guess <Sx>= 0.0000 <Sy>= 0.0000 <Sz>= 0.5000 <S**2>= 0.7500 S= 0.5000
 Requested convergence on RMS density matrix=1.00D-08 within 128 cycles.
 Requested convergence on MAX density matrix=1.00D-06.
 Requested convergence on             energy=1.00D-06.
 No special actions if energy rises.
 Keep R1 and R2 ints in memory in canonical form, NReq=3012135.
 Error on total polarization charges =  0.02399
 SCF Done:  E(UM062X) =  -75.7111210283     A.U. after   10 cycles
             Convg  =    0.3849D-08             -V/T =  2.0081
 <Sx>= 0.0000 <Sy>= 0.0000 <Sz>= 0.5000 <S**2>= 0.7527 S= 0.5014
 <L.S>= 0.000000000000E+00
 SMD-CDS (non-electrostatic) energy             (kcal/mol) =       0.73
 (included in total energy above)
 Annihilation of the first spin contaminant:
 S**2 before annihilation     0.7527,   after     0.7500

 **********************************************************************

            Population analysis using the SCF density.

 **********************************************************************

 Orbital symmetries:
 Alpha Orbitals:
       Occupied  (SG) (SG) (SG) (PI) (PI)
       Virtual   (SG) (SG) (PI) (PI) (SG) (SG) (PI) (PI) (SG) (SG)
                 (PI) (PI) (DLTA) (DLTA) (SG) (PI) (PI) (SG) (SG)
 Beta  Orbitals:
       Occupied  (SG) (SG) (SG) (?A)
       Virtual   (?A) (SG) (SG) (?A) (?A) (SG) (SG) (PI) (SG) (PI)
                 (SG) (PI) (PI) (DLTA) (DLTA) (SG) (PI) (PI) (SG)
                 (SG)
 Unable to determine electronic state:  an orbital has unidentified symmetry.
 Alpha  occ. eigenvalues --  -19.71693  -1.14397  -0.56484  -0.50000  -0.43958
 Alpha virt. eigenvalues --    0.10057   0.16015   0.17455   0.17607   0.27892
 Alpha virt. eigenvalues --    1.01639   1.12473   1.16620   1.17464   1.23321
 Alpha virt. eigenvalues --    1.57844   1.60272   1.79806   1.79962   2.43773
 Alpha virt. eigenvalues --    2.66319   2.67962   3.39385   3.79428
  Beta  occ. eigenvalues --  -19.70012  -1.06193  -0.53252  -0.40367
  Beta virt. eigenvalues --   -0.10319   0.09268   0.16173   0.18082   0.18629
  Beta virt. eigenvalues --    0.28282   1.03436   1.18094   1.18353   1.20271
  Beta virt. eigenvalues --    1.24013   1.61750   1.62136   1.84870   1.86645
  Beta virt. eigenvalues --    2.46271   2.67933   2.68446   3.41158   3.83115
          Condensed to atoms (all electrons):
              1          2
     1  O    8.166382   0.256148
     2  H    0.256148   0.321321
 Mulliken atomic charges:
              1
     1  O   -0.422531
     2  H    0.422531
 Sum of Mulliken atomic charges =   0.00000
 Mulliken charges with hydrogens summed into heavy atoms:
              1
     1  O    0.000000
 Sum of Mulliken charges with hydrogens summed into heavy atoms =   0.00000
          Atomic-Atomic Spin Densities.
              1          2
     1  O    1.027236  -0.001972
     2  H   -0.001972  -0.023291
 Mulliken atomic spin densities:
              1
     1  O    1.025264
     2  H   -0.025264
 Sum of Mulliken atomic spin densities =   1.00000
 Electronic spatial extent (au):  <R**2>=             15.5865
 Charge=              0.0000 electrons
 Dipole moment (field-independent basis, Debye):
    X=              0.0000    Y=              0.0000    Z=             -2.2418  Tot=              2.2418
 Quadrupole moment (field-independent basis, Debye-Ang):
   XX=             -6.9303   YY=             -5.5390   ZZ=             -4.5603
   XY=              0.0000   XZ=              0.0000   YZ=              0.0000
 Traceless Quadrupole moment (field-independent basis, Debye-Ang):
   XX=             -1.2538   YY=              0.1375   ZZ=              1.1163
   XY=              0.0000   XZ=              0.0000   YZ=              0.0000
 Octapole moment (field-independent basis, Debye-Ang**2):
  XXX=              0.0000  YYY=              0.0000  ZZZ=             -2.7128  XYY=              0.0000
  XXY=              0.0000  XXZ=             -0.5012  XZZ=              0.0000  YZZ=              0.0000
  YYZ=             -0.3723  XYZ=              0.0000
 Hexadecapole moment (field-independent basis, Debye-Ang**3):
 XXXX=             -6.4430 YYYY=             -4.0927 ZZZZ=             -5.3209 XXXY=              0.0000
 XXXZ=              0.0000 YYYX=              0.0000 YYYZ=              0.0000 ZZZX=              0.0000
 ZZZY=              0.0000 XXYY=             -1.7559 XXZZ=             -2.2270 YYZZ=             -1.8182
 XXYZ=              0.0000 YYXZ=              0.0000 ZZXY=              0.0000
 N-N= 4.410967941504D+00 E-N=-2.767147277436D+02  KE= 1.112729902369D+02
 Symmetry A1   KE= 1.019141606626D+02
 Symmetry A2   KE= 2.008021738497D-35
 Symmetry B1   KE= 6.880718774475D+00
 Symmetry B2   KE= 2.478110799852D+00
                          Isotropic Fermi Contact Couplings
        Atom                 a.u.       MegaHertz       Gauss      10(-4) cm-1
     1  O(17)              0.16185     -98.11190     -35.00876     -32.72661
     2  H(1)              -0.01481     -66.21766     -23.62811     -22.08783
 --------------------------------------------------------
       Center         ----  Spin Dipole Couplings  ----
                      3XX-RR        3YY-RR        3ZZ-RR
 --------------------------------------------------------
     1   Atom       -1.735978      3.494494     -1.758516
     2   Atom       -0.136871     -0.040438      0.177309
 --------------------------------------------------------
                        XY            XZ            YZ
 --------------------------------------------------------
     1   Atom        0.000000      0.000000      0.000000
     2   Atom        0.000000      0.000000      0.000000
 --------------------------------------------------------


 ---------------------------------------------------------------------------------
              Anisotropic Spin Dipole Couplings in Principal Axis System
 ---------------------------------------------------------------------------------

       Atom             a.u.   MegaHertz   Gauss  10(-4) cm-1        Axes

              Baa    -1.7585   127.245    45.404    42.444  0.0000  0.0000  1.0000
     1 O(17)  Bbb    -1.7360   125.614    44.822    41.900  1.0000  0.0000  0.0000
              Bcc     3.4945  -252.859   -90.226   -84.345  0.0000  1.0000  0.0000
 
              Baa    -0.1369   -73.028   -26.058   -24.359  1.0000  0.0000  0.0000
     2 H(1)   Bbb    -0.0404   -21.576    -7.699    -7.197  0.0000  1.0000  0.0000
              Bcc     0.1773    94.604    33.757    31.556  0.0000  0.0000  1.0000
 

 ---------------------------------------------------------------------------------

 D1PCM: PCM CHGder 1st derivatives, ID1Alg=3 FixD1E=F DoIter=F DoCFld=F I1PDM=0.
 Calling FoFJK, ICntrl=      2127 FMM=F ISym2X=1 I1Cent= 0 IOpClX= 1 NMat=1 NMatS=1 NMatT=0.
 ***** Axes restored to original set *****
 -------------------------------------------------------------------
 Center     Atomic                   Forces (Hartrees/Bohr)
 Number     Number              X              Y              Z
 -------------------------------------------------------------------
      1        8           0.006180015    0.000000000    0.017451824
      2        1          -0.006180015    0.000000000   -0.017451824
 -------------------------------------------------------------------
 Cartesian Forces:  Max     0.017451824 RMS     0.010688915

 GradGradGradGradGradGradGradGradGradGradGradGradGradGradGradGradGradGrad
 Berny optimization.
 Internal  Forces:  Max     0.018513744 RMS     0.018513744
 Search for a local minimum.
 Step number   1 out of a maximum of   20
 All quantities printed in internal units (Hartrees-Bohrs-Radians)
 Mixed Optimization -- RFO/linear search
 Second derivative matrix not updated -- first step.
 The second derivative matrix:
                          R1
           R1           0.55473
     Eigenvalues ---    0.55473
 RFO step:  Lambda=-6.17192711D-04 EMin= 5.54734036D-01
 Linear search not attempted -- first point.
 Iteration  1 RMS(Cart)=  0.02357282 RMS(Int)=  0.00000000
 Iteration  2 RMS(Cart)=  0.00000000 RMS(Int)=  0.00000000
 ClnCor:  largest displacement from symmetrization is 2.22D-16 for atom     2.
 Variable       Old X    -DE/DX   Delta X   Delta X   Delta X     New X
                                 (Linear)    (Quad)   (Total)
    R1        1.81414   0.01851   0.00000   0.03334   0.03334   1.84747
         Item               Value     Threshold  Converged?
 Maximum Force            0.018514     0.000450     NO 
 RMS     Force            0.018514     0.000300     NO 
 Maximum Displacement     0.015712     0.001800     NO 
 RMS     Displacement     0.023573     0.001200     NO 
 Predicted change in Energy=-3.089393D-04
 GradGradGradGradGradGradGradGradGradGradGradGradGradGradGradGradGradGrad

                          Input orientation:                          
 ---------------------------------------------------------------------
 Center     Atomic      Atomic             Coordinates (Angstroms)
 Number     Number       Type             X           Y           Z
 ---------------------------------------------------------------------
      1          8           0       -0.648823   -0.007500    0.008315
      2          1           0       -0.975167   -0.007500   -0.913250
 ---------------------------------------------------------------------
 Stoichiometry    HO(2)
 Framework group  C*V[C*(HO)]
 Deg. of freedom     1
 Full point group                 C*V     NOp   4
 Largest Abelian subgroup         C2V     NOp   4
 Largest concise Abelian subgroup C1      NOp   1
                         Standard orientation:                         
 ---------------------------------------------------------------------
 Center     Atomic      Atomic             Coordinates (Angstroms)
 Number     Number       Type             X           Y           Z
 ---------------------------------------------------------------------
      1          8           0        0.000000    0.000000    0.108627
      2          1           0        0.000000    0.000000   -0.869014
 ---------------------------------------------------------------------
 Rotational constants (GHZ):      0.0000000    557.7120877    557.7120877
 Standard basis: 6-31+G(d,p) (6D, 7F)
 There are    13 symmetry adapted basis functions of A1  symmetry.
 There are     1 symmetry adapted basis functions of A2  symmetry.
 There are     5 symmetry adapted basis functions of B1  symmetry.
 There are     5 symmetry adapted basis functions of B2  symmetry.
 Integral buffers will be    262144 words long.
 Raffenetti 2 integral format.
 Two-electron integral symmetry is turned on.
    24 basis functions,    39 primitive gaussians,    24 cartesian basis functions
     5 alpha electrons        4 beta electrons
       nuclear repulsion energy         4.3302366444 Hartrees.
 NAtoms=    2 NActive=    2 NUniq=    2 SFac= 7.50D-01 NAtFMM=   80 NAOKFM=F Big=F
 ------------------------------------------------------------------------------
 Polarizable Continuum Model (PCM)
 =================================
 Model                : PCM.
 Atomic radii         : SMD-Coulomb.
 Polarization charges : Total charges.
 Charge compensation  : None.
 Solution method      : Matrix inversion.
 Cavity type          : VdW (van der Waals Surface) (Alpha=1.000).
 Cavity algorithm     : GePol (No added spheres)
                        Default sphere list used, NSphG=    2.
                        Lebedev-Laikov grids with approx.  5.0 points / Ang**2.
                        Smoothing algorithm: Karplus/York (Gamma=1.0000).
                        Polarization charges: spherical gaussians, with
                                              point-specific exponents (IZeta= 3).
                        Self-potential: point-specific (ISelfS= 7).
                        Self-field    : sphere-specific E.n sum rule (ISelfD= 2).
 1st derivatives      : Analytical E(r).r(x)/FMM algorithm (CHGder, D1EAlg=3).
                        Cavity 1st derivative terms included.
 Solvent              : Water, Eps=  78.355300 Eps(inf)=   1.777849
 ------------------------------------------------------------------------------
 Spheres list:
 ISph  on   Nord    Re0     Alpha      Xe            Ye            Ze
    1   O      1    1.520   1.000      0.000000      0.000000      0.108627
    2   H      2    1.200   1.000      0.000000      0.000000     -0.869014
 ------------------------------------------------------------------------------
 ------------------------------------------------------------------------------
 Atomic radii for non-electrostatic terms: SMD-CDS.
 ------------------------------------------------------------------------------
 Nuclear repulsion after PCM non-electrostatic terms =        4.3314102707 Hartrees.
 One-electron integrals computed using PRISM.
 NBasis=    24 RedAO= T  NBF=    13     1     5     5
 NBsUse=    24 1.00D-06 NBFU=    13     1     5     5
 Initial guess read from the read-write file.
 B after Tr=     0.000000    0.000000    0.000000
         Rot=    1.000000    0.000000    0.000000    0.000000 Ang=   0.00 deg.
 Initial guess orbital symmetries:
 Alpha Orbitals:
       Occupied  (SG) (SG) (SG) (PI) (PI)
       Virtual   (SG) (SG) (PI) (PI) (SG) (SG) (PI) (PI) (SG) (SG)
                 (PI) (PI) (DLTA) (DLTA) (SG) (PI) (PI) (SG) (SG)
 Beta  Orbitals:
       Occupied  (SG) (SG) (SG) (?A)
       Virtual   (?A) (SG) (SG) (?A) (?A) (SG) (SG) (PI) (SG) (PI)
                 (SG) (PI) (PI) (DLTA) (DLTA) (SG) (PI) (PI) (SG)
                 (SG)
 Initial guess <Sx>= 0.0000 <Sy>= 0.0000 <Sz>= 0.5000 <S**2>= 0.7528 S= 0.5014
 Requested convergence on RMS density matrix=1.00D-08 within 128 cycles.
 Requested convergence on MAX density matrix=1.00D-06.
 Requested convergence on             energy=1.00D-06.
 No special actions if energy rises.
 Keep R1 and R2 ints in memory in canonical form, NReq=3012135.
 Error on total polarization charges =  0.02415
 SCF Done:  E(UM062X) =  -75.7114370928     A.U. after    9 cycles
             Convg  =    0.9944D-09             -V/T =  2.0085
 <Sx>= 0.0000 <Sy>= 0.0000 <Sz>= 0.5000 <S**2>= 0.7528 S= 0.5014
 <L.S>= 0.000000000000E+00
 SMD-CDS (non-electrostatic) energy             (kcal/mol) =       0.74
 (included in total energy above)
 Annihilation of the first spin contaminant:
 S**2 before annihilation     0.7528,   after     0.7500
 D1PCM: PCM CHGder 1st derivatives, ID1Alg=3 FixD1E=F DoIter=F DoCFld=F I1PDM=0.
 Calling FoFJK, ICntrl=      2127 FMM=F ISym2X=1 I1Cent= 0 IOpClX= 1 NMat=1 NMatS=1 NMatT=0.
 ***** Axes restored to original set *****
 -------------------------------------------------------------------
 Center     Atomic                   Forces (Hartrees/Bohr)
 Number     Number              X              Y              Z
 -------------------------------------------------------------------
      1        8           0.000269963    0.000000000    0.000762351
      2        1          -0.000269963    0.000000000   -0.000762351
 -------------------------------------------------------------------
 Cartesian Forces:  Max     0.000762351 RMS     0.000466926

 GradGradGradGradGradGradGradGradGradGradGradGradGradGradGradGradGradGrad
 Berny optimization.
 Using GEDIIS/GDIIS optimizer.
 Internal  Forces:  Max     0.000808739 RMS     0.000808739
 Search for a local minimum.
 Step number   2 out of a maximum of   20
 All quantities printed in internal units (Hartrees-Bohrs-Radians)
 Mixed Optimization -- En-DIIS/RFO-DIIS
 Update second derivatives using D2CorX and points    1    2
 DE= -3.16D-04 DEPred=-3.09D-04 R= 1.02D+00
 SS=  1.41D+00  RLast= 3.33D-02 DXNew= 5.0454D-01 1.0001D-01
 Trust test= 1.02D+00 RLast= 3.33D-02 DXMaxT set to 3.00D-01
 The second derivative matrix:
                          R1
           R1           0.53109
 Use linear search instead of GDIIS.
     Eigenvalues ---    0.53109
 RFO step:  Lambda= 0.00000000D+00 EMin= 5.31091723D-01
 Quartic linear search produced a step of  0.04877.
 Iteration  1 RMS(Cart)=  0.00114964 RMS(Int)=  0.00000000
 Iteration  2 RMS(Cart)=  0.00000000 RMS(Int)=  0.00000000
 ClnCor:  largest displacement from symmetrization is 2.22D-16 for atom     2.
 Variable       Old X    -DE/DX   Delta X   Delta X   Delta X     New X
                                 (Linear)    (Quad)   (Total)
    R1        1.84747   0.00081   0.00163   0.00000   0.00163   1.84910
         Item               Value     Threshold  Converged?
 Maximum Force            0.000809     0.000450     NO 
 RMS     Force            0.000809     0.000300     NO 
 Maximum Displacement     0.000766     0.001800     YES
 RMS     Displacement     0.001150     0.001200     YES
 Predicted change in Energy=-6.129485D-07
 GradGradGradGradGradGradGradGradGradGradGradGradGradGradGradGradGradGrad

                          Input orientation:                          
 ---------------------------------------------------------------------
 Center     Atomic      Atomic             Coordinates (Angstroms)
 Number     Number       Type             X           Y           Z
 ---------------------------------------------------------------------
      1          8           0       -0.648680   -0.007500    0.008720
      2          1           0       -0.975310   -0.007500   -0.913656
 ---------------------------------------------------------------------
 Stoichiometry    HO(2)
 Framework group  C*V[C*(HO)]
 Deg. of freedom     1
 Full point group                 C*V     NOp   4
 Largest Abelian subgroup         C2V     NOp   4
 Largest concise Abelian subgroup C1      NOp   1
                         Standard orientation:                         
 ---------------------------------------------------------------------
 Center     Atomic      Atomic             Coordinates (Angstroms)
 Number     Number       Type             X           Y           Z
 ---------------------------------------------------------------------
      1          8           0        0.000000    0.000000    0.108722
      2          1           0        0.000000    0.000000   -0.869779
 ---------------------------------------------------------------------
 Rotational constants (GHZ):      0.0000000    556.7317734    556.7317734
 Standard basis: 6-31+G(d,p) (6D, 7F)
 There are    13 symmetry adapted basis functions of A1  symmetry.
 There are     1 symmetry adapted basis functions of A2  symmetry.
 There are     5 symmetry adapted basis functions of B1  symmetry.
 There are     5 symmetry adapted basis functions of B2  symmetry.
 Integral buffers will be    262144 words long.
 Raffenetti 2 integral format.
 Two-electron integral symmetry is turned on.
    24 basis functions,    39 primitive gaussians,    24 cartesian basis functions
     5 alpha electrons        4 beta electrons
       nuclear repulsion energy         4.3264292500 Hartrees.
 NAtoms=    2 NActive=    2 NUniq=    2 SFac= 7.50D-01 NAtFMM=   80 NAOKFM=F Big=F
 ------------------------------------------------------------------------------
 Polarizable Continuum Model (PCM)
 =================================
 Model                : PCM.
 Atomic radii         : SMD-Coulomb.
 Polarization charges : Total charges.
 Charge compensation  : None.
 Solution method      : Matrix inversion.
 Cavity type          : VdW (van der Waals Surface) (Alpha=1.000).
 Cavity algorithm     : GePol (No added spheres)
                        Default sphere list used, NSphG=    2.
                        Lebedev-Laikov grids with approx.  5.0 points / Ang**2.
                        Smoothing algorithm: Karplus/York (Gamma=1.0000).
                        Polarization charges: spherical gaussians, with
                                              point-specific exponents (IZeta= 3).
                        Self-potential: point-specific (ISelfS= 7).
                        Self-field    : sphere-specific E.n sum rule (ISelfD= 2).
 1st derivatives      : Analytical E(r).r(x)/FMM algorithm (CHGder, D1EAlg=3).
                        Cavity 1st derivative terms included.
 Solvent              : Water, Eps=  78.355300 Eps(inf)=   1.777849
 ------------------------------------------------------------------------------
 Spheres list:
 ISph  on   Nord    Re0     Alpha      Xe            Ye            Ze
    1   O      1    1.520   1.000      0.000000      0.000000      0.108722
    2   H      2    1.200   1.000      0.000000      0.000000     -0.869779
 ------------------------------------------------------------------------------
 ------------------------------------------------------------------------------
 Atomic radii for non-electrostatic terms: SMD-CDS.
 ------------------------------------------------------------------------------
 Nuclear repulsion after PCM non-electrostatic terms =        4.3276036530 Hartrees.
 One-electron integrals computed using PRISM.
 NBasis=    24 RedAO= T  NBF=    13     1     5     5
 NBsUse=    24 1.00D-06 NBFU=    13     1     5     5
 Initial guess read from the read-write file.
 B after Tr=     0.000000    0.000000    0.000000
         Rot=    1.000000    0.000000    0.000000    0.000000 Ang=   0.00 deg.
 Initial guess orbital symmetries:
 Alpha Orbitals:
       Occupied  (SG) (SG) (SG) (PI) (PI)
       Virtual   (SG) (SG) (PI) (PI) (SG) (SG) (PI) (PI) (SG) (SG)
                 (PI) (PI) (DLTA) (DLTA) (SG) (PI) (PI) (SG) (SG)
 Beta  Orbitals:
       Occupied  (SG) (SG) (SG) (?A)
       Virtual   (?A) (SG) (SG) (?A) (?A) (SG) (SG) (PI) (SG) (PI)
                 (SG) (PI) (PI) (DLTA) (DLTA) (SG) (PI) (PI) (SG)
                 (SG)
 Initial guess <Sx>= 0.0000 <Sy>= 0.0000 <Sz>= 0.5000 <S**2>= 0.7528 S= 0.5014
 Requested convergence on RMS density matrix=1.00D-08 within 128 cycles.
 Requested convergence on MAX density matrix=1.00D-06.
 Requested convergence on             energy=1.00D-06.
 No special actions if energy rises.
 Keep R1 and R2 ints in memory in canonical form, NReq=3012135.
 Error on total polarization charges =  0.02416
 SCF Done:  E(UM062X) =  -75.7114377475     A.U. after    7 cycles
             Convg  =    0.5653D-08             -V/T =  2.0086
 <Sx>= 0.0000 <Sy>= 0.0000 <Sz>= 0.5000 <S**2>= 0.7528 S= 0.5014
 <L.S>= 0.000000000000E+00
 SMD-CDS (non-electrostatic) energy             (kcal/mol) =       0.74
 (included in total energy above)
 Annihilation of the first spin contaminant:
 S**2 before annihilation     0.7528,   after     0.7500
 D1PCM: PCM CHGder 1st derivatives, ID1Alg=3 FixD1E=F DoIter=F DoCFld=F I1PDM=0.
 Calling FoFJK, ICntrl=      2127 FMM=F ISym2X=1 I1Cent= 0 IOpClX= 1 NMat=1 NMatS=1 NMatT=0.
 ***** Axes restored to original set *****
 -------------------------------------------------------------------
 Center     Atomic                   Forces (Hartrees/Bohr)
 Number     Number              X              Y              Z
 -------------------------------------------------------------------
      1        8          -0.000000888    0.000000000   -0.000002509
      2        1           0.000000888    0.000000000    0.000002509
 -------------------------------------------------------------------
 Cartesian Forces:  Max     0.000002509 RMS     0.000001537

 GradGradGradGradGradGradGradGradGradGradGradGradGradGradGradGradGradGrad
 Berny optimization.
 Using GEDIIS/GDIIS optimizer.
 Internal  Forces:  Max     0.000002661 RMS     0.000002661
 Search for a local minimum.
 Step number   3 out of a maximum of   20
 All quantities printed in internal units (Hartrees-Bohrs-Radians)
 Mixed Optimization -- En-DIIS/RFO-DIIS
 Swaping is turned off.
 Update second derivatives using D2CorX and points    2    3
 DE= -6.55D-07 DEPred=-6.13D-07 R= 1.07D+00
 Trust test= 1.07D+00 RLast= 1.63D-03 DXMaxT set to 3.00D-01
 The second derivative matrix:
                          R1
           R1           0.49907
     Eigenvalues ---    0.49907
 En-DIIS/RFO-DIIS IScMMF=        0 using points:     3    2
 RFO step:  Lambda=-1.00261466D-11.
 DIIS coeffs:      0.99672      0.00328
 Iteration  1 RMS(Cart)=  0.00000377 RMS(Int)=  0.00000000
 Iteration  2 RMS(Cart)=  0.00000000 RMS(Int)=  0.00000000
 ClnCor:  largest displacement from symmetrization is 3.82D-17 for atom     1.
 Variable       Old X    -DE/DX   Delta X   Delta X   Delta X     New X
                                  (DIIS)     (GDIIS)  (Total)
    R1        1.84910   0.00000  -0.00001   0.00000  -0.00001   1.84909
         Item               Value     Threshold  Converged?
 Maximum Force            0.000003     0.000450     YES
 RMS     Force            0.000003     0.000300     YES
 Maximum Displacement     0.000003     0.001800     YES
 RMS     Displacement     0.000004     0.001200     YES
 Predicted change in Energy=-7.096204D-12
 Optimization completed.
    -- Stationary point found.
                           ----------------------------
                           !   Optimized Parameters   !
                           ! (Angstroms and Degrees)  !
 --------------------------                            --------------------------
 ! Name  Definition              Value          Derivative Info.                !
 --------------------------------------------------------------------------------
 ! R1    R(1,2)                  0.9785         -DE/DX =    0.0                 !
 --------------------------------------------------------------------------------
 GradGradGradGradGradGradGradGradGradGradGradGradGradGradGradGradGradGrad

                          Input orientation:                          
 ---------------------------------------------------------------------
 Center     Atomic      Atomic             Coordinates (Angstroms)
 Number     Number       Type             X           Y           Z
 ---------------------------------------------------------------------
      1          8           0       -0.648680   -0.007500    0.008720
      2          1           0       -0.975310   -0.007500   -0.913656
 ---------------------------------------------------------------------
 Stoichiometry    HO(2)
 Framework group  C*V[C*(HO)]
 Deg. of freedom     1
 Full point group                 C*V     NOp   4
 Largest Abelian subgroup         C2V     NOp   4
 Largest concise Abelian subgroup C1      NOp   1
                         Standard orientation:                         
 ---------------------------------------------------------------------
 Center     Atomic      Atomic             Coordinates (Angstroms)
 Number     Number       Type             X           Y           Z
 ---------------------------------------------------------------------
      1          8           0        0.000000    0.000000    0.108722
      2          1           0        0.000000    0.000000   -0.869779
 ---------------------------------------------------------------------
 Rotational constants (GHZ):      0.0000000    556.7317734    556.7317734

 **********************************************************************

            Population analysis using the SCF density.

 **********************************************************************

 Orbital symmetries:
 Alpha Orbitals:
       Occupied  (SG) (SG) (SG) (PI) (PI)
       Virtual   (SG) (SG) (PI) (PI) (SG) (SG) (PI) (PI) (SG) (SG)
                 (PI) (PI) (DLTA) (DLTA) (SG) (PI) (PI) (SG) (SG)
 Beta  Orbitals:
       Occupied  (SG) (SG) (SG) (?A)
       Virtual   (?A) (SG) (SG) (?A) (?A) (SG) (SG) (PI) (SG) (PI)
                 (SG) (PI) (PI) (DLTA) (DLTA) (SG) (PI) (PI) (SG)
                 (SG)
 Unable to determine electronic state:  an orbital has unidentified symmetry.
 Alpha  occ. eigenvalues --  -19.71792  -1.13889  -0.56098  -0.49913  -0.43871
 Alpha virt. eigenvalues --    0.09927   0.16041   0.17453   0.17605   0.27124
 Alpha virt. eigenvalues --    1.00179   1.12462   1.16606   1.18020   1.23493
 Alpha virt. eigenvalues --    1.57710   1.60110   1.79885   1.80043   2.40468
 Alpha virt. eigenvalues --    2.64061   2.65689   3.36578   3.78591
  Beta  occ. eigenvalues --  -19.70109  -1.05640  -0.52896  -0.40272
  Beta virt. eigenvalues --   -0.10250   0.09210   0.16215   0.18092   0.18641
  Beta virt. eigenvalues --    0.27443   1.01924   1.18086   1.18937   1.20283
  Beta virt. eigenvalues --    1.24188   1.61554   1.61935   1.84948   1.86723
  Beta virt. eigenvalues --    2.42937   2.65669   2.66174   3.38173   3.82430
          Condensed to atoms (all electrons):
              1          2
     1  O    8.172402   0.252818
     2  H    0.252818   0.321962
 Mulliken atomic charges:
              1
     1  O   -0.425220
     2  H    0.425220
 Sum of Mulliken atomic charges =   0.00000
 Mulliken charges with hydrogens summed into heavy atoms:
              1
     1  O    0.000000
 Sum of Mulliken charges with hydrogens summed into heavy atoms =   0.00000
          Atomic-Atomic Spin Densities.
              1          2
     1  O    1.028215  -0.002165
     2  H   -0.002165  -0.023884
 Mulliken atomic spin densities:
              1
     1  O    1.026049
     2  H   -0.026049
 Sum of Mulliken atomic spin densities =   1.00000
 Electronic spatial extent (au):  <R**2>=             15.6962
 Charge=              0.0000 electrons
 Dipole moment (field-independent basis, Debye):
    X=              0.0000    Y=              0.0000    Z=             -2.2701  Tot=              2.2701
 Quadrupole moment (field-independent basis, Debye-Ang):
   XX=             -6.9526   YY=             -5.5583   ZZ=             -4.5131
   XY=              0.0000   XZ=              0.0000   YZ=              0.0000
 Traceless Quadrupole moment (field-independent basis, Debye-Ang):
   XX=             -1.2779   YY=              0.1163   ZZ=              1.1616
   XY=              0.0000   XZ=              0.0000   YZ=              0.0000
 Octapole moment (field-independent basis, Debye-Ang**2):
  XXX=              0.0000  YYY=              0.0000  ZZZ=             -2.7954  XYY=              0.0000
  XXY=              0.0000  XXZ=             -0.4973  XZZ=              0.0000  YZZ=              0.0000
  YYZ=             -0.3649  XYZ=              0.0000
 Hexadecapole moment (field-independent basis, Debye-Ang**3):
 XXXX=             -6.4790 YYYY=             -4.1172 ZZZZ=             -5.3390 XXXY=              0.0000
 XXXZ=              0.0000 YYYX=              0.0000 YYYZ=              0.0000 ZZZX=              0.0000
 ZZZY=              0.0000 XXYY=             -1.7660 XXZZ=             -2.2570 YYZZ=             -1.8457
 XXYZ=              0.0000 YYXZ=              0.0000 ZZXY=              0.0000
 N-N= 4.327603652993D+00 E-N=-2.764538770655D+02  KE= 1.112221083059D+02
 Symmetry A1   KE= 1.018665949130D+02
 Symmetry A2   KE= 2.009249630458D-35
 Symmetry B1   KE= 6.877768580235D+00
 Symmetry B2   KE= 2.477744812699D+00
                          Isotropic Fermi Contact Couplings
        Atom                 a.u.       MegaHertz       Gauss      10(-4) cm-1
     1  O(17)              0.16089     -97.52865     -34.80065     -32.53205
     2  H(1)              -0.01494     -66.80110     -23.83629     -22.28245
 --------------------------------------------------------
       Center         ----  Spin Dipole Couplings  ----
                      3XX-RR        3YY-RR        3ZZ-RR
 --------------------------------------------------------
     1   Atom       -1.737301      3.492002     -1.754701
     2   Atom       -0.130864     -0.041133      0.171996
 --------------------------------------------------------
                        XY            XZ            YZ
 --------------------------------------------------------
     1   Atom        0.000000      0.000000      0.000000
     2   Atom        0.000000      0.000000      0.000000
 --------------------------------------------------------


 ---------------------------------------------------------------------------------
              Anisotropic Spin Dipole Couplings in Principal Axis System
 ---------------------------------------------------------------------------------

       Atom             a.u.   MegaHertz   Gauss  10(-4) cm-1        Axes

              Baa    -1.7547   126.969    45.306    42.352  0.0000  0.0000  1.0000
     1 O(17)  Bbb    -1.7373   125.710    44.856    41.932  1.0000  0.0000  0.0000
              Bcc     3.4920  -252.679   -90.162   -84.285  0.0000  1.0000  0.0000
 
              Baa    -0.1309   -69.823   -24.915   -23.290  1.0000  0.0000  0.0000
     2 H(1)   Bbb    -0.0411   -21.946    -7.831    -7.321  0.0000  1.0000  0.0000
              Bcc     0.1720    91.769    32.746    30.611  0.0000  0.0000  1.0000
 

 ---------------------------------------------------------------------------------

 1|1|UNPC-DESKTOP-319GPER|FOpt|UM062X|6-31+G(d,p)|H1O1(2)|SAGAD|05-Feb-
 2021|0||# opt freq 6-31+g(d,p) scrf=smd m062x||Hidroxyl radical with m
 062x||0,2|O,-0.6486796501,-0.00749995,0.0087201578|H,-0.9753101799,-0.
 00749995,-0.9136559878||Version=IA32W-G09RevA.02|HF=-75.7114377|S2=0.7
 52806|S2-1=0.|S2A=0.750006|RMSD=5.653e-009|RMSF=1.537e-006|Dipole=-0.2
 981379,0.,-0.8419155|Quadrupole=-0.7479963,0.0864991,0.6614972,0.,0.57
 06927,0.|PG=C*V [C*(H1O1)]||@


 THOSE WHO TRY TO PASS CHEMISTRY OFF AS A NEW SCIENCE
 SHOW HOW LITTLE KNOWLEDGE THEY HAVE OF THE CHARACTER
 AND LITERATURE OF THE ANCIENTS.
   -- NICOLAS LEFEVRE
 "COURS DE CHYMIE" J.-N.LELOUP, PARIS, 1751
 Job cpu time:  0 days  0 hours  0 minutes  6.0 seconds.
 File lengths (MBytes):  RWF=      5 Int=      0 D2E=      0 Chk=      1 Scr=      1
 Normal termination of Gaussian 09 at Fri Feb 05 12:45:12 2021.
 Link1:  Proceeding to internal job step number  2.
 ----------------------------------------------------------------------
 #N Geom=AllCheck Guess=TCheck SCRF=Check GenChk UM062X/6-31+G(d,p) Fre
 q
 ----------------------------------------------------------------------
 1/10=4,29=7,30=1,38=1,40=1/1,3;
 2/12=2,40=1/2;
 3/5=1,6=6,7=111,11=2,14=-4,16=1,25=1,30=1,70=2,71=2,74=-55,116=2/1,2,3;
 4/5=101/1;
 5/5=2,98=1/2;
 8/6=4,10=90,11=11/1;
 11/6=1,8=1,9=11,15=111,16=1/1,2,10;
 10/6=1/2;
 6/7=2,8=2,9=2,10=2,18=1,28=1/1;
 7/8=1,10=1,25=1/1,2,3,16;
 1/10=4,30=1/3;
 99//99;
 ---------------------------
 Hidroxyl radical with m062x
 ---------------------------
 Redundant internal coordinates taken from checkpoint file:
 D:\Documents\rayGit\FQ\quimicaComputacional\proyecto\decompositionHydrogenPeroxide\descompositionByRadicals\solvated\step1\products\hidroxylRadical.chk
 Charge =  0 Multiplicity = 2
 O,0,-0.6486796501,-0.00749995,0.0087201578
 H,0,-0.9753101799,-0.00749995,-0.9136559878
 Recover connectivity data from disk.

 GradGradGradGradGradGradGradGradGradGradGradGradGradGradGradGradGradGrad
 Berny optimization.
 Initialization pass.
                           ----------------------------
                           !    Initial Parameters    !
                           ! (Angstroms and Degrees)  !
 --------------------------                            --------------------------
 ! Name  Definition              Value          Derivative Info.                !
 --------------------------------------------------------------------------------
 ! R1    R(1,2)                  0.9785         calculate D2E/DX2 analytically  !
 --------------------------------------------------------------------------------
 Trust Radius=3.00D-01 FncErr=1.00D-07 GrdErr=1.00D-07
 Number of steps in this run=   2 maximum allowed number of steps=   2.
 GradGradGradGradGradGradGradGradGradGradGradGradGradGradGradGradGradGrad

                          Input orientation:                          
 ---------------------------------------------------------------------
 Center     Atomic      Atomic             Coordinates (Angstroms)
 Number     Number       Type             X           Y           Z
 ---------------------------------------------------------------------
      1          8           0       -0.648680   -0.007500    0.008720
      2          1           0       -0.975310   -0.007500   -0.913656
 ---------------------------------------------------------------------
 Stoichiometry    HO(2)
 Framework group  C*V[C*(HO)]
 Deg. of freedom     1
 Full point group                 C*V     NOp   4
 Largest Abelian subgroup         C2V     NOp   4
 Largest concise Abelian subgroup C1      NOp   1
                         Standard orientation:                         
 ---------------------------------------------------------------------
 Center     Atomic      Atomic             Coordinates (Angstroms)
 Number     Number       Type             X           Y           Z
 ---------------------------------------------------------------------
      1          8           0        0.000000    0.000000    0.108722
      2          1           0        0.000000    0.000000   -0.869779
 ---------------------------------------------------------------------
 Rotational constants (GHZ):      0.0000000    556.7317734    556.7317734
 Standard basis: 6-31+G(d,p) (6D, 7F)
 There are    13 symmetry adapted basis functions of A1  symmetry.
 There are     1 symmetry adapted basis functions of A2  symmetry.
 There are     5 symmetry adapted basis functions of B1  symmetry.
 There are     5 symmetry adapted basis functions of B2  symmetry.
 Integral buffers will be    262144 words long.
 Raffenetti 2 integral format.
 Two-electron integral symmetry is turned on.
    24 basis functions,    39 primitive gaussians,    24 cartesian basis functions
     5 alpha electrons        4 beta electrons
       nuclear repulsion energy         4.3264292500 Hartrees.
 NAtoms=    2 NActive=    2 NUniq=    2 SFac= 7.50D-01 NAtFMM=   80 NAOKFM=F Big=F
 ------------------------------------------------------------------------------
 Polarizable Continuum Model (PCM)
 =================================
 Model                : PCM.
 Atomic radii         : SMD-Coulomb.
 Polarization charges : Total charges.
 Charge compensation  : None.
 Solution method      : Matrix inversion.
 Cavity type          : VdW (van der Waals Surface) (Alpha=1.000).
 Cavity algorithm     : GePol (No added spheres)
                        Default sphere list used, NSphG=    2.
                        Lebedev-Laikov grids with approx.  5.0 points / Ang**2.
                        Smoothing algorithm: Karplus/York (Gamma=1.0000).
                        Polarization charges: spherical gaussians, with
                                              point-specific exponents (IZeta= 3).
                        Self-potential: point-specific (ISelfS= 7).
                        Self-field    : sphere-specific E.n sum rule (ISelfD= 2).
 1st derivatives      : Analytical E(r).r(x)/FMM algorithm (CHGder, D1EAlg=3).
                        Cavity 1st derivative terms included.
 2nd derivatives      : Analytical E(r).r(xy)/FMM algorithm (CHGder, D2EAlg=3).
                        Cavity 2nd derivative terms included.
 Solvent              : Water, Eps=  78.355300 Eps(inf)=   1.777849
 ------------------------------------------------------------------------------
 Spheres list:
 ISph  on   Nord    Re0     Alpha      Xe            Ye            Ze
    1   O      1    1.520   1.000      0.000000      0.000000      0.108722
    2   H      2    1.200   1.000      0.000000      0.000000     -0.869779
 ------------------------------------------------------------------------------
 ------------------------------------------------------------------------------
 Atomic radii for non-electrostatic terms: SMD-CDS.
 ------------------------------------------------------------------------------
 Nuclear repulsion after PCM non-electrostatic terms =        4.3276036530 Hartrees.
 One-electron integrals computed using PRISM.
 NBasis=    24 RedAO= T  NBF=    13     1     5     5
 NBsUse=    24 1.00D-06 NBFU=    13     1     5     5
 Initial guess read from the checkpoint file:  D:\Documents\rayGit\FQ\quimicaComp
 utacional\proyecto\decompositionHydrogenPeroxide\descompositionByRadicals\solvat
 ed\step1\products\hidroxylRadical.chk
 B after Tr=     0.000000    0.000000    0.000000
         Rot=    1.000000    0.000000    0.000000    0.000000 Ang=   0.00 deg.
 Initial guess orbital symmetries:
 Alpha Orbitals:
       Occupied  (SG) (SG) (SG) (PI) (PI)
       Virtual   (SG) (SG) (PI) (PI) (SG) (SG) (PI) (PI) (SG) (SG)
                 (PI) (PI) (DLTA) (DLTA) (SG) (PI) (PI) (SG) (SG)
 Beta  Orbitals:
       Occupied  (SG) (SG) (SG) (?A)
       Virtual   (?A) (SG) (SG) (?A) (?A) (SG) (SG) (PI) (SG) (PI)
                 (SG) (PI) (PI) (DLTA) (DLTA) (SG) (PI) (PI) (SG)
                 (SG)
 Initial guess <Sx>= 0.0000 <Sy>= 0.0000 <Sz>= 0.5000 <S**2>= 0.7528 S= 0.5014
 Requested convergence on RMS density matrix=1.00D-08 within 128 cycles.
 Requested convergence on MAX density matrix=1.00D-06.
 Requested convergence on             energy=1.00D-06.
 No special actions if energy rises.
 Keep R1 and R2 ints in memory in canonical form, NReq=3012135.
 Error on total polarization charges =  0.02416
 SCF Done:  E(UM062X) =  -75.7114377474     A.U. after    1 cycles
             Convg  =    0.3846D-09             -V/T =  2.0086
 <Sx>= 0.0000 <Sy>= 0.0000 <Sz>= 0.5000 <S**2>= 0.7528 S= 0.5014
 <L.S>= 0.000000000000E+00
 SMD-CDS (non-electrostatic) energy             (kcal/mol) =       0.74
 (included in total energy above)
 Annihilation of the first spin contaminant:
 S**2 before annihilation     0.7528,   after     0.7500
 Range of M.O.s used for correlation:     1    24
 NBasis=    24 NAE=     5 NBE=     4 NFC=     0 NFV=     0
 NROrb=     24 NOA=     5 NOB=     4 NVA=    19 NVB=    20
 Symmetrizing basis deriv contribution to polar:
 IMax=3 JMax=2 DiffMx= 0.00D+00
 G2DrvN: will do     3 centers at a time, making    1 passes doing MaxLOS=2.
 Calling FoFCou, ICntrl=  3107 FMM=F I1Cent=   0 AccDes= 0.00D+00.
 FoFDir/FoFCou used for L=0 through L=2.
 G2PCM: DoFxE=T DoFxN=T DoGrad=T DoPD/DQ/DG=FFF NFrqRd=   0 IEInf=0 DoCFld=F IF1Alg=4.
 End of G2Drv Frequency-dependent properties file   721 does not exist.
 End of G2Drv Frequency-dependent properties file   722 does not exist.
          IDoAtm=11
 NEqPCM:  Using equilibrium solvation (IEInf=0, Eps=  78.3553, EpsInf=   1.7778)
          Differentiating once with respect to electric field.
                with respect to dipole field.
          Differentiating once with respect to nuclear coordinates.
          Keep R1 and R2 ints in memory in canonical form, NReq=910920.
          There are     9 degrees of freedom in the 1st order CPHF.  IDoFFX=5.
      6 vectors produced by pass  0 Test12= 1.94D-15 1.11D-08 XBig12= 3.62D+00 1.03D+00.
 AX will form     6 AO Fock derivatives at one time.
      6 vectors produced by pass  1 Test12= 1.94D-15 1.11D-08 XBig12= 2.52D-01 1.67D-01.
      6 vectors produced by pass  2 Test12= 1.94D-15 1.11D-08 XBig12= 3.83D-03 2.71D-02.
      6 vectors produced by pass  3 Test12= 1.94D-15 1.11D-08 XBig12= 2.93D-05 2.80D-03.
      6 vectors produced by pass  4 Test12= 1.94D-15 1.11D-08 XBig12= 4.85D-07 2.40D-04.
      6 vectors produced by pass  5 Test12= 1.94D-15 1.11D-08 XBig12= 7.32D-09 3.23D-05.
      4 vectors produced by pass  6 Test12= 1.94D-15 1.11D-08 XBig12= 4.17D-11 2.09D-06.
      1 vectors produced by pass  7 Test12= 1.94D-15 1.11D-08 XBig12= 2.88D-13 2.21D-07.
      1 vectors produced by pass  8 Test12= 1.94D-15 1.11D-08 XBig12= 1.76D-15 1.70D-08.
 Inverted reduced A of dimension    42 with in-core refinement.
 Isotropic polarizability for W=    0.000000        5.56 Bohr**3.
 End of Minotr Frequency-dependent properties file   721 does not exist.
 End of Minotr Frequency-dependent properties file   722 does not exist.

 **********************************************************************

            Population analysis using the SCF density.

 **********************************************************************

 Orbital symmetries:
 Alpha Orbitals:
       Occupied  (SG) (SG) (SG) (PI) (PI)
       Virtual   (SG) (SG) (PI) (PI) (SG) (SG) (PI) (PI) (SG) (SG)
                 (PI) (PI) (DLTA) (DLTA) (SG) (PI) (PI) (SG) (SG)
 Beta  Orbitals:
       Occupied  (SG) (SG) (SG) (?A)
       Virtual   (?A) (SG) (SG) (?A) (?A) (SG) (SG) (PI) (SG) (PI)
                 (SG) (PI) (PI) (DLTA) (DLTA) (SG) (PI) (PI) (SG)
                 (SG)
 Unable to determine electronic state:  an orbital has unidentified symmetry.
 Alpha  occ. eigenvalues --  -19.71792  -1.13889  -0.56098  -0.49913  -0.43871
 Alpha virt. eigenvalues --    0.09927   0.16041   0.17453   0.17605   0.27124
 Alpha virt. eigenvalues --    1.00179   1.12462   1.16606   1.18020   1.23493
 Alpha virt. eigenvalues --    1.57710   1.60110   1.79885   1.80043   2.40468
 Alpha virt. eigenvalues --    2.64061   2.65689   3.36578   3.78591
  Beta  occ. eigenvalues --  -19.70109  -1.05640  -0.52896  -0.40272
  Beta virt. eigenvalues --   -0.10250   0.09210   0.16215   0.18092   0.18641
  Beta virt. eigenvalues --    0.27443   1.01924   1.18086   1.18937   1.20283
  Beta virt. eigenvalues --    1.24188   1.61554   1.61935   1.84948   1.86723
  Beta virt. eigenvalues --    2.42937   2.65669   2.66174   3.38173   3.82430
          Condensed to atoms (all electrons):
              1          2
     1  O    8.172402   0.252818
     2  H    0.252818   0.321962
 Mulliken atomic charges:
              1
     1  O   -0.425220
     2  H    0.425220
 Sum of Mulliken atomic charges =   0.00000
 Mulliken charges with hydrogens summed into heavy atoms:
              1
     1  O    0.000000
 Sum of Mulliken charges with hydrogens summed into heavy atoms =   0.00000
          Atomic-Atomic Spin Densities.
              1          2
     1  O    1.028215  -0.002165
     2  H   -0.002165  -0.023884
 Mulliken atomic spin densities:
              1
     1  O    1.026049
     2  H   -0.026049
 Sum of Mulliken atomic spin densities =   1.00000
 APT atomic charges:
              1
     1  O   -0.429754
     2  H    0.429754
 Sum of APT charges=   0.00000
 APT Atomic charges with hydrogens summed into heavy atoms:
              1
     1  O    0.000000
     2  H    0.000000
 Sum of APT charges=   0.00000
 Electronic spatial extent (au):  <R**2>=             15.6962
 Charge=              0.0000 electrons
 Dipole moment (field-independent basis, Debye):
    X=              0.0000    Y=              0.0000    Z=             -2.2701  Tot=              2.2701
 Quadrupole moment (field-independent basis, Debye-Ang):
   XX=             -6.9526   YY=             -5.5583   ZZ=             -4.5131
   XY=              0.0000   XZ=              0.0000   YZ=              0.0000
 Traceless Quadrupole moment (field-independent basis, Debye-Ang):
   XX=             -1.2779   YY=              0.1163   ZZ=              1.1616
   XY=              0.0000   XZ=              0.0000   YZ=              0.0000
 Octapole moment (field-independent basis, Debye-Ang**2):
  XXX=              0.0000  YYY=              0.0000  ZZZ=             -2.7954  XYY=              0.0000
  XXY=              0.0000  XXZ=             -0.4973  XZZ=              0.0000  YZZ=              0.0000
  YYZ=             -0.3649  XYZ=              0.0000
 Hexadecapole moment (field-independent basis, Debye-Ang**3):
 XXXX=             -6.4790 YYYY=             -4.1172 ZZZZ=             -5.3390 XXXY=              0.0000
 XXXZ=              0.0000 YYYX=              0.0000 YYYZ=              0.0000 ZZZX=              0.0000
 ZZZY=              0.0000 XXYY=             -1.7660 XXZZ=             -2.2570 YYZZ=             -1.8457
 XXYZ=              0.0000 YYXZ=              0.0000 ZZXY=              0.0000
 N-N= 4.327603652993D+00 E-N=-2.764538771053D+02  KE= 1.112221083304D+02
 Symmetry A1   KE= 1.018665949549D+02
 Symmetry A2   KE= 1.990747753054D-35
 Symmetry B1   KE= 6.877768563164D+00
 Symmetry B2   KE= 2.477744812326D+00
  Exact polarizability:   5.241   0.000   4.082   0.000   0.000   7.352
 Approx polarizability:   4.042   0.000   3.331   0.000   0.000   6.272
                          Isotropic Fermi Contact Couplings
        Atom                 a.u.       MegaHertz       Gauss      10(-4) cm-1
     1  O(17)              0.16089     -97.52865     -34.80065     -32.53205
     2  H(1)              -0.01494     -66.80111     -23.83630     -22.28245
 --------------------------------------------------------
       Center         ----  Spin Dipole Couplings  ----
                      3XX-RR        3YY-RR        3ZZ-RR
 --------------------------------------------------------
     1   Atom       -1.737301      3.492002     -1.754701
     2   Atom       -0.130864     -0.041133      0.171996
 --------------------------------------------------------
                        XY            XZ            YZ
 --------------------------------------------------------
     1   Atom        0.000000      0.000000      0.000000
     2   Atom        0.000000      0.000000      0.000000
 --------------------------------------------------------


 ---------------------------------------------------------------------------------
              Anisotropic Spin Dipole Couplings in Principal Axis System
 ---------------------------------------------------------------------------------

       Atom             a.u.   MegaHertz   Gauss  10(-4) cm-1        Axes

              Baa    -1.7547   126.969    45.306    42.352  0.0000  0.0000  1.0000
     1 O(17)  Bbb    -1.7373   125.710    44.856    41.932  1.0000  0.0000  0.0000
              Bcc     3.4920  -252.679   -90.162   -84.285  0.0000  1.0000  0.0000
 
              Baa    -0.1309   -69.823   -24.915   -23.290  1.0000  0.0000  0.0000
     2 H(1)   Bbb    -0.0411   -21.946    -7.831    -7.321  0.0000  1.0000  0.0000
              Bcc     0.1720    91.769    32.746    30.611  0.0000  0.0000  1.0000
 

 ---------------------------------------------------------------------------------

 D2PCM: PCM CHGder 2nd derivatives, FixD1E=F FixD2E=F DoIter=F DoCFld=F I1PDM=0
 Calling FoFJK, ICntrl=    100127 FMM=F ISym2X=1 I1Cent= 0 IOpClX= 1 NMat=1 NMatS=1 NMatT=0.
 Full mass-weighted force constant matrix:
 Low frequencies --- -328.4071    0.0014    0.0025    0.0028   91.8461 3724.8145
 Diagonal vibrational polarizability:
        0.0000000       0.0000000       0.2037708
 Harmonic frequencies (cm**-1), IR intensities (KM/Mole), Raman scattering
 activities (A**4/AMU), depolarization ratios for plane and unpolarized
 incident light, reduced masses (AMU), force constants (mDyne/A),
 and normal coordinates:
                     1
                    SG
 Frequencies --  3724.8145
 Red. masses --     1.0671
 Frc consts  --     8.7229
 IR Inten    --   105.0554
  Atom  AN      X      Y      Z
     1   8     0.00   0.00   0.06
     2   1     0.00   0.00  -1.00

 -------------------
 - Thermochemistry -
 -------------------
 Temperature   298.150 Kelvin.  Pressure   1.00000 Atm.
 Atom     1 has atomic number  8 and mass  15.99491
 Atom     2 has atomic number  1 and mass   1.00783
 Molecular mass:    17.00274 amu.
 Principal axes and moments of inertia in atomic units:
                           1         2         3
     Eigenvalues --     0.00000   3.24167   3.24167
           X            0.00000   0.69861   0.71551
           Y            0.00000   0.71551  -0.69861
           Z            1.00000   0.00000   0.00000
 This molecule is a prolate symmetric top.
 Rotational symmetry number  1.
 Rotational temperature (Kelvin)     26.71888
 Rotational constant (GHZ):         556.731773
 Zero-point vibrational energy      22279.3 (Joules/Mol)
                                    5.32489 (Kcal/Mol)
 Vibrational temperatures:   5359.17
          (Kelvin)
 
 Zero-point correction=                           0.008486 (Hartree/Particle)
 Thermal correction to Energy=                    0.010846
 Thermal correction to Enthalpy=                  0.011790
 Thermal correction to Gibbs Free Energy=        -0.008448
 Sum of electronic and zero-point Energies=            -75.702952
 Sum of electronic and thermal Energies=               -75.700592
 Sum of electronic and thermal Enthalpies=             -75.699647
 Sum of electronic and thermal Free Energies=          -75.719886
 
                     E (Thermal)             CV                S
                      KCal/Mol        Cal/Mol-Kelvin    Cal/Mol-Kelvin
 Total                    6.806              4.968             42.595
 Electronic               0.000              0.000              1.377
 Translational            0.889              2.981             34.437
 Rotational               0.592              1.987              6.781
 Vibrational              5.325              0.000              0.000
                       Q            Log10(Q)             Ln(Q)
 Total Bot       0.768623D+04          3.885714          8.947186
 Total V=0       0.615007D+08          7.788880         17.934559
 Vib (Bot)       0.124978D-03         -3.903167         -8.987373
 Vib (V=0)       0.100000D+01          0.000000          0.000000
 Electronic      0.200000D+01          0.301030          0.693147
 Translational   0.275571D+07          6.440234         14.829186
 Rotational      0.111588D+02          1.047617          2.412226
 ***** Axes restored to original set *****
 -------------------------------------------------------------------
 Center     Atomic                   Forces (Hartrees/Bohr)
 Number     Number              X              Y              Z
 -------------------------------------------------------------------
      1        8          -0.000000888    0.000000000   -0.000002508
      2        1           0.000000888    0.000000000    0.000002508
 -------------------------------------------------------------------
 Cartesian Forces:  Max     0.000002508 RMS     0.000001536

 GradGradGradGradGradGradGradGradGradGradGradGradGradGradGradGradGradGrad
 Berny optimization.
 Internal  Forces:  Max     0.000002660 RMS     0.000002660
 Search for a local minimum.
 Step number   1 out of a maximum of    2
 All quantities printed in internal units (Hartrees-Bohrs-Radians)
 Second derivative matrix not updated -- analytic derivatives used.
 The second derivative matrix:
                          R1
           R1           0.49779
     Eigenvalues ---    0.49779
 Angle between quadratic step and forces=   0.00 degrees.
 Linear search not attempted -- first point.
 Iteration  1 RMS(Cart)=  0.00000378 RMS(Int)=  0.00000000
 Iteration  2 RMS(Cart)=  0.00000000 RMS(Int)=  0.00000000
 ClnCor:  largest displacement from symmetrization is 3.47D-17 for atom     1.
 Variable       Old X    -DE/DX   Delta X   Delta X   Delta X     New X
                                 (Linear)    (Quad)   (Total)
    R1        1.84910   0.00000   0.00000  -0.00001  -0.00001   1.84909
         Item               Value     Threshold  Converged?
 Maximum Force            0.000003     0.000450     YES
 RMS     Force            0.000003     0.000300     YES
 Maximum Displacement     0.000003     0.001800     YES
 RMS     Displacement     0.000004     0.001200     YES
 Predicted change in Energy=-7.108255D-12
 Optimization completed.
    -- Stationary point found.
                           ----------------------------
                           !   Optimized Parameters   !
                           ! (Angstroms and Degrees)  !
 --------------------------                            --------------------------
 ! Name  Definition              Value          Derivative Info.                !
 --------------------------------------------------------------------------------
 ! R1    R(1,2)                  0.9785         -DE/DX =    0.0                 !
 --------------------------------------------------------------------------------
 GradGradGradGradGradGradGradGradGradGradGradGradGradGradGradGradGradGrad

 1|1|UNPC-DESKTOP-319GPER|Freq|UM062X|6-31+G(d,p)|H1O1(2)|SAGAD|05-Feb-
 2021|0||#N Geom=AllCheck Guess=TCheck SCRF=Check GenChk UM062X/6-31+G(
 d,p) Freq||Hidroxyl radical with m062x||0,2|O,-0.6486796501,-0.0074999
 5,0.0087201578|H,-0.9753101799,-0.00749995,-0.9136559878||Version=IA32
 W-G09RevA.02|HF=-75.7114377|S2=0.752806|S2-1=0.|S2A=0.750006|RMSD=3.84
 6e-010|RMSF=1.536e-006|ZeroPoint=0.0084858|Thermal=0.0108462|Dipole=-0
 .2981379,0.,-0.8419155|DipoleDeriv=-0.4647625,0.,0.0513915,0.,-0.48666
 41,0.,0.0513915,0.,-0.3378361,0.4647625,0.,-0.0513915,0.,0.4866641,0.,
 -0.0513915,0.,0.3378361|Polar=5.4759306,0.,4.0824083,0.664527,0.,7.117
 1755|PG=C*V [C*(H1O1)]|NImag=0||0.05573655,0.,-0.00386959,0.15654046,0
 .,0.44235927,-0.05573655,0.,-0.15654046,0.05573655,0.,0.00386959,0.,0.
 ,-0.00386959,-0.15654046,0.,-0.44235927,0.15654046,0.,0.44235927||0.00
 000089,0.,0.00000251,-0.00000089,0.,-0.00000251|||@


 THOSE WHO TRY TO PASS CHEMISTRY OFF AS A NEW SCIENCE
 SHOW HOW LITTLE KNOWLEDGE THEY HAVE OF THE CHARACTER
 AND LITERATURE OF THE ANCIENTS.
   -- NICOLAS LEFEVRE
 "COURS DE CHYMIE" J.-N.LELOUP, PARIS, 1751
 Job cpu time:  0 days  0 hours  0 minutes  5.0 seconds.
 File lengths (MBytes):  RWF=      5 Int=      0 D2E=      0 Chk=      1 Scr=      1
 Normal termination of Gaussian 09 at Fri Feb 05 12:45:17 2021.
