 Entering Link 1 = C:\G09W\l1.exe PID=     30108.
  
 Copyright (c) 1988,1990,1992,1993,1995,1998,2003,2009, Gaussian, Inc.
                  All Rights Reserved.
  
 This is part of the Gaussian(R) 09 program.  It is based on
 the Gaussian(R) 03 system (copyright 2003, Gaussian, Inc.),
 the Gaussian(R) 98 system (copyright 1998, Gaussian, Inc.),
 the Gaussian(R) 94 system (copyright 1995, Gaussian, Inc.),
 the Gaussian 92(TM) system (copyright 1992, Gaussian, Inc.),
 the Gaussian 90(TM) system (copyright 1990, Gaussian, Inc.),
 the Gaussian 88(TM) system (copyright 1988, Gaussian, Inc.),
 the Gaussian 86(TM) system (copyright 1986, Carnegie Mellon
 University), and the Gaussian 82(TM) system (copyright 1983,
 Carnegie Mellon University). Gaussian is a federally registered
 trademark of Gaussian, Inc.
  
 This software contains proprietary and confidential information,
 including trade secrets, belonging to Gaussian, Inc.
  
 This software is provided under written license and may be
 used, copied, transmitted, or stored only in accord with that
 written license.
  
 The following legend is applicable only to US Government
 contracts under FAR:
  
                    RESTRICTED RIGHTS LEGEND
  
 Use, reproduction and disclosure by the US Government is
 subject to restrictions as set forth in subparagraphs (a)
 and (c) of the Commercial Computer Software - Restricted
 Rights clause in FAR 52.227-19.
  
 Gaussian, Inc.
 340 Quinnipiac St., Bldg. 40, Wallingford CT 06492
  
  
 ---------------------------------------------------------------
 Warning -- This program may not be used in any manner that
 competes with the business of Gaussian, Inc. or will provide
 assistance to any competitor of Gaussian, Inc.  The licensee
 of this program is prohibited from giving any competitor of
 Gaussian, Inc. access to this program.  By using this program,
 the user acknowledges that Gaussian, Inc. is engaged in the
 business of creating and licensing software in the field of
 computational chemistry and represents and warrants to the
 licensee that it is not a competitor of Gaussian, Inc. and that
 it will not use this program in any manner prohibited above.
 ---------------------------------------------------------------
  

 Cite this work as:
 Gaussian 09, Revision A.02,
 M. J. Frisch, G. W. Trucks, H. B. Schlegel, G. E. Scuseria, 
 M. A. Robb, J. R. Cheeseman, G. Scalmani, V. Barone, B. Mennucci, 
 G. A. Petersson, H. Nakatsuji, M. Caricato, X. Li, H. P. Hratchian, 
 A. F. Izmaylov, J. Bloino, G. Zheng, J. L. Sonnenberg, M. Hada, 
 M. Ehara, K. Toyota, R. Fukuda, J. Hasegawa, M. Ishida, T. Nakajima, 
 Y. Honda, O. Kitao, H. Nakai, T. Vreven, J. A. Montgomery, Jr., 
 J. E. Peralta, F. Ogliaro, M. Bearpark, J. J. Heyd, E. Brothers, 
 K. N. Kudin, V. N. Staroverov, R. Kobayashi, J. Normand, 
 K. Raghavachari, A. Rendell, J. C. Burant, S. S. Iyengar, J. Tomasi, 
 M. Cossi, N. Rega, J. M. Millam, M. Klene, J. E. Knox, J. B. Cross, 
 V. Bakken, C. Adamo, J. Jaramillo, R. Gomperts, R. E. Stratmann, 
 O. Yazyev, A. J. Austin, R. Cammi, C. Pomelli, J. W. Ochterski, 
 R. L. Martin, K. Morokuma, V. G. Zakrzewski, G. A. Voth, 
 P. Salvador, J. J. Dannenberg, S. Dapprich, A. D. Daniels, 
 O. Farkas, J. B. Foresman, J. V. Ortiz, J. Cioslowski, 
 and D. J. Fox, Gaussian, Inc., Wallingford CT, 2009.
 
 ******************************************
 Gaussian 09:  IA32W-G09RevA.02 11-Jun-2009
                30-Nov-2020 
 ******************************************
 %chk=C:\Users\sagad\Documents\rayGit\FQ\quimicaComputacional\fenol\estadoDeTrans
 ición\estadoDeTransicionM062X.chk
 %mem=1500mb
 %nproc=4
 Will use up to    4 processors via shared memory.
 -------------------------------------------------------------------
 # opt=(calcfc,ts,noeigen) freq=noraman 6-31+g(d,p) iop(1/8=3) m062x
 -------------------------------------------------------------------
 1/5=1,8=3,10=4,11=1,14=-1,18=20,26=3,38=1/1,3;
 2/9=110,12=2,17=6,18=5,40=1/2;
 3/5=1,6=6,7=111,11=2,16=1,25=1,30=1,71=2,74=-55/1,2,3;
 4//1;
 5/5=2,38=5/2;
 8/6=4,10=90,11=11/1;
 11/6=1,8=1,9=11,15=111,16=1/1,2,10;
 10/6=1,7=6,13=1/2;
 6/7=2,8=2,9=2,10=2,28=1/1;
 7/10=1,18=20,25=1/1,2,3,16;
 1/5=1,8=3,10=4,11=1,14=-1,18=20/3(2);
 2/9=110/2;
 99//99;
 2/9=110/2;
 3/5=1,6=6,7=111,11=2,16=1,25=1,30=1,71=1,74=-55/1,2,3;
 4/5=5,16=3/1;
 5/5=2,38=5/2;
 7//1,2,3,16;
 1/5=1,8=3,11=1,14=-1,18=20/3(-5);
 2/9=110/2;
 6/7=2,8=2,9=2,10=2,19=2,28=1/1;
 99/9=1/99;
 --------------------------------
 Estado de transicion fenol m062x
 --------------------------------
 Symbolic Z-matrix:
 Charge =  0 Multiplicity = 2
 C                    -0.47792   1.47763  -0.01835 
 C                     0.91225   1.44281  -0.13104 
 C                     1.64511   2.62884  -0.09254 
 C                     0.98771   3.85052   0.0575 
 C                    -0.40216   3.88529   0.16968 
 C                    -1.13503   2.69873   0.13214 
 H                    -1.0555    0.5424   -0.04828 
 H                     1.43006   0.47989  -0.2489 
 H                     1.56575   4.78553   0.08777 
 H                    -0.92057   4.84797   0.28794 
 H                    -2.2307    2.72637   0.22079 
 O                     3.07006   2.59319  -0.20721 
 H                     3.58356   2.44648   0.83107 
 O                     3.85829   2.60876   2.06814 
 O                     5.1735    2.65016   2.17254 
 H                     5.47309   3.55794   2.08436 
 

 GradGradGradGradGradGradGradGradGradGradGradGradGradGradGradGradGradGrad
 Berny optimization.
 Initialization pass.
                           ----------------------------
                           !    Initial Parameters    !
                           ! (Angstroms and Degrees)  !
 --------------------------                            --------------------------
 ! Name  Definition              Value          Derivative Info.                !
 --------------------------------------------------------------------------------
 ! R1    R(1,2)                  1.3952         calculate D2E/DX2 analytically  !
 ! R2    R(1,6)                  1.3948         calculate D2E/DX2 analytically  !
 ! R3    R(1,7)                  1.0996         calculate D2E/DX2 analytically  !
 ! R4    R(2,3)                  1.3947         calculate D2E/DX2 analytically  !
 ! R5    R(2,8)                  1.0997         calculate D2E/DX2 analytically  !
 ! R6    R(3,4)                  1.3954         calculate D2E/DX2 analytically  !
 ! R7    R(3,12)                 1.43           calculate D2E/DX2 analytically  !
 ! R8    R(4,5)                  1.3948         calculate D2E/DX2 analytically  !
 ! R9    R(4,9)                  1.0997         calculate D2E/DX2 analytically  !
 ! R10   R(5,6)                  1.3951         calculate D2E/DX2 analytically  !
 ! R11   R(5,10)                 1.0998         calculate D2E/DX2 analytically  !
 ! R12   R(6,11)                 1.0996         calculate D2E/DX2 analytically  !
 ! R13   R(12,13)                1.1676         calculate D2E/DX2 analytically  !
 ! R14   R(13,14)                1.2776         calculate D2E/DX2 analytically  !
 ! R15   R(14,15)                1.32           calculate D2E/DX2 analytically  !
 ! R16   R(15,16)                0.96           calculate D2E/DX2 analytically  !
 ! A1    A(2,1,6)              119.9985         calculate D2E/DX2 analytically  !
 ! A2    A(2,1,7)              119.9972         calculate D2E/DX2 analytically  !
 ! A3    A(6,1,7)              120.0043         calculate D2E/DX2 analytically  !
 ! A4    A(1,2,3)              120.0086         calculate D2E/DX2 analytically  !
 ! A5    A(1,2,8)              119.9808         calculate D2E/DX2 analytically  !
 ! A6    A(3,2,8)              120.0106         calculate D2E/DX2 analytically  !
 ! A7    A(2,3,4)              119.9942         calculate D2E/DX2 analytically  !
 ! A8    A(2,3,12)             120.0128         calculate D2E/DX2 analytically  !
 ! A9    A(4,3,12)             119.993          calculate D2E/DX2 analytically  !
 ! A10   A(3,4,5)              119.994          calculate D2E/DX2 analytically  !
 ! A11   A(3,4,9)              119.9811         calculate D2E/DX2 analytically  !
 ! A12   A(5,4,9)              120.0249         calculate D2E/DX2 analytically  !
 ! A13   A(4,5,6)              120.0047         calculate D2E/DX2 analytically  !
 ! A14   A(4,5,10)             120.0113         calculate D2E/DX2 analytically  !
 ! A15   A(6,5,10)             119.984          calculate D2E/DX2 analytically  !
 ! A16   A(1,6,5)              120.0            calculate D2E/DX2 analytically  !
 ! A17   A(1,6,11)             120.008          calculate D2E/DX2 analytically  !
 ! A18   A(5,6,11)             119.992          calculate D2E/DX2 analytically  !
 ! A19   A(3,12,13)            111.72           calculate D2E/DX2 analytically  !
 ! A20   A(12,13,14)           160.0            calculate D2E/DX2 analytically  !
 ! A21   A(13,14,15)           107.1473         calculate D2E/DX2 analytically  !
 ! A22   A(14,15,16)           109.4712         calculate D2E/DX2 analytically  !
 ! D1    D(6,1,2,3)              0.0323         calculate D2E/DX2 analytically  !
 ! D2    D(6,1,2,8)            179.9532         calculate D2E/DX2 analytically  !
 ! D3    D(7,1,2,3)           -179.9729         calculate D2E/DX2 analytically  !
 ! D4    D(7,1,2,8)             -0.052          calculate D2E/DX2 analytically  !
 ! D5    D(2,1,6,5)              0.0149         calculate D2E/DX2 analytically  !
 ! D6    D(2,1,6,11)           179.9892         calculate D2E/DX2 analytically  !
 ! D7    D(7,1,6,5)           -179.9798         calculate D2E/DX2 analytically  !
 ! D8    D(7,1,6,11)            -0.0056         calculate D2E/DX2 analytically  !
 ! D9    D(1,2,3,4)             -0.0568         calculate D2E/DX2 analytically  !
 ! D10   D(1,2,3,12)           179.9619         calculate D2E/DX2 analytically  !
 ! D11   D(8,2,3,4)           -179.9777         calculate D2E/DX2 analytically  !
 ! D12   D(8,2,3,12)             0.041          calculate D2E/DX2 analytically  !
 ! D13   D(2,3,4,5)              0.0341         calculate D2E/DX2 analytically  !
 ! D14   D(2,3,4,9)           -179.9964         calculate D2E/DX2 analytically  !
 ! D15   D(12,3,4,5)          -179.9846         calculate D2E/DX2 analytically  !
 ! D16   D(12,3,4,9)            -0.0151         calculate D2E/DX2 analytically  !
 ! D17   D(2,3,12,13)          -87.4121         calculate D2E/DX2 analytically  !
 ! D18   D(4,3,12,13)           92.6066         calculate D2E/DX2 analytically  !
 ! D19   D(3,4,5,6)              0.0131         calculate D2E/DX2 analytically  !
 ! D20   D(3,4,5,10)          -179.9995         calculate D2E/DX2 analytically  !
 ! D21   D(9,4,5,6)           -179.9563         calculate D2E/DX2 analytically  !
 ! D22   D(9,4,5,10)             0.0311         calculate D2E/DX2 analytically  !
 ! D23   D(4,5,6,1)             -0.0376         calculate D2E/DX2 analytically  !
 ! D24   D(4,5,6,11)           179.9881         calculate D2E/DX2 analytically  !
 ! D25   D(10,5,6,1)           179.975          calculate D2E/DX2 analytically  !
 ! D26   D(10,5,6,11)            0.0007         calculate D2E/DX2 analytically  !
 ! D27   D(3,12,13,14)         -47.5917         calculate D2E/DX2 analytically  !
 ! D28   D(12,13,14,15)       -134.1274         calculate D2E/DX2 analytically  !
 ! D29   D(13,14,15,16)         90.0            calculate D2E/DX2 analytically  !
 --------------------------------------------------------------------------------
 Trust Radius=3.00D-02 FncErr=1.00D-07 GrdErr=1.00D-06
 Number of steps in this run=  77 maximum allowed number of steps= 100.
 Search for a saddle point of order  1.
 GradGradGradGradGradGradGradGradGradGradGradGradGradGradGradGradGradGrad

                          Input orientation:                          
 ---------------------------------------------------------------------
 Center     Atomic      Atomic             Coordinates (Angstroms)
 Number     Number       Type             X           Y           Z
 ---------------------------------------------------------------------
      1          6           0       -0.477917    1.477626   -0.018352
      2          6           0        0.912249    1.442813   -0.131035
      3          6           0        1.645114    2.628835   -0.092542
      4          6           0        0.987710    3.850524    0.057505
      5          6           0       -0.402162    3.885289    0.169679
      6          6           0       -1.135026    2.698734    0.132145
      7          1           0       -1.055497    0.542399   -0.048277
      8          1           0        1.430064    0.479891   -0.248901
      9          1           0        1.565755    4.785534    0.087769
     10          1           0       -0.920567    4.847966    0.287935
     11          1           0       -2.230702    2.726369    0.220792
     12          8           0        3.070063    2.593190   -0.207212
     13          1           0        3.583562    2.446477    0.831066
     14          8           0        3.858290    2.608763    2.068144
     15          8           0        5.173504    2.650162    2.172545
     16          1           0        5.473094    3.557944    2.084358
 ---------------------------------------------------------------------
                    Distance matrix (angstroms):
                    1          2          3          4          5
     1  C    0.000000
     2  C    1.395160   0.000000
     3  C    2.416205   1.394712   0.000000
     4  C    2.790065   2.416260   1.395427   0.000000
     5  C    2.416183   2.789946   2.416356   1.394825   0.000000
     6  C    1.394829   2.416183   2.790080   2.416236   1.395138
     7  H    1.099610   2.165553   3.412986   3.889675   3.413102
     8  H    2.165414   1.099655   2.165330   3.413316   3.889601
     9  H    3.889745   3.413024   2.165678   1.099680   2.165606
    10  H    3.413055   3.889707   3.413506   2.165528   1.099761
    11  H    2.165365   3.413128   3.889684   3.412999   2.165471
    12  O    3.724019   2.446494   1.430000   2.446867   3.723965
    13  H    4.260961   3.011460   2.154968   3.050933   4.288777
    14  O    4.943241   3.856810   3.093075   3.718181   4.835819
    15  O    6.173607   4.992240   4.192923   4.840984   6.051864
    16  H    6.645574   5.493911   4.500619   4.930761   6.188036
                    6          7          8          9         10
     6  C    0.000000
     7  H    2.165331   0.000000
     8  H    3.412938   2.494427   0.000000
     9  H    3.413344   4.989355   4.320917   0.000000
    10  H    2.165516   4.320781   4.989362   2.495147   0.000000
    11  H    1.099604   2.494641   4.320704   4.320988   2.494420
    12  O    4.220080   4.609908   2.675326   2.675132   4.610240
    13  H    4.776735   5.091131   3.109878   3.177299   5.133159
    14  O    5.356248   5.735364   3.974553   3.730407   5.569618
    15  O    6.630470   6.940833   4.958509   4.682089   6.746836
    16  H    6.943820   7.500943   5.591476   4.556386   6.765368
                   11         12         13         14         15
    11  H    0.000000
    12  O    5.319684   0.000000
    13  H    5.852900   1.167572   0.000000
    14  O    6.364147   2.408067   1.277566   0.000000
    15  O    7.657507   3.176625   2.090208   1.320000   0.000000
    16  H    7.969497   3.457832   2.525160   1.873179   0.960000
                   16
    16  H    0.000000
 Stoichiometry    C6H7O3(2)
 Framework group  C1[X(C6H7O3)]
 Deg. of freedom    42
 Full point group                 C1      NOp   1
 Largest Abelian subgroup         C1      NOp   1
 Largest concise Abelian subgroup C1      NOp   1
                         Standard orientation:                         
 ---------------------------------------------------------------------
 Center     Atomic      Atomic             Coordinates (Angstroms)
 Number     Number       Type             X           Y           Z
 ---------------------------------------------------------------------
      1          6           0        2.251359   -1.119334   -0.351847
      2          6           0        0.975746   -1.247195    0.198547
      3          6           0        0.259081   -0.109799    0.569953
      4          6           0        0.818488    1.156160    0.392109
      5          6           0        2.093991    1.283891   -0.157721
      6          6           0        2.810346    0.146095   -0.530099
      7          1           0        2.816042   -2.016178   -0.645014
      8          1           0        0.535022   -2.244938    0.338237
      9          1           0        0.253257    2.052809    0.685078
     10          1           0        2.535147    2.281476   -0.298003
     11          1           0        3.815788    0.247043   -0.963717
     12          8           0       -1.048723   -0.240712    1.133345
     13          1           0       -1.873257   -0.277557    0.307505
     14          8           0       -2.540663    0.031166   -0.737212
     15          8           0       -3.817547    0.011671   -0.403166
     16          1           0       -4.080609    0.881431   -0.093464
 ---------------------------------------------------------------------
 Rotational constants (GHZ):      3.7236874      0.7459879      0.6993377
 Standard basis: 6-31+G(d,p) (6D, 7F)
 There are   206 symmetry adapted basis functions of A   symmetry.
 Integral buffers will be    262144 words long.
 Raffenetti 2 integral format.
 Two-electron integral symmetry is turned on.
   206 basis functions,   337 primitive gaussians,   206 cartesian basis functions
    34 alpha electrons       33 beta electrons
       nuclear repulsion energy       408.5576126718 Hartrees.
 NAtoms=   16 NActive=   16 NUniq=   16 SFac= 7.50D-01 NAtFMM=   80 NAOKFM=F Big=F
 One-electron integrals computed using PRISM.
 NBasis=   206 RedAO= T  NBF=   206
 NBsUse=   206 1.00D-06 NBFU=   206
 Harris functional with IExCor= 1009 diagonalized for initial guess.
 ExpMin= 4.38D-02 ExpMax= 5.48D+03 ExpMxC= 8.25D+02 IAcc=2 IRadAn=         0 AccDes= 0.00D+00
 HarFok:  IExCor= 1009 AccDes= 0.00D+00 IRadAn=         0 IDoV= 1
 ScaDFX=  1.000000  1.000000  1.000000  1.000000
 FoFCou: FMM=F IPFlag=           0 FMFlag=      100000 FMFlg1=           0
         NFxFlg=           0 DoJE=T BraDBF=F KetDBF=T FulRan=T
         Omega=  0.000000  0.000000  1.000000  0.000000  0.000000 ICntrl=     500 IOpCl=  0
         NMat0=    1 NMatS0=    1 NMatT0=    0 NMatD0=    1 NMtDS0=    0 NMtDT0=    0
         I1Cent=           4 NGrid=           0.
 Petite list used in FoFCou.
 Initial guess orbital symmetries:
 Alpha Orbitals:
       Occupied  (A) (A) (A) (A) (A) (A) (A) (A) (A) (A) (A) (A)
                 (A) (A) (A) (A) (A) (A) (A) (A) (A) (A) (A) (A)
                 (A) (A) (A) (A) (A) (A) (A) (A) (A) (A)
       Virtual   (A) (A) (A) (A) (A) (A) (A) (A) (A) (A) (A) (A)
                 (A) (A) (A) (A) (A) (A) (A) (A) (A) (A) (A) (A)
                 (A) (A) (A) (A) (A) (A) (A) (A) (A) (A) (A) (A)
                 (A) (A) (A) (A) (A) (A) (A) (A) (A) (A) (A) (A)
                 (A) (A) (A) (A) (A) (A) (A) (A) (A) (A) (A) (A)
                 (A) (A) (A) (A) (A) (A) (A) (A) (A) (A) (A) (A)
                 (A) (A) (A) (A) (A) (A) (A) (A) (A) (A) (A) (A)
                 (A) (A) (A) (A) (A) (A) (A) (A) (A) (A) (A) (A)
                 (A) (A) (A) (A) (A) (A) (A) (A) (A) (A) (A) (A)
                 (A) (A) (A) (A) (A) (A) (A) (A) (A) (A) (A) (A)
                 (A) (A) (A) (A) (A) (A) (A) (A) (A) (A) (A) (A)
                 (A) (A) (A) (A) (A) (A) (A) (A) (A) (A) (A) (A)
                 (A) (A) (A) (A) (A) (A) (A) (A) (A) (A) (A) (A)
                 (A) (A) (A) (A) (A) (A) (A) (A) (A) (A) (A) (A)
                 (A) (A) (A) (A)
 Beta  Orbitals:
       Occupied  (A) (A) (A) (A) (A) (A) (A) (A) (A) (A) (A) (A)
                 (A) (A) (A) (A) (A) (A) (A) (A) (A) (A) (A) (A)
                 (A) (A) (A) (A) (A) (A) (A) (A) (A)
       Virtual   (A) (A) (A) (A) (A) (A) (A) (A) (A) (A) (A) (A)
                 (A) (A) (A) (A) (A) (A) (A) (A) (A) (A) (A) (A)
                 (A) (A) (A) (A) (A) (A) (A) (A) (A) (A) (A) (A)
                 (A) (A) (A) (A) (A) (A) (A) (A) (A) (A) (A) (A)
                 (A) (A) (A) (A) (A) (A) (A) (A) (A) (A) (A) (A)
                 (A) (A) (A) (A) (A) (A) (A) (A) (A) (A) (A) (A)
                 (A) (A) (A) (A) (A) (A) (A) (A) (A) (A) (A) (A)
                 (A) (A) (A) (A) (A) (A) (A) (A) (A) (A) (A) (A)
                 (A) (A) (A) (A) (A) (A) (A) (A) (A) (A) (A) (A)
                 (A) (A) (A) (A) (A) (A) (A) (A) (A) (A) (A) (A)
                 (A) (A) (A) (A) (A) (A) (A) (A) (A) (A) (A) (A)
                 (A) (A) (A) (A) (A) (A) (A) (A) (A) (A) (A) (A)
                 (A) (A) (A) (A) (A) (A) (A) (A) (A) (A) (A) (A)
                 (A) (A) (A) (A) (A) (A) (A) (A) (A) (A) (A) (A)
                 (A) (A) (A) (A) (A)
 The electronic state of the initial guess is 2-A.
 Initial guess <Sx>= 0.0000 <Sy>= 0.0000 <Sz>= 0.5000 <S**2>= 0.7500 S= 0.5000
 Requested convergence on RMS density matrix=1.00D-08 within 128 cycles.
 Requested convergence on MAX density matrix=1.00D-06.
 Requested convergence on             energy=1.00D-06.
 No special actions if energy rises.
 Restarting incremental Fock formation.
 SCF Done:  E(UM062X) =  -458.167411985     A.U. after   22 cycles
             Convg  =    0.5776D-08             -V/T =  2.0090
 <Sx>= 0.0000 <Sy>= 0.0000 <Sz>= 0.5000 <S**2>= 0.7624 S= 0.5062
 <L.S>= 0.000000000000E+00
 Annihilation of the first spin contaminant:
 S**2 before annihilation     0.7624,   after     0.7501
 Range of M.O.s used for correlation:     1   206
 NBasis=   206 NAE=    34 NBE=    33 NFC=     0 NFV=     0
 NROrb=    206 NOA=    34 NOB=    33 NVA=   172 NVB=   173

 **** Warning!!: The largest alpha MO coefficient is  0.97842980D+02


 **** Warning!!: The largest beta MO coefficient is  0.11381778D+03

 Symmetrizing basis deriv contribution to polar:
 IMax=3 JMax=2 DiffMx= 0.00D+00
 G2DrvN: will do    17 centers at a time, making    1 passes doing MaxLOS=2.
 Calling FoFCou, ICntrl=  3107 FMM=F I1Cent=   0 AccDes= 0.00D+00.
 FoFDir/FoFCou used for L=0 through L=2.
 End of G2Drv Frequency-dependent properties file   721 does not exist.
 End of G2Drv Frequency-dependent properties file   722 does not exist.
          IDoAtm=1111111111111111
          Differentiating once with respect to nuclear coordinates.
          There are    51 degrees of freedom in the 1st order CPHF.  IDoFFX=5.
     45 vectors produced by pass  0 Test12= 2.27D-10 1.96D-07 XBig12= 3.78D-01 2.50D-01.
 AX will form    45 AO Fock derivatives at one time.
     45 vectors produced by pass  1 Test12= 2.27D-10 1.96D-07 XBig12= 5.70D-02 5.91D-02.
     45 vectors produced by pass  2 Test12= 2.27D-10 1.96D-07 XBig12= 1.50D-03 1.01D-02.
     45 vectors produced by pass  3 Test12= 2.27D-10 1.96D-07 XBig12= 2.92D-05 1.68D-03.
     45 vectors produced by pass  4 Test12= 2.27D-10 1.96D-07 XBig12= 3.32D-07 9.32D-05.
     32 vectors produced by pass  5 Test12= 2.27D-10 1.96D-07 XBig12= 2.35D-09 6.29D-06.
      7 vectors produced by pass  6 Test12= 2.27D-10 1.96D-07 XBig12= 2.83D-11 5.30D-07.
      1 vectors produced by pass  7 Test12= 2.27D-10 1.96D-07 XBig12= 1.39D-12 2.71D-07.
 Inverted reduced A of dimension   265 with in-core refinement.
 End of Minotr Frequency-dependent properties file   721 does not exist.
 End of Minotr Frequency-dependent properties file   722 does not exist.

 **********************************************************************

            Population analysis using the SCF density.

 **********************************************************************

 Orbital symmetries:
 Alpha Orbitals:
       Occupied  (A) (A) (A) (A) (A) (A) (A) (A) (A) (A) (A) (A)
                 (A) (A) (A) (A) (A) (A) (A) (A) (A) (A) (A) (A)
                 (A) (A) (A) (A) (A) (A) (A) (A) (A) (A)
       Virtual   (A) (A) (A) (A) (A) (A) (A) (A) (A) (A) (A) (A)
                 (A) (A) (A) (A) (A) (A) (A) (A) (A) (A) (A) (A)
                 (A) (A) (A) (A) (A) (A) (A) (A) (A) (A) (A) (A)
                 (A) (A) (A) (A) (A) (A) (A) (A) (A) (A) (A) (A)
                 (A) (A) (A) (A) (A) (A) (A) (A) (A) (A) (A) (A)
                 (A) (A) (A) (A) (A) (A) (A) (A) (A) (A) (A) (A)
                 (A) (A) (A) (A) (A) (A) (A) (A) (A) (A) (A) (A)
                 (A) (A) (A) (A) (A) (A) (A) (A) (A) (A) (A) (A)
                 (A) (A) (A) (A) (A) (A) (A) (A) (A) (A) (A) (A)
                 (A) (A) (A) (A) (A) (A) (A) (A) (A) (A) (A) (A)
                 (A) (A) (A) (A) (A) (A) (A) (A) (A) (A) (A) (A)
                 (A) (A) (A) (A) (A) (A) (A) (A) (A) (A) (A) (A)
                 (A) (A) (A) (A) (A) (A) (A) (A) (A) (A) (A) (A)
                 (A) (A) (A) (A) (A) (A) (A) (A) (A) (A) (A) (A)
                 (A) (A) (A) (A)
 Beta  Orbitals:
       Occupied  (A) (A) (A) (A) (A) (A) (A) (A) (A) (A) (A) (A)
                 (A) (A) (A) (A) (A) (A) (A) (A) (A) (A) (A) (A)
                 (A) (A) (A) (A) (A) (A) (A) (A) (A)
       Virtual   (A) (A) (A) (A) (A) (A) (A) (A) (A) (A) (A) (A)
                 (A) (A) (A) (A) (A) (A) (A) (A) (A) (A) (A) (A)
                 (A) (A) (A) (A) (A) (A) (A) (A) (A) (A) (A) (A)
                 (A) (A) (A) (A) (A) (A) (A) (A) (A) (A) (A) (A)
                 (A) (A) (A) (A) (A) (A) (A) (A) (A) (A) (A) (A)
                 (A) (A) (A) (A) (A) (A) (A) (A) (A) (A) (A) (A)
                 (A) (A) (A) (A) (A) (A) (A) (A) (A) (A) (A) (A)
                 (A) (A) (A) (A) (A) (A) (A) (A) (A) (A) (A) (A)
                 (A) (A) (A) (A) (A) (A) (A) (A) (A) (A) (A) (A)
                 (A) (A) (A) (A) (A) (A) (A) (A) (A) (A) (A) (A)
                 (A) (A) (A) (A) (A) (A) (A) (A) (A) (A) (A) (A)
                 (A) (A) (A) (A) (A) (A) (A) (A) (A) (A) (A) (A)
                 (A) (A) (A) (A) (A) (A) (A) (A) (A) (A) (A) (A)
                 (A) (A) (A) (A) (A) (A) (A) (A) (A) (A) (A) (A)
                 (A) (A) (A) (A) (A)
 The electronic state is 2-A.
 Alpha  occ. eigenvalues --  -19.77709 -19.75289 -19.66108 -10.61623 -10.56635
 Alpha  occ. eigenvalues --  -10.56584 -10.56525 -10.56410 -10.56343  -1.35663
 Alpha  occ. eigenvalues --   -1.12710  -1.02077  -0.96279  -0.85187  -0.83760
 Alpha  occ. eigenvalues --   -0.70014  -0.69795  -0.67602  -0.63610  -0.59373
 Alpha  occ. eigenvalues --   -0.58652  -0.54226  -0.53599  -0.51241  -0.49401
 Alpha  occ. eigenvalues --   -0.48624  -0.43859  -0.42268  -0.42063  -0.40730
 Alpha  occ. eigenvalues --   -0.39180  -0.36510  -0.31600  -0.29745
 Alpha virt. eigenvalues --    0.01243   0.02128   0.02373   0.03010   0.03645
 Alpha virt. eigenvalues --    0.04369   0.05481   0.06063   0.07444   0.08081
 Alpha virt. eigenvalues --    0.09776   0.10156   0.10468   0.10810   0.13488
 Alpha virt. eigenvalues --    0.14126   0.14179   0.14682   0.15127   0.15351
 Alpha virt. eigenvalues --    0.17183   0.17383   0.18154   0.18383   0.19134
 Alpha virt. eigenvalues --    0.19890   0.21059   0.21728   0.22422   0.22786
 Alpha virt. eigenvalues --    0.23173   0.24511   0.24875   0.25028   0.25161
 Alpha virt. eigenvalues --    0.26474   0.28660   0.29390   0.30497   0.32017
 Alpha virt. eigenvalues --    0.32665   0.33201   0.35352   0.36285   0.38144
 Alpha virt. eigenvalues --    0.38413   0.39097   0.39872   0.41803   0.42153
 Alpha virt. eigenvalues --    0.44130   0.45944   0.61483   0.64918   0.66112
 Alpha virt. eigenvalues --    0.70423   0.72680   0.76197   0.76972   0.78190
 Alpha virt. eigenvalues --    0.78601   0.79472   0.82342   0.83656   0.85099
 Alpha virt. eigenvalues --    0.85805   0.92115   0.96440   0.96902   0.97156
 Alpha virt. eigenvalues --    0.99848   1.00167   1.02944   1.04857   1.05906
 Alpha virt. eigenvalues --    1.07641   1.11496   1.12275   1.14597   1.16244
 Alpha virt. eigenvalues --    1.16470   1.18640   1.19256   1.23537   1.24818
 Alpha virt. eigenvalues --    1.26614   1.29046   1.29475   1.30926   1.34311
 Alpha virt. eigenvalues --    1.35984   1.40298   1.43209   1.43240   1.45049
 Alpha virt. eigenvalues --    1.46120   1.46678   1.47010   1.47653   1.50710
 Alpha virt. eigenvalues --    1.54841   1.56679   1.62081   1.68321   1.71407
 Alpha virt. eigenvalues --    1.72957   1.81958   1.82641   1.83798   1.87588
 Alpha virt. eigenvalues --    1.89930   1.92529   1.94997   1.97753   2.00389
 Alpha virt. eigenvalues --    2.01043   2.02225   2.05362   2.05759   2.08672
 Alpha virt. eigenvalues --    2.13064   2.15703   2.16560   2.24669   2.29398
 Alpha virt. eigenvalues --    2.31381   2.31663   2.38359   2.40091   2.40624
 Alpha virt. eigenvalues --    2.41200   2.41549   2.47517   2.48425   2.51526
 Alpha virt. eigenvalues --    2.52453   2.53842   2.55097   2.57296   2.59518
 Alpha virt. eigenvalues --    2.61378   2.65321   2.66771   2.68296   2.72589
 Alpha virt. eigenvalues --    2.78877   2.82071   2.83419   2.92860   2.96300
 Alpha virt. eigenvalues --    3.01507   3.03701   3.06449   3.09065   3.18785
 Alpha virt. eigenvalues --    3.22280   3.23796   3.34389   3.40641   3.41131
 Alpha virt. eigenvalues --    3.49237   3.62706   3.86360   3.97068   4.26381
 Alpha virt. eigenvalues --    4.30177   4.31080   4.34974   4.45634   4.50457
 Alpha virt. eigenvalues --    4.58618   4.89105
  Beta  occ. eigenvalues --  -19.77081 -19.74190 -19.65570 -10.61653 -10.56636
  Beta  occ. eigenvalues --  -10.56599 -10.56501 -10.56373 -10.56305  -1.33164
  Beta  occ. eigenvalues --   -1.11042  -0.98764  -0.96014  -0.85130  -0.83446
  Beta  occ. eigenvalues --   -0.69733  -0.68725  -0.66642  -0.60764  -0.58411
  Beta  occ. eigenvalues --   -0.55164  -0.53473  -0.52732  -0.49524  -0.49357
  Beta  occ. eigenvalues --   -0.46724  -0.42482  -0.42025  -0.40342  -0.38997
  Beta  occ. eigenvalues --   -0.35586  -0.31398  -0.29549
  Beta virt. eigenvalues --   -0.14013   0.01515   0.02394   0.02625   0.03219
  Beta virt. eigenvalues --    0.03724   0.04492   0.05588   0.06337   0.07547
  Beta virt. eigenvalues --    0.08145   0.09984   0.10283   0.10592   0.11001
  Beta virt. eigenvalues --    0.13627   0.14185   0.14313   0.14827   0.15355
  Beta virt. eigenvalues --    0.15611   0.17258   0.17540   0.18349   0.18658
  Beta virt. eigenvalues --    0.19206   0.20041   0.21616   0.22203   0.22583
  Beta virt. eigenvalues --    0.22925   0.23444   0.24692   0.24984   0.25251
  Beta virt. eigenvalues --    0.25340   0.26525   0.28910   0.29728   0.30625
  Beta virt. eigenvalues --    0.32227   0.32947   0.33409   0.35725   0.36592
  Beta virt. eigenvalues --    0.38304   0.38575   0.39220   0.40440   0.41894
  Beta virt. eigenvalues --    0.42384   0.45046   0.46156   0.61546   0.65027
  Beta virt. eigenvalues --    0.66240   0.70549   0.72819   0.76295   0.77039
  Beta virt. eigenvalues --    0.78639   0.78759   0.79654   0.82342   0.83760
  Beta virt. eigenvalues --    0.85113   0.85842   0.92228   0.96591   0.97023
  Beta virt. eigenvalues --    0.97422   0.99934   1.00334   1.03139   1.04943
  Beta virt. eigenvalues --    1.06112   1.07717   1.11577   1.12665   1.15311
  Beta virt. eigenvalues --    1.16456   1.17667   1.18770   1.20030   1.24017
  Beta virt. eigenvalues --    1.26271   1.27724   1.29503   1.30058   1.31870
  Beta virt. eigenvalues --    1.34955   1.36788   1.40524   1.43538   1.43579
  Beta virt. eigenvalues --    1.45231   1.46294   1.46992   1.47243   1.48316
  Beta virt. eigenvalues --    1.51449   1.55810   1.57785   1.62982   1.69035
  Beta virt. eigenvalues --    1.72385   1.73231   1.82427   1.83315   1.84469
  Beta virt. eigenvalues --    1.87967   1.91178   1.92991   1.95197   1.97864
  Beta virt. eigenvalues --    2.00586   2.01301   2.02401   2.05466   2.05846
  Beta virt. eigenvalues --    2.08802   2.13230   2.15645   2.16918   2.25656
  Beta virt. eigenvalues --    2.29636   2.31624   2.31901   2.38544   2.40285
  Beta virt. eigenvalues --    2.40713   2.41607   2.41732   2.47743   2.48664
  Beta virt. eigenvalues --    2.51674   2.52676   2.54038   2.55226   2.57381
  Beta virt. eigenvalues --    2.59630   2.61557   2.65606   2.66954   2.68496
  Beta virt. eigenvalues --    2.72723   2.78983   2.82160   2.83244   2.92943
  Beta virt. eigenvalues --    2.96114   3.01763   3.03841   3.06483   3.09515
  Beta virt. eigenvalues --    3.18914   3.22375   3.23870   3.34639   3.40852
  Beta virt. eigenvalues --    3.41057   3.49364   3.62502   3.86554   3.97329
  Beta virt. eigenvalues --    4.27174   4.30376   4.31209   4.35107   4.46087
  Beta virt. eigenvalues --    4.50633   4.58746   4.89235
          Condensed to atoms (all electrons):
              1          2          3          4          5          6
     1  C    5.342435   0.358123   0.011416  -0.273745   0.081630   0.370109
     2  C    0.358123   6.975008  -0.369555  -1.137214  -0.045392   0.044965
     3  C    0.011416  -0.369555   7.404892  -0.829920  -0.138514  -0.432722
     4  C   -0.273745  -1.137214  -0.829920   7.669291   0.199745   0.197504
     5  C    0.081630  -0.045392  -0.138514   0.199745   5.446001   0.343904
     6  C    0.370109   0.044965  -0.432722   0.197504   0.343904   5.305501
     7  H    0.253954   0.026912   0.002420  -0.006668   0.001157   0.045265
     8  H    0.003202   0.246841   0.066643   0.013661   0.000951  -0.006346
     9  H    0.002642   0.011873   0.069334   0.236567   0.012055  -0.008353
    10  H   -0.000825  -0.004446   0.002023   0.035376   0.243446   0.047191
    11  H    0.045017  -0.008337   0.006594  -0.008165   0.043902   0.242457
    12  O    0.023709  -0.147982   0.517978  -0.311750   0.024137  -0.021934
    13  H   -0.010141  -0.037877  -0.110913   0.113182   0.003323   0.004693
    14  O   -0.006162  -0.029775   0.074531  -0.003783  -0.002243   0.000421
    15  O    0.003841   0.025758  -0.044938  -0.006106   0.003785  -0.000425
    16  H    0.000107   0.006136   0.009902  -0.011972  -0.000561  -0.000034
              7          8          9         10         11         12
     1  C    0.253954   0.003202   0.002642  -0.000825   0.045017   0.023709
     2  C    0.026912   0.246841   0.011873  -0.004446  -0.008337  -0.147982
     3  C    0.002420   0.066643   0.069334   0.002023   0.006594   0.517978
     4  C   -0.006668   0.013661   0.236567   0.035376  -0.008165  -0.311750
     5  C    0.001157   0.000951   0.012055   0.243446   0.043902   0.024137
     6  C    0.045265  -0.006346  -0.008353   0.047191   0.242457  -0.021934
     7  H    0.524768  -0.004466   0.000010  -0.000134  -0.004456  -0.000513
     8  H   -0.004466   0.513287  -0.000107   0.000010  -0.000116  -0.005410
     9  H    0.000010  -0.000107   0.519472  -0.004586  -0.000117  -0.004822
    10  H   -0.000134   0.000010  -0.004586   0.526319  -0.004481  -0.000523
    11  H   -0.004456  -0.000116  -0.000117  -0.004481   0.529857   0.000063
    12  O   -0.000513  -0.005410  -0.004822  -0.000523   0.000063   8.355143
    13  H    0.000000   0.000164   0.000085   0.000001   0.000000   0.180603
    14  O   -0.000030  -0.000311  -0.000266  -0.000041   0.000000  -0.030656
    15  O   -0.000001  -0.000037  -0.000077  -0.000002   0.000000   0.028848
    16  H    0.000000   0.000000   0.000002   0.000000   0.000000  -0.002327
             13         14         15         16
     1  C   -0.010141  -0.006162   0.003841   0.000107
     2  C   -0.037877  -0.029775   0.025758   0.006136
     3  C   -0.110913   0.074531  -0.044938   0.009902
     4  C    0.113182  -0.003783  -0.006106  -0.011972
     5  C    0.003323  -0.002243   0.003785  -0.000561
     6  C    0.004693   0.000421  -0.000425  -0.000034
     7  H    0.000000  -0.000030  -0.000001   0.000000
     8  H    0.000164  -0.000311  -0.000037   0.000000
     9  H    0.000085  -0.000266  -0.000077   0.000002
    10  H    0.000001  -0.000041  -0.000002   0.000000
    11  H    0.000000   0.000000   0.000000   0.000000
    12  O    0.180603  -0.030656   0.028848  -0.002327
    13  H    0.335755   0.062290  -0.016286  -0.000791
    14  O    0.062290   8.121601   0.111147  -0.036508
    15  O   -0.016286   0.111147   7.880655   0.248727
    16  H   -0.000791  -0.036508   0.248727   0.397077
 Mulliken atomic charges:
              1
     1  C   -0.205313
     2  C    0.084961
     3  C   -0.239171
     4  C    0.123999
     5  C   -0.217325
     6  C   -0.132196
     7  H    0.161781
     8  H    0.172035
     9  H    0.166287
    10  H    0.160671
    11  H    0.157783
    12  O   -0.604563
    13  H    0.475912
    14  O   -0.260215
    15  O   -0.234888
    16  H    0.390243
 Sum of Mulliken atomic charges =   0.00000
 Mulliken charges with hydrogens summed into heavy atoms:
              1
     1  C   -0.043532
     2  C    0.256996
     3  C   -0.239171
     4  C    0.290287
     5  C   -0.056654
     6  C    0.025587
    12  O   -0.128651
    14  O   -0.260215
    15  O    0.155355
 Sum of Mulliken charges with hydrogens summed into heavy atoms =   0.00000
          Atomic-Atomic Spin Densities.
              1          2          3          4          5          6
     1  C   -0.073579   0.015420  -0.015979   0.034247  -0.002985  -0.000794
     2  C    0.015420   0.189464  -0.158408  -0.010040  -0.006696   0.016386
     3  C   -0.015979  -0.158408  -0.036636   0.163148   0.029157   0.024882
     4  C    0.034247  -0.010040   0.163148  -0.069566  -0.009190  -0.024718
     5  C   -0.002985  -0.006696   0.029157  -0.009190  -0.050755   0.004026
     6  C   -0.000794   0.016386   0.024882  -0.024718   0.004026   0.061926
     7  H   -0.000014  -0.000082  -0.000172  -0.000007   0.000053   0.000257
     8  H    0.000459   0.001795  -0.002212  -0.000399  -0.000279   0.000622
     9  H   -0.000432   0.000711  -0.002364   0.001725  -0.000467   0.000784
    10  H    0.000062  -0.000100  -0.000218  -0.000364   0.000349   0.000314
    11  H    0.000243  -0.000357   0.000169  -0.000270   0.000220   0.000007
    12  O    0.002171   0.011576  -0.054302  -0.000246  -0.002500   0.001825
    13  H    0.002830   0.005507   0.043889  -0.036243  -0.003359  -0.001742
    14  O   -0.002598  -0.022947   0.006753   0.020935   0.003658   0.000572
    15  O    0.000239   0.006830  -0.003836  -0.005045  -0.001200   0.000025
    16  H    0.000013  -0.000075  -0.000760   0.000431   0.000024   0.000001
              7          8          9         10         11         12
     1  C   -0.000014   0.000459  -0.000432   0.000062   0.000243   0.002171
     2  C   -0.000082   0.001795   0.000711  -0.000100  -0.000357   0.011576
     3  C   -0.000172  -0.002212  -0.002364  -0.000218   0.000169  -0.054302
     4  C   -0.000007  -0.000399   0.001725  -0.000364  -0.000270  -0.000246
     5  C    0.000053  -0.000279  -0.000467   0.000349   0.000220  -0.002500
     6  C    0.000257   0.000622   0.000784   0.000314   0.000007   0.001825
     7  H    0.000963  -0.000011   0.000000  -0.000001   0.000002   0.000005
     8  H   -0.000011  -0.003330   0.000000   0.000000   0.000001   0.000090
     9  H    0.000000   0.000000  -0.003372  -0.000009   0.000001   0.000124
    10  H   -0.000001   0.000000  -0.000009   0.000930   0.000002   0.000005
    11  H    0.000002   0.000001   0.000001   0.000002  -0.003722  -0.000001
    12  O    0.000005   0.000090   0.000124   0.000005  -0.000001   0.315182
    13  H    0.000000  -0.000001  -0.000017   0.000000   0.000000   0.003434
    14  O    0.000000   0.000016   0.000022   0.000000   0.000000  -0.037747
    15  O    0.000000  -0.000002  -0.000001   0.000000   0.000000   0.013524
    16  H    0.000000   0.000000   0.000000   0.000000   0.000000   0.000194
             13         14         15         16
     1  C    0.002830  -0.002598   0.000239   0.000013
     2  C    0.005507  -0.022947   0.006830  -0.000075
     3  C    0.043889   0.006753  -0.003836  -0.000760
     4  C   -0.036243   0.020935  -0.005045   0.000431
     5  C   -0.003359   0.003658  -0.001200   0.000024
     6  C   -0.001742   0.000572   0.000025   0.000001
     7  H    0.000000   0.000000   0.000000   0.000000
     8  H   -0.000001   0.000016  -0.000002   0.000000
     9  H   -0.000017   0.000022  -0.000001   0.000000
    10  H    0.000000   0.000000   0.000000   0.000000
    11  H    0.000000   0.000000   0.000000   0.000000
    12  O    0.003434  -0.037747   0.013524   0.000194
    13  H   -0.092457   0.016867  -0.002025   0.000267
    14  O    0.016867   0.598545  -0.098385   0.001245
    15  O   -0.002025  -0.098385   0.319245   0.000150
    16  H    0.000267   0.001245   0.000150  -0.010169
 Mulliken atomic spin densities:
              1
     1  C   -0.040695
     2  C    0.048984
     3  C   -0.006891
     4  C    0.064398
     5  C   -0.039946
     6  C    0.084373
     7  H    0.000993
     8  H   -0.003251
     9  H   -0.003295
    10  H    0.000971
    11  H   -0.003705
    12  O    0.253334
    13  H   -0.063048
    14  O    0.486937
    15  O    0.229519
    16  H   -0.008678
 Sum of Mulliken atomic spin densities =   1.00000
 APT atomic charges:
              1
     1  C   -0.523411
     2  C   -0.258601
     3  C   -0.823911
     4  C   -0.264457
     5  C   -0.541661
     6  C   -0.436634
     7  H    0.683058
     8  H    0.470022
     9  H    0.441230
    10  H    0.659454
    11  H    0.775433
    12  O   -0.670842
    13  H    0.534310
    14  O   -0.251702
    15  O   -0.543686
    16  H    0.751398
 Sum of APT charges=   0.00000
 APT Atomic charges with hydrogens summed into heavy atoms:
              1
     1  C    0.159647
     2  C    0.211421
     3  C   -0.823911
     4  C    0.176773
     5  C    0.117793
     6  C    0.338799
     7  H    0.000000
     8  H    0.000000
     9  H    0.000000
    10  H    0.000000
    11  H    0.000000
    12  O   -0.136532
    13  H    0.000000
    14  O   -0.251702
    15  O    0.207712
    16  H    0.000000
 Sum of APT charges=   0.00000
 Electronic spatial extent (au):  <R**2>=           1604.9830
 Charge=              0.0000 electrons
 Dipole moment (field-independent basis, Debye):
    X=             -0.2537    Y=              1.7208    Z=             -0.7776  Tot=              1.9053
 Quadrupole moment (field-independent basis, Debye-Ang):
   XX=            -39.3275   YY=            -46.3726   ZZ=            -59.0610
   XY=             -7.2479   XZ=             -3.2679   YZ=              0.8456
 Traceless Quadrupole moment (field-independent basis, Debye-Ang):
   XX=              8.9262   YY=              1.8811   ZZ=            -10.8073
   XY=             -7.2479   XZ=             -3.2679   YZ=              0.8456
 Octapole moment (field-independent basis, Debye-Ang**2):
  XXX=            -69.9842  YYY=              1.9195  ZZZ=             -4.2678  XYY=            -10.4606
  XXY=             31.2196  XXZ=             -3.5768  XZZ=             -9.9340  YZZ=              0.8669
  YYZ=             -0.4244  XYZ=              0.3678
 Hexadecapole moment (field-independent basis, Debye-Ang**3):
 XXXX=          -1275.4414 YYYY=           -283.6097 ZZZZ=           -175.7922 XXXY=           -132.5061
 XXXZ=            -60.4573 YYYX=            -10.3137 YYYZ=              2.1511 ZZZX=             15.8897
 ZZZY=             -0.2238 XXYY=           -267.8262 XXZZ=           -303.4434 YYZZ=            -85.6433
 XXYZ=             -0.7828 YYXZ=             -2.5358 ZZXY=             -3.6371
 N-N= 4.085576126718D+02 E-N=-2.820917068214D+03  KE= 6.794650272059D+02
  Exact polarizability:   0.000   0.000   0.000   0.000   0.000   0.000
 Approx polarizability: 204.219  -1.905 112.739   0.477   0.996  82.196
                          Isotropic Fermi Contact Couplings
        Atom                 a.u.       MegaHertz       Gauss      10(-4) cm-1
     1  C(13)             -0.00725      -8.15586      -2.91021      -2.72050
     2  C(13)              0.00937      10.53841       3.76037       3.51523
     3  C(13)             -0.01353     -15.21191      -5.42799      -5.07415
     4  C(13)              0.00902      10.13855       3.61769       3.38186
     5  C(13)             -0.00739      -8.30461      -2.96329      -2.77012
     6  C(13)              0.01202      13.51471       4.82239       4.50802
     7  H(1)               0.00029       1.30954       0.46728       0.43682
     8  H(1)              -0.00105      -4.67467      -1.66804      -1.55930
     9  H(1)              -0.00105      -4.67836      -1.66935      -1.56053
    10  H(1)               0.00028       1.26257       0.45052       0.42115
    11  H(1)              -0.00112      -5.00690      -1.78659      -1.67012
    12  O(17)              0.01047      -6.34570      -2.26431      -2.11670
    13  H(1)              -0.03065    -136.98128     -48.87833     -45.69204
    14  O(17)              0.07116     -43.13469     -15.39153     -14.38818
    15  O(17)              0.05397     -32.71350     -11.67299     -10.91205
    16  H(1)              -0.00481     -21.50332      -7.67292      -7.17274
 --------------------------------------------------------
       Center         ----  Spin Dipole Couplings  ----
                      3XX-RR        3YY-RR        3ZZ-RR
 --------------------------------------------------------
     1   Atom        0.006585      0.009038     -0.015624
     2   Atom       -0.015445     -0.028012      0.043457
     3   Atom        0.023691      0.000738     -0.024429
     4   Atom       -0.013427     -0.027529      0.040956
     5   Atom        0.006971      0.009035     -0.016005
     6   Atom       -0.013379     -0.034202      0.047581
     7   Atom        0.001236     -0.000026     -0.001210
     8   Atom       -0.001107      0.004310     -0.003203
     9   Atom       -0.000630      0.003694     -0.003064
    10   Atom        0.001407     -0.000240     -0.001168
    11   Atom        0.005237     -0.005167     -0.000070
    12   Atom       -0.210842     -0.504544      0.715386
    13   Atom        0.029516     -0.084746      0.055231
    14   Atom       -0.877641     -0.961449      1.839090
    15   Atom       -0.446013     -0.461493      0.907507
    16   Atom       -0.019972      0.032910     -0.012938
 --------------------------------------------------------
                        XY            XZ            YZ
 --------------------------------------------------------
     1   Atom        0.000648     -0.012304      0.001087
     2   Atom       -0.002568      0.025913     -0.000974
     3   Atom        0.000833     -0.006575      0.000517
     4   Atom        0.000496      0.028590     -0.004294
     5   Atom        0.000903     -0.011974      0.001445
     6   Atom       -0.001560      0.034748     -0.004528
     7   Atom        0.000146     -0.000697     -0.000243
     8   Atom       -0.000758      0.000806     -0.000053
     9   Atom        0.000225      0.001107      0.001586
    10   Atom        0.000103     -0.000713      0.000304
    11   Atom        0.000857     -0.002469     -0.000582
    12   Atom       -0.082492      0.634356     -0.153345
    13   Atom       -0.020088      0.130845     -0.028057
    14   Atom       -0.117198      0.742734     -0.486691
    15   Atom       -0.121884      0.456018     -0.319056
    16   Atom       -0.032189     -0.006499      0.021552
 --------------------------------------------------------


 ---------------------------------------------------------------------------------
              Anisotropic Spin Dipole Couplings in Principal Axis System
 ---------------------------------------------------------------------------------

       Atom             a.u.   MegaHertz   Gauss  10(-4) cm-1        Axes

              Baa    -0.0211    -2.838    -1.013    -0.947  0.4060 -0.0416  0.9129
     1 C(13)  Bbb     0.0091     1.219     0.435     0.407 -0.0292  0.9979  0.0584
              Bcc     0.0121     1.619     0.578     0.540  0.9134  0.0504 -0.4039
 
              Baa    -0.0291    -3.910    -1.395    -1.304  0.4424  0.8848 -0.1461
     2 C(13)  Bbb    -0.0241    -3.239    -1.156    -1.081  0.8242 -0.4654 -0.3227
              Bcc     0.0533     7.149     2.551     2.385  0.3535 -0.0224  0.9352
 
              Baa    -0.0253    -3.399    -1.213    -1.134  0.1333 -0.0239  0.9908
     3 C(13)  Bbb     0.0007     0.098     0.035     0.033 -0.0282  0.9992  0.0279
              Bcc     0.0246     3.301     1.178     1.101  0.9907  0.0317 -0.1325
 
              Baa    -0.0291    -3.901    -1.392    -1.301 -0.4779  0.8430  0.2468
     4 C(13)  Bbb    -0.0243    -3.264    -1.165    -1.089  0.7858  0.5359 -0.3089
              Bcc     0.0534     7.165     2.557     2.390  0.3927 -0.0463  0.9185
 
              Baa    -0.0212    -2.845    -1.015    -0.949  0.3920 -0.0556  0.9183
     5 C(13)  Bbb     0.0091     1.222     0.436     0.408 -0.0595  0.9946  0.0856
              Bcc     0.0121     1.624     0.579     0.542  0.9180  0.0882 -0.3866
 
              Baa    -0.0345    -4.626    -1.651    -1.543 -0.0558  0.9953  0.0786
     6 C(13)  Bbb    -0.0291    -3.903    -1.393    -1.302  0.9095  0.0832 -0.4073
              Bcc     0.0636     8.528     3.043     2.845  0.4120 -0.0487  0.9099
 
              Baa    -0.0014    -0.759    -0.271    -0.253  0.2436  0.1416  0.9595
     7 H(1)   Bbb     0.0000    -0.014    -0.005    -0.005 -0.1696  0.9803 -0.1016
              Bcc     0.0014     0.773     0.276     0.258  0.9549  0.1379 -0.2628
 
              Baa    -0.0035    -1.858    -0.663    -0.620 -0.3284 -0.0256  0.9442
     8 H(1)   Bbb    -0.0009    -0.499    -0.178    -0.166  0.9343  0.1383  0.3287
              Bcc     0.0044     2.357     0.841     0.786 -0.1390  0.9901 -0.0215
 
              Baa    -0.0038    -2.006    -0.716    -0.669 -0.3155 -0.1883  0.9301
     9 H(1)   Bbb    -0.0003    -0.178    -0.063    -0.059  0.9436 -0.1655  0.2866
              Bcc     0.0041     2.184     0.779     0.729  0.1000  0.9681  0.2299
 
              Baa    -0.0014    -0.767    -0.274    -0.256  0.2435 -0.2582  0.9349
    10 H(1)   Bbb    -0.0002    -0.082    -0.029    -0.027  0.0518  0.9660  0.2533
              Bcc     0.0016     0.849     0.303     0.283  0.9685  0.0133 -0.2486
 
              Baa    -0.0053    -2.811    -1.003    -0.938 -0.0619  0.9947  0.0819
    11 H(1)   Bbb    -0.0010    -0.549    -0.196    -0.183  0.3724 -0.0531  0.9265
              Bcc     0.0063     3.360     1.199     1.121  0.9260  0.0879 -0.3672
 
              Baa    -0.5347    38.689    13.805    12.905  0.8515  0.3516 -0.3890
    12 O(17)  Bbb    -0.5224    37.802    13.489    12.609 -0.2684  0.9296  0.2527
              Bcc     1.0571   -76.491   -27.294   -25.515  0.4504 -0.1108  0.8859
 
              Baa    -0.0931   -49.667   -17.722   -16.567 -0.4593  0.7063  0.5388
    13 H(1)   Bbb    -0.0852   -45.474   -16.226   -15.169  0.5894  0.6961 -0.4100
              Bcc     0.1783    95.141    33.949    31.736  0.6646 -0.1292  0.7359
 
              Baa    -1.0692    77.369    27.607    25.807  0.9273 -0.2498 -0.2786
    14 O(17)  Bbb    -1.0412    75.342    26.884    25.131  0.2837  0.9549  0.0882
              Bcc     2.1105  -152.711   -54.491   -50.939  0.2440 -0.1608  0.9563
 
              Baa    -0.5941    42.991    15.340    14.340  0.9137  0.3522 -0.2027
    15 O(17)  Bbb    -0.5261    38.068    13.584    12.698 -0.2863  0.9119  0.2940
              Bcc     1.1202   -81.059   -28.924   -27.038  0.2883 -0.2106  0.9341
 
              Baa    -0.0358   -19.123    -6.824    -6.379  0.8643  0.4649 -0.1922
    16 H(1)   Bbb    -0.0196   -10.431    -3.722    -3.479  0.3104 -0.1920  0.9310
              Bcc     0.0554    29.554    10.546     9.858 -0.3959  0.8643  0.3103
 

 ---------------------------------------------------------------------------------

 Calling FoFJK, ICntrl=    100147 FMM=F ISym2X=0 I1Cent= 0 IOpClX= 1 NMat=1 NMatS=1 NMatT=0.
 ***** Axes restored to original set *****
 -------------------------------------------------------------------
 Center     Atomic                   Forces (Hartrees/Bohr)
 Number     Number              X              Y              Z
 -------------------------------------------------------------------
      1        6          -0.001173802   -0.006256410   -0.001305644
      2        6           0.000245905   -0.015596012   -0.001025747
      3        6           0.052938100   -0.002044061    0.003647094
      4        6           0.001911361    0.015034965    0.000710742
      5        6          -0.001288280    0.006324994   -0.000162106
      6        6          -0.010851962    0.000542139    0.000825408
      7        1           0.005591966    0.007920899    0.000152221
      8        1          -0.002194842    0.009857365    0.001191158
      9        1          -0.002887929   -0.009745307   -0.000315947
     10        1           0.005111272   -0.008259412   -0.001083633
     11        1           0.009395707   -0.000202697   -0.000595855
     12        8          -0.030991945   -0.003996230    0.030211393
     13        1          -0.030701612    0.005907251   -0.036592989
     14        8          -0.008469527    0.006538152    0.002310567
     15        8           0.017384675   -0.023049479    0.001992503
     16        1          -0.004019086    0.017023844    0.000040835
 -------------------------------------------------------------------
 Cartesian Forces:  Max     0.052938100 RMS     0.014032082

 GradGradGradGradGradGradGradGradGradGradGradGradGradGradGradGradGradGrad
 Berny optimization.
 Internal  Forces:  Max     0.056490828 RMS     0.009752142
 Search for a saddle point.
 Step number   1 out of a maximum of   77
 All quantities printed in internal units (Hartrees-Bohrs-Radians)
 Swaping is turned off.
 Second derivative matrix not updated -- analytic derivatives used.
     Eigenvalues ---   -0.09729  -0.00322  -0.00025   0.00394   0.01746
     Eigenvalues ---    0.01799   0.01882   0.02073   0.02308   0.02374
     Eigenvalues ---    0.02509   0.02657   0.02832   0.02858   0.02951
     Eigenvalues ---    0.09643   0.10555   0.10883   0.11145   0.11286
     Eigenvalues ---    0.12137   0.12313   0.17050   0.17665   0.19063
     Eigenvalues ---    0.19900   0.20706   0.21602   0.27429   0.28794
     Eigenvalues ---    0.33890   0.33960   0.34153   0.34215   0.34398
     Eigenvalues ---    0.42617   0.43202   0.47446   0.47941   0.50392
     Eigenvalues ---    0.52624   0.554961000.000001000.000001000.00000
     Eigenvalues --- 1000.000001000.000001000.000001000.000001000.00000
     Eigenvalues --- 1000.000001000.000001000.000001000.000001000.00000
     Eigenvalues --- 1000.000001000.000001000.000001000.000001000.00000
     Eigenvalues --- 1000.000001000.000001000.000001000.000001000.00000
     Eigenvalues --- 1000.000001000.00000
 Eigenvectors required to have negative eigenvalues:
                          R14       R13       R7        R15       A19
   1                    0.74371  -0.61840   0.15567  -0.15267  -0.07751
                          A21       R4        R6        A22       R16
   1                    0.06780  -0.03830  -0.03812   0.02896   0.01912
 RFO step:  Lambda0=3.593097709D-03 Lambda=-2.32671907D-02.
 Linear search not attempted -- option 19 set.
 Maximum step size (   0.030) exceeded in Quadratic search.
    -- Step size scaled by   0.052
 Iteration  1 RMS(Cart)=  0.01112992 RMS(Int)=  0.00009653
 Iteration  2 RMS(Cart)=  0.00011090 RMS(Int)=  0.00000013
 Iteration  3 RMS(Cart)=  0.00000002 RMS(Int)=  0.00000013
 Variable       Old X    -DE/DX   Delta X   Delta X   Delta X     New X
                                 (Linear)    (Quad)   (Total)
    R1        2.63647  -0.00358   0.00000  -0.00081  -0.00081   2.63566
    R2        2.63584   0.00180   0.00000   0.00040   0.00040   2.63624
    R3        2.07796  -0.00968   0.00000  -0.00136  -0.00136   2.07660
    R4        2.63562   0.00126   0.00000   0.00162   0.00162   2.63724
    R5        2.07805  -0.00979   0.00000  -0.00137  -0.00137   2.07667
    R6        2.63697   0.00071   0.00000   0.00154   0.00154   2.63852
    R7        2.70231  -0.05649   0.00000  -0.01318  -0.01318   2.68912
    R8        2.63584  -0.00335   0.00000  -0.00084  -0.00084   2.63499
    R9        2.07809  -0.00981   0.00000  -0.00139  -0.00139   2.07671
   R10        2.63643   0.00140   0.00000   0.00035   0.00035   2.63677
   R11        2.07825  -0.00976   0.00000  -0.00140  -0.00140   2.07685
   R12        2.07795  -0.00941   0.00000  -0.00136  -0.00136   2.07659
   R13        2.20639  -0.04084   0.00000  -0.00107  -0.00107   2.20532
   R14        2.41425   0.00532   0.00000  -0.00988  -0.00988   2.40437
   R15        2.49444   0.01329   0.00000   0.00374   0.00374   2.49818
   R16        1.81414   0.01484   0.00000   0.00104   0.00104   1.81517
    A1        2.09437   0.00061   0.00000   0.00010   0.00010   2.09447
    A2        2.09435  -0.00093   0.00000  -0.00002  -0.00002   2.09433
    A3        2.09447   0.00032   0.00000  -0.00009  -0.00009   2.09438
    A4        2.09455  -0.00287   0.00000   0.00009   0.00009   2.09464
    A5        2.09406   0.00427   0.00000   0.00124   0.00124   2.09530
    A6        2.09458  -0.00140   0.00000  -0.00133  -0.00133   2.09325
    A7        2.09429   0.00411   0.00000  -0.00062  -0.00062   2.09367
    A8        2.09462  -0.00171   0.00000   0.00079   0.00078   2.09540
    A9        2.09427  -0.00240   0.00000  -0.00016  -0.00016   2.09411
   A10        2.09429  -0.00273   0.00000   0.00015   0.00015   2.09444
   A11        2.09407  -0.00140   0.00000  -0.00159  -0.00159   2.09248
   A12        2.09483   0.00413   0.00000   0.00144   0.00144   2.09627
   A13        2.09448   0.00058   0.00000   0.00009   0.00009   2.09457
   A14        2.09459  -0.00090   0.00000  -0.00008  -0.00008   2.09452
   A15        2.09411   0.00032   0.00000  -0.00001  -0.00001   2.09410
   A16        2.09440   0.00031   0.00000   0.00019   0.00019   2.09459
   A17        2.09453  -0.00010   0.00000  -0.00005  -0.00005   2.09449
   A18        2.09426  -0.00021   0.00000  -0.00014  -0.00014   2.09411
   A19        1.94988  -0.01195   0.00000   0.00083   0.00083   1.95071
   A20        2.79253   0.00828   0.00000   0.01007   0.01007   2.80260
   A21        1.87007   0.00189   0.00000  -0.00008  -0.00008   1.86999
   A22        1.91063  -0.01619   0.00000  -0.00414  -0.00414   1.90650
    D1        0.00056  -0.00012   0.00000   0.00033   0.00033   0.00089
    D2        3.14078   0.00018   0.00000   0.00047   0.00047   3.14125
    D3       -3.14112  -0.00011   0.00000   0.00004   0.00004  -3.14108
    D4       -0.00091   0.00020   0.00000   0.00019   0.00019  -0.00071
    D5        0.00026   0.00011   0.00000  -0.00025  -0.00025   0.00001
    D6        3.14140   0.00009   0.00000  -0.00027  -0.00027   3.14113
    D7       -3.14124   0.00009   0.00000   0.00003   0.00003  -3.14121
    D8       -0.00010   0.00007   0.00000   0.00001   0.00001  -0.00009
    D9       -0.00099   0.00011   0.00000   0.00003   0.00003  -0.00096
   D10        3.14093   0.00132   0.00000   0.00118   0.00118  -3.14108
   D11       -3.14120  -0.00020   0.00000  -0.00012  -0.00012  -3.14132
   D12        0.00072   0.00101   0.00000   0.00103   0.00103   0.00175
   D13        0.00060  -0.00008   0.00000  -0.00047  -0.00047   0.00013
   D14       -3.14153   0.00019   0.00000   0.00004   0.00004  -3.14149
   D15       -3.14132  -0.00129   0.00000  -0.00162  -0.00162   3.14024
   D16       -0.00026  -0.00102   0.00000  -0.00111  -0.00111  -0.00137
   D17       -1.52563  -0.00004   0.00000   0.01206   0.01206  -1.51357
   D18        1.61629   0.00116   0.00000   0.01321   0.01321   1.62950
   D19        0.00023   0.00007   0.00000   0.00055   0.00055   0.00078
   D20       -3.14158   0.00008   0.00000   0.00037   0.00037  -3.14121
   D21       -3.14083  -0.00021   0.00000   0.00004   0.00004  -3.14079
   D22        0.00054  -0.00019   0.00000  -0.00014  -0.00014   0.00040
   D23       -0.00066  -0.00008   0.00000  -0.00019  -0.00019  -0.00085
   D24        3.14138  -0.00006   0.00000  -0.00016  -0.00016   3.14122
   D25        3.14116  -0.00009   0.00000  -0.00001  -0.00001   3.14115
   D26        0.00001  -0.00007   0.00000   0.00002   0.00002   0.00003
   D27       -0.83063   0.00034   0.00000   0.00654   0.00654  -0.82409
   D28       -2.34096   0.00119   0.00000  -0.00855  -0.00855  -2.34951
   D29        1.57080   0.00421   0.00000   0.00493   0.00493   1.57573
         Item               Value     Threshold  Converged?
 Maximum Force            0.056491     0.000450     NO 
 RMS     Force            0.009752     0.000300     NO 
 Maximum Displacement     0.033197     0.001800     NO 
 RMS     Displacement     0.011162     0.001200     NO 
 Predicted change in Energy=-1.040412D-03
 GradGradGradGradGradGradGradGradGradGradGradGradGradGradGradGradGradGrad

                          Input orientation:                          
 ---------------------------------------------------------------------
 Center     Atomic      Atomic             Coordinates (Angstroms)
 Number     Number       Type             X           Y           Z
 ---------------------------------------------------------------------
      1          6           0       -0.472867    1.477486   -0.013329
      2          6           0        0.917096    1.447314   -0.124552
      3          6           0        1.646121    2.636836   -0.090376
      4          6           0        0.983063    3.857077    0.054064
      5          6           0       -0.406643    3.886704    0.164213
      6          6           0       -1.134850    2.696941    0.131052
      7          1           0       -1.046587    0.540627   -0.039786
      8          1           0        1.439388    0.487113   -0.237992
      9          1           0        1.558245    4.793099    0.080742
     10          1           0       -0.928656    4.847172    0.277551
     11          1           0       -2.230010    2.720761    0.218246
     12          8           0        3.064258    2.607189   -0.204405
     13          1           0        3.578633    2.453536    0.831797
     14          8           0        3.859431    2.594566    2.064722
     15          8           0        5.177251    2.632595    2.162354
     16          1           0        5.473661    3.543500    2.091315
 ---------------------------------------------------------------------
                    Distance matrix (angstroms):
                    1          2          3          4          5
     1  C    0.000000
     2  C    1.394732   0.000000
     3  C    2.416637   1.395567   0.000000
     4  C    2.790470   2.417274   1.396244   0.000000
     5  C    2.416658   2.790392   2.416779   1.394379   0.000000
     6  C    1.395040   2.416067   2.790419   2.416071   1.395321
     7  H    1.098890   2.164559   3.412818   3.889361   3.412825
     8  H    2.165186   1.098928   2.164679   3.413236   3.889320
     9  H    3.889415   3.412843   2.164826   1.098946   2.165480
    10  H    3.412790   3.889411   3.413273   2.164464   1.099019
    11  H    2.164928   3.412250   3.889303   3.412039   2.164950
    12  O    3.718063   2.441719   1.423023   2.441392   3.717551
    13  H    4.252242   3.001811   2.149094   3.051520   4.287431
    14  O    4.933048   3.842713   3.089494   3.729634   4.845713
    15  O    6.163741   4.978328   4.188519   4.851335   6.061784
    16  H    6.637705   5.483279   4.497986   4.941071   6.197538
                    6          7          8          9         10
     6  C    0.000000
     7  H    2.164871   0.000000
     8  H    3.412657   2.494438   0.000000
     9  H    3.413088   4.988306   4.319401   0.000000
    10  H    2.165057   4.319831   4.988339   2.495262   0.000000
    11  H    1.098884   2.494004   4.319933   4.320228   2.493725
    12  O    4.213442   4.604001   2.671339   2.669753   4.603603
    13  H    4.771499   5.080506   3.096391   3.181133   5.133453
    14  O    5.356528   5.719845   3.949741   3.750357   5.585158
    15  O    6.631210   6.925454   4.933190   4.700860   6.763057
    16  H    6.944905   7.488155   5.571582   4.575410   6.780779
                   11         12         13         14         15
    11  H    0.000000
    12  O    5.312326   0.000000
    13  H    5.847067   1.167007   0.000000
    14  O    6.364486   2.404453   1.272337   0.000000
    15  O    7.658645   3.172843   2.087588   1.321979   0.000000
    16  H    7.970685   3.457199   2.523001   1.872677   0.960548
                   16
    16  H    0.000000
 Stoichiometry    C6H7O3(2)
 Framework group  C1[X(C6H7O3)]
 Deg. of freedom    42
 Full point group                 C1      NOp   1
 Largest Abelian subgroup         C1      NOp   1
 Largest concise Abelian subgroup C1      NOp   1
                         Standard orientation:                         
 ---------------------------------------------------------------------
 Center     Atomic      Atomic             Coordinates (Angstroms)
 Number     Number       Type             X           Y           Z
 ---------------------------------------------------------------------
      1          6           0        2.240602   -1.132567   -0.336534
      2          6           0        0.963934   -1.241981    0.214305
      3          6           0        0.256442   -0.092935    0.570335
      4          6           0        0.827932    1.166054    0.375808
      5          6           0        2.104713    1.274788   -0.174010
      6          6           0        2.811101    0.125584   -0.530758
      7          1           0        2.797237   -2.037515   -0.617224
      8          1           0        0.513652   -2.232672    0.367346
      9          1           0        0.269849    2.070128    0.656658
     10          1           0        2.554762    2.265719   -0.326831
     11          1           0        3.817140    0.211787   -0.964350
     12          8           0       -1.045931   -0.203504    1.133001
     13          1           0       -1.870309   -0.257594    0.308756
     14          8           0       -2.540276    0.015046   -0.737978
     15          8           0       -3.817610    0.001475   -0.397591
     16          1           0       -4.080140    0.882351   -0.118687
 ---------------------------------------------------------------------
 Rotational constants (GHZ):      3.7345357      0.7464738      0.6997499
 Standard basis: 6-31+G(d,p) (6D, 7F)
 There are   206 symmetry adapted basis functions of A   symmetry.
 Integral buffers will be    262144 words long.
 Raffenetti 2 integral format.
 Two-electron integral symmetry is turned on.
   206 basis functions,   337 primitive gaussians,   206 cartesian basis functions
    34 alpha electrons       33 beta electrons
       nuclear repulsion energy       408.7675438989 Hartrees.
 NAtoms=   16 NActive=   16 NUniq=   16 SFac= 7.50D-01 NAtFMM=   80 NAOKFM=F Big=F
 One-electron integrals computed using PRISM.
 NBasis=   206 RedAO= T  NBF=   206
 NBsUse=   206 1.00D-06 NBFU=   206
 Initial guess read from the read-write file.
 B after Tr=     0.000000    0.000000    0.000000
         Rot=    1.000000    0.000000    0.000000    0.000000 Ang=   0.00 deg.
 Initial guess orbital symmetries:
 Alpha Orbitals:
       Occupied  (A) (A) (A) (A) (A) (A) (A) (A) (A) (A) (A) (A)
                 (A) (A) (A) (A) (A) (A) (A) (A) (A) (A) (A) (A)
                 (A) (A) (A) (A) (A) (A) (A) (A) (A) (A)
       Virtual   (A) (A) (A) (A) (A) (A) (A) (A) (A) (A) (A) (A)
                 (A) (A) (A) (A) (A) (A) (A) (A) (A) (A) (A) (A)
                 (A) (A) (A) (A) (A) (A) (A) (A) (A) (A) (A) (A)
                 (A) (A) (A) (A) (A) (A) (A) (A) (A) (A) (A) (A)
                 (A) (A) (A) (A) (A) (A) (A) (A) (A) (A) (A) (A)
                 (A) (A) (A) (A) (A) (A) (A) (A) (A) (A) (A) (A)
                 (A) (A) (A) (A) (A) (A) (A) (A) (A) (A) (A) (A)
                 (A) (A) (A) (A) (A) (A) (A) (A) (A) (A) (A) (A)
                 (A) (A) (A) (A) (A) (A) (A) (A) (A) (A) (A) (A)
                 (A) (A) (A) (A) (A) (A) (A) (A) (A) (A) (A) (A)
                 (A) (A) (A) (A) (A) (A) (A) (A) (A) (A) (A) (A)
                 (A) (A) (A) (A) (A) (A) (A) (A) (A) (A) (A) (A)
                 (A) (A) (A) (A) (A) (A) (A) (A) (A) (A) (A) (A)
                 (A) (A) (A) (A) (A) (A) (A) (A) (A) (A) (A) (A)
                 (A) (A) (A) (A)
 Beta  Orbitals:
       Occupied  (A) (A) (A) (A) (A) (A) (A) (A) (A) (A) (A) (A)
                 (A) (A) (A) (A) (A) (A) (A) (A) (A) (A) (A) (A)
                 (A) (A) (A) (A) (A) (A) (A) (A) (A)
       Virtual   (A) (A) (A) (A) (A) (A) (A) (A) (A) (A) (A) (A)
                 (A) (A) (A) (A) (A) (A) (A) (A) (A) (A) (A) (A)
                 (A) (A) (A) (A) (A) (A) (A) (A) (A) (A) (A) (A)
                 (A) (A) (A) (A) (A) (A) (A) (A) (A) (A) (A) (A)
                 (A) (A) (A) (A) (A) (A) (A) (A) (A) (A) (A) (A)
                 (A) (A) (A) (A) (A) (A) (A) (A) (A) (A) (A) (A)
                 (A) (A) (A) (A) (A) (A) (A) (A) (A) (A) (A) (A)
                 (A) (A) (A) (A) (A) (A) (A) (A) (A) (A) (A) (A)
                 (A) (A) (A) (A) (A) (A) (A) (A) (A) (A) (A) (A)
                 (A) (A) (A) (A) (A) (A) (A) (A) (A) (A) (A) (A)
                 (A) (A) (A) (A) (A) (A) (A) (A) (A) (A) (A) (A)
                 (A) (A) (A) (A) (A) (A) (A) (A) (A) (A) (A) (A)
                 (A) (A) (A) (A) (A) (A) (A) (A) (A) (A) (A) (A)
                 (A) (A) (A) (A) (A) (A) (A) (A) (A) (A) (A) (A)
                 (A) (A) (A) (A) (A)
 Initial guess <Sx>= 0.0000 <Sy>= 0.0000 <Sz>= 0.5000 <S**2>= 0.7624 S= 0.5062
 Harris functional with IExCor= 1009 diagonalized for initial guess.
 ExpMin= 4.38D-02 ExpMax= 5.48D+03 ExpMxC= 8.25D+02 IAcc=2 IRadAn=         0 AccDes= 0.00D+00
 HarFok:  IExCor= 1009 AccDes= 0.00D+00 IRadAn=         0 IDoV= 1
 ScaDFX=  1.000000  1.000000  1.000000  1.000000
 FoFCou: FMM=F IPFlag=           0 FMFlag=      100000 FMFlg1=           0
         NFxFlg=           0 DoJE=T BraDBF=F KetDBF=T FulRan=T
         Omega=  0.000000  0.000000  1.000000  0.000000  0.000000 ICntrl=     500 IOpCl=  0
         NMat0=    1 NMatS0=    1 NMatT0=    0 NMatD0=    1 NMtDS0=    0 NMtDT0=    0
         I1Cent=           4 NGrid=           0.
 Petite list used in FoFCou.
 Requested convergence on RMS density matrix=1.00D-08 within 128 cycles.
 Requested convergence on MAX density matrix=1.00D-06.
 Requested convergence on             energy=1.00D-06.
 No special actions if energy rises.
 SCF Done:  E(UM062X) =  -458.168460916     A.U. after   19 cycles
             Convg  =    0.6065D-08             -V/T =  2.0090
 <Sx>= 0.0000 <Sy>= 0.0000 <Sz>= 0.5000 <S**2>= 0.7626 S= 0.5063
 <L.S>= 0.000000000000E+00
 Annihilation of the first spin contaminant:
 S**2 before annihilation     0.7626,   after     0.7501
 Calling FoFJK, ICntrl=      2127 FMM=F ISym2X=0 I1Cent= 0 IOpClX= 1 NMat=1 NMatS=1 NMatT=0.
 ***** Axes restored to original set *****
 -------------------------------------------------------------------
 Center     Atomic                   Forces (Hartrees/Bohr)
 Number     Number              X              Y              Z
 -------------------------------------------------------------------
      1        6          -0.001027834   -0.005974704   -0.001253409
      2        6           0.000220649   -0.014836184   -0.000914417
      3        6           0.050471785   -0.001794486    0.003531289
      4        6           0.001628805    0.014353604    0.000613653
      5        6          -0.001225587    0.005997700   -0.000159113
      6        6          -0.010304702    0.000439235    0.000773668
      7        1           0.005282787    0.007558694    0.000128622
      8        1          -0.002121628    0.009362939    0.001106953
      9        1          -0.002695053   -0.009290112   -0.000270065
     10        1           0.004897445   -0.007824992   -0.000996342
     11        1           0.008923196   -0.000152277   -0.000555228
     12        8          -0.029390049   -0.004024130    0.028602219
     13        1          -0.029450910    0.005746605   -0.034667530
     14        8          -0.007967408    0.006272820    0.002345776
     15        8           0.016637246   -0.022014074    0.001240896
     16        1          -0.003878744    0.016179362    0.000473029
 -------------------------------------------------------------------
 Cartesian Forces:  Max     0.050471785 RMS     0.013356336

 GradGradGradGradGradGradGradGradGradGradGradGradGradGradGradGradGradGrad
 Berny optimization.
 Internal  Forces:  Max     0.053753420 RMS     0.009282722
 Search for a saddle point.
 Step number   2 out of a maximum of   77
 All quantities printed in internal units (Hartrees-Bohrs-Radians)
 Swaping is turned off.
 Update second derivatives using D2CorX and points    1    2
     Eigenvalues ---   -0.09698  -0.00620  -0.00094   0.00394   0.01745
     Eigenvalues ---    0.01799   0.01881   0.02024   0.02298   0.02378
     Eigenvalues ---    0.02504   0.02656   0.02801   0.02858   0.02895
     Eigenvalues ---    0.09635   0.10554   0.10884   0.11146   0.11296
     Eigenvalues ---    0.12133   0.12312   0.17057   0.17658   0.19064
     Eigenvalues ---    0.19975   0.20697   0.21627   0.27500   0.28792
     Eigenvalues ---    0.33890   0.33969   0.34152   0.34216   0.34400
     Eigenvalues ---    0.42616   0.43206   0.47424   0.47941   0.50392
     Eigenvalues ---    0.52621   0.554841000.000001000.000001000.00000
     Eigenvalues --- 1000.000001000.000001000.000001000.000001000.00000
     Eigenvalues --- 1000.000001000.000001000.000001000.000001000.00000
     Eigenvalues --- 1000.000001000.000001000.000001000.000001000.00000
     Eigenvalues --- 1000.000001000.000001000.000001000.000001000.00000
     Eigenvalues --- 1000.000001000.00000
 Eigenvectors required to have negative eigenvalues:
                          R14       R13       R7        R15       A19
   1                    0.74244  -0.61992   0.15368  -0.15310  -0.07769
                          A21       R4        R6        A22       R16
   1                    0.06942  -0.03836  -0.03828   0.02805   0.01881
 RFO step:  Lambda0=3.309813087D-03 Lambda=-2.16146012D-02.
 Linear search not attempted -- option 19 set.
 Maximum step size (   0.030) exceeded in Quadratic search.
    -- Step size scaled by   0.058
 Iteration  1 RMS(Cart)=  0.01216078 RMS(Int)=  0.00009165
 Iteration  2 RMS(Cart)=  0.00012041 RMS(Int)=  0.00000022
 Iteration  3 RMS(Cart)=  0.00000002 RMS(Int)=  0.00000022
 Variable       Old X    -DE/DX   Delta X   Delta X   Delta X     New X
                                 (Linear)    (Quad)   (Total)
    R1        2.63566  -0.00346   0.00000  -0.00096  -0.00096   2.63470
    R2        2.63624   0.00171   0.00000   0.00043   0.00043   2.63667
    R3        2.07660  -0.00920   0.00000  -0.00146  -0.00146   2.07514
    R4        2.63724   0.00124   0.00000   0.00174   0.00174   2.63898
    R5        2.07667  -0.00930   0.00000  -0.00144  -0.00144   2.07523
    R6        2.63852   0.00072   0.00000   0.00169   0.00169   2.64021
    R7        2.68912  -0.05375   0.00000  -0.01390  -0.01390   2.67522
    R8        2.63499  -0.00323   0.00000  -0.00099  -0.00099   2.63400
    R9        2.07671  -0.00933   0.00000  -0.00147  -0.00147   2.07524
   R10        2.63677   0.00135   0.00000   0.00039   0.00039   2.63717
   R11        2.07685  -0.00927   0.00000  -0.00147  -0.00147   2.07538
   R12        2.07659  -0.00894   0.00000  -0.00141  -0.00141   2.07518
   R13        2.20532  -0.03886   0.00000  -0.00111  -0.00111   2.20422
   R14        2.40437   0.00505   0.00000  -0.01053  -0.01053   2.39383
   R15        2.49818   0.01268   0.00000   0.00401   0.00401   2.50218
   R16        1.81517   0.01411   0.00000   0.00115   0.00115   1.81632
    A1        2.09447   0.00058   0.00000   0.00011   0.00011   2.09458
    A2        2.09433  -0.00087   0.00000   0.00012   0.00012   2.09444
    A3        2.09438   0.00029   0.00000  -0.00023  -0.00023   2.09416
    A4        2.09464  -0.00272   0.00000   0.00008   0.00008   2.09471
    A5        2.09530   0.00405   0.00000   0.00123   0.00123   2.09653
    A6        2.09325  -0.00133   0.00000  -0.00131  -0.00131   2.09194
    A7        2.09367   0.00388   0.00000  -0.00065  -0.00065   2.09302
    A8        2.09540  -0.00166   0.00000   0.00064   0.00064   2.09604
    A9        2.09411  -0.00223   0.00000   0.00002   0.00002   2.09413
   A10        2.09444  -0.00259   0.00000   0.00016   0.00016   2.09460
   A11        2.09248  -0.00137   0.00000  -0.00185  -0.00185   2.09063
   A12        2.09627   0.00396   0.00000   0.00168   0.00168   2.09796
   A13        2.09457   0.00055   0.00000   0.00006   0.00006   2.09463
   A14        2.09452  -0.00087   0.00000  -0.00020  -0.00020   2.09432
   A15        2.09410   0.00033   0.00000   0.00014   0.00014   2.09424
   A16        2.09459   0.00030   0.00000   0.00024   0.00024   2.09483
   A17        2.09449  -0.00009   0.00000   0.00004   0.00004   2.09453
   A18        2.09411  -0.00022   0.00000  -0.00028  -0.00028   2.09383
   A19        1.95071  -0.01133   0.00000   0.00099   0.00099   1.95170
   A20        2.80260   0.00813   0.00000   0.01307   0.01307   2.81567
   A21        1.86999   0.00177   0.00000  -0.00037  -0.00037   1.86962
   A22        1.90650  -0.01541   0.00000  -0.00437  -0.00437   1.90213
    D1        0.00089  -0.00011   0.00000   0.00036   0.00036   0.00125
    D2        3.14125   0.00017   0.00000   0.00009   0.00009   3.14134
    D3       -3.14108  -0.00009   0.00000   0.00035   0.00035  -3.14073
    D4       -0.00071   0.00019   0.00000   0.00008   0.00008  -0.00064
    D5        0.00001   0.00010   0.00000  -0.00026  -0.00026  -0.00025
    D6        3.14113   0.00008   0.00000  -0.00036  -0.00036   3.14077
    D7       -3.14121   0.00007   0.00000  -0.00025  -0.00025  -3.14146
    D8       -0.00009   0.00005   0.00000  -0.00035  -0.00035  -0.00044
    D9       -0.00096   0.00010   0.00000  -0.00003  -0.00003  -0.00099
   D10       -3.14108   0.00127   0.00000   0.00125   0.00125  -3.13982
   D11       -3.14132  -0.00018   0.00000   0.00024   0.00024  -3.14109
   D12        0.00175   0.00099   0.00000   0.00152   0.00152   0.00327
   D13        0.00013  -0.00008   0.00000  -0.00039  -0.00039  -0.00027
   D14       -3.14149   0.00020   0.00000   0.00046   0.00046  -3.14103
   D15        3.14024  -0.00125   0.00000  -0.00168  -0.00168   3.13857
   D16       -0.00137  -0.00097   0.00000  -0.00082  -0.00082  -0.00219
   D17       -1.51357   0.00009   0.00000   0.01039   0.01038  -1.50318
   D18        1.62950   0.00125   0.00000   0.01167   0.01167   1.64117
   D19        0.00078   0.00007   0.00000   0.00049   0.00049   0.00127
   D20       -3.14121   0.00009   0.00000   0.00068   0.00068  -3.14053
   D21       -3.14079  -0.00021   0.00000  -0.00037  -0.00037  -3.14116
   D22        0.00040  -0.00019   0.00000  -0.00018  -0.00018   0.00023
   D23       -0.00085  -0.00008   0.00000  -0.00016  -0.00016  -0.00101
   D24        3.14122  -0.00006   0.00000  -0.00006  -0.00006   3.14116
   D25        3.14115  -0.00010   0.00000  -0.00035  -0.00035   3.14079
   D26        0.00003  -0.00008   0.00000  -0.00026  -0.00026  -0.00023
   D27       -0.82409   0.00024   0.00000   0.00199   0.00199  -0.82210
   D28       -2.34951   0.00104   0.00000  -0.00825  -0.00825  -2.35776
   D29        1.57573   0.00414   0.00000   0.00560   0.00560   1.58133
         Item               Value     Threshold  Converged?
 Maximum Force            0.053753     0.000450     NO 
 RMS     Force            0.009283     0.000300     NO 
 Maximum Displacement     0.037024     0.001800     NO 
 RMS     Displacement     0.012169     0.001200     NO 
 Predicted change in Energy=-1.067569D-03
 GradGradGradGradGradGradGradGradGradGradGradGradGradGradGradGradGradGrad

                          Input orientation:                          
 ---------------------------------------------------------------------
[...]
 ! D3    D(7,1,2,3)           -179.6445         -DE/DX =    0.0                 !
 ! D4    D(7,1,2,8)              0.1129         -DE/DX =    0.0                 !
 ! D5    D(2,1,6,5)             -0.5882         -DE/DX =    0.0                 !
 ! D6    D(2,1,6,11)           179.2154         -DE/DX =    0.0                 !
 ! D7    D(7,1,6,5)           -179.8449         -DE/DX =    0.0                 !
 ! D8    D(7,1,6,11)            -0.0413         -DE/DX =    0.0                 !
 ! D9    D(1,2,3,4)             -0.3137         -DE/DX =    0.0                 !
 ! D10   D(1,2,3,12)          -179.597          -DE/DX =    0.0                 !
 ! D11   D(8,2,3,4)            179.9214         -DE/DX =    0.0                 !
 ! D12   D(8,2,3,12)             0.6381         -DE/DX =    0.0                 !
 ! D13   D(2,3,4,5)             -0.9969         -DE/DX =    0.0                 !
 ! D14   D(2,3,4,9)            179.4945         -DE/DX =    0.0                 !
 ! D15   D(12,3,4,5)           178.2971         -DE/DX =    0.0                 !
 ! D16   D(12,3,4,9)            -1.2115         -DE/DX =    0.0                 !
 ! D17   D(2,3,12,13)          -38.8104         -DE/DX =    0.0                 !
 ! D18   D(4,3,12,13)          141.9065         -DE/DX =    0.0                 !
 ! D19   D(3,4,5,6)              1.5195         -DE/DX =    0.0                 !
 ! D20   D(3,4,5,10)          -179.1671         -DE/DX =    0.0                 !
 ! D21   D(9,4,5,6)           -178.9933         -DE/DX =    0.0                 !
 ! D22   D(9,4,5,10)             0.3201         -DE/DX =    0.0                 !
 ! D23   D(4,5,6,1)             -0.7408         -DE/DX =    0.0                 !
 ! D24   D(4,5,6,11)           179.4555         -DE/DX =    0.0                 !
 ! D25   D(10,5,6,1)           179.9445         -DE/DX =    0.0                 !
 ! D26   D(10,5,6,11)            0.1408         -DE/DX =    0.0                 !
 ! D27   D(3,12,13,14)         -61.3818         -DE/DX =    0.0                 !
 ! D28   D(12,13,14,15)       -149.9296         -DE/DX =    0.0                 !
 ! D29   D(13,14,15,16)        125.9244         -DE/DX =    0.0                 !
 --------------------------------------------------------------------------------
 GradGradGradGradGradGradGradGradGradGradGradGradGradGradGradGradGradGrad


 Test job not archived.
 1|1|UNPC-DESKTOP-319GPER|Freq|UM062X|6-31+G(d,p)|C6H7O3(2)|SAGAD|30-No
 v-2020|0||#N Geom=AllCheck Guess=TCheck SCRF=Check Test GenChk UM062X/
 6-31+G(d,p) Freq||Estado de transicion fenol m062x||0,2|C,-0.183178148
 3,1.5273391131,0.2598098951|C,1.1783296557,1.784448602,0.2493354113|C,
 1.6427954188,3.113526662,0.0613535064|C,0.7051183792,4.1613052954,-0.1
 202198974|C,-0.6479829593,3.8792289718,-0.1335374339|C,-1.0992581831,2
 .5655714854,0.0635331914|H,-0.5392180404,0.5130847001,0.4091412427|H,1
 .9089562014,0.9937886226,0.3856195815|H,1.0868191256,5.1680377233,-0.2
 532927731|H,-1.3663165491,4.6783780139,-0.2859606641|H,-2.1636792449,2
 .3541382798,0.0604048889|O,2.9259108651,3.3837163234,0.0393436884|H,3.
 451707806,2.7358804675,0.8320883297|O,3.8275881889,2.2043271903,1.8495
 775557|O,5.1383360184,1.8756089525,1.6037168186|H,5.6116054959,2.28413
 57269,2.344703349||Version=IA32W-G09RevA.02|State=2-A|HF=-458.1800762|
 S2=0.766356|S2-1=0.|S2A=0.750214|RMSD=1.006e-009|RMSF=7.999e-006|ZeroP
 oint=0.1171332|Thermal=0.1257641|Dipole=-0.7088172,0.0890646,0.239548|
 DipoleDeriv=-1.0757641,0.326584,-0.4672522,0.6553963,-0.0411693,0.2216
 646,-0.0574875,-0.0253692,-0.1415689,0.8873286,-0.2450163,0.3989217,1.
 4732721,-0.4484401,0.7876298,-0.2082126,0.0393296,-0.2363231,-3.094140
 3,0.9788501,-1.9158816,-0.9231329,0.3651847,-0.4727434,0.2543773,-0.01
 5035,0.2350598,1.3577143,-0.2309233,0.6613474,-0.766364,0.2447841,-0.4
 738872,0.2182336,-0.0982543,0.0270103,-0.6357399,-0.0176513,-0.2671969
 ,-1.1417726,0.1837649,-0.4916672,0.1206174,-0.0491724,-0.0847654,0.179
 0782,0.0130982,0.0175111,0.0554183,0.0617964,-0.0106531,-0.0069411,-0.
 0274102,-0.1071996,0.0085445,-0.0282969,-0.0218961,-0.0965747,-0.03417
 09,0.0026779,0.0087009,0.02817,0.1373061,-0.0367033,0.059771,-0.035147
 5,-0.0890453,0.0754282,-0.0512625,-0.1291552,0.0507577,0.0745845,0.062
 9721,-0.0368581,0.0052287,-0.0057037,-0.0018715,0.0283921,-0.0146746,0
 .0230532,0.1350592,-0.0276818,0.0777545,-0.0370798,0.1045005,-0.010546
 7,0.0397023,-0.0275003,0.0354261,0.1254311,-0.0648392,-0.0269836,-0.00
 44824,-0.0391857,0.0704132,0.0049591,-0.0116229,0.0159645,0.1355158,4.
 3313646,-1.2966463,2.5971251,-1.1438064,-0.0776166,-0.541387,2.3615618
 ,-0.4966747,0.7822115,-3.0861239,0.7414704,-1.5795867,2.8608183,-0.425
 3832,1.4081743,-5.2146495,1.1377499,-2.236955,6.0851707,-1.499759,2.97
 96891,-2.1541949,0.2311458,-1.0738373,1.6787312,-0.4097191,0.5719502,-
 5.4782742,1.2352186,-2.4797953,1.1140722,-0.5049149,0.6701617,0.353017
 1,0.0289173,-0.0061379,0.5870937,-0.050612,0.1484955,0.0963025,0.31159
 6,-0.0479241,0.6750045,-0.2377333,0.5888212|Polar=349.714781,-54.53988
 16,97.8118138,122.1485018,-33.5295186,109.4946361|PG=C01 [X(C6H7O3)]|N
 Imag=1||0.67979003,0.04034538,0.72739552,0.00862136,-0.09464043,0.1480
 0458,-0.35619611,-0.08585061,0.00698977,0.75193525,-0.00925290,-0.1420
 3557,0.01264944,-0.04911518,0.65283745,-0.00381060,0.01015675,-0.05973
 250,0.01886381,-0.07992162,0.14049223,-0.03172719,-0.02365031,0.002681
 29,-0.10028534,-0.01127024,-0.00035338,0.64116819,-0.07338397,0.018831
 99,-0.00557445,-0.00067058,-0.27152074,0.03126616,-0.01674169,0.635889
 20,0.01021434,-0.00293747,0.00253741,-0.00030497,0.02889836,-0.0742021
 7,0.03027711,-0.07916994,0.18743963,-0.05430518,0.01896561,-0.00406554
 ,0.04715760,0.01991111,-0.00068848,-0.12628232,0.06812293,-0.01777007,
 0.71286066,0.00991924,-0.00584768,0.00132093,0.00872358,-0.02981701,0.
 00470405,0.08372441,-0.24778289,0.03156157,0.06545869,0.70678016,-0.00
 327968,0.00172431,-0.00202906,0.00049123,0.00496510,0.00676819,-0.0142
 9632,0.03024376,-0.07460944,0.01170758,-0.08248340,0.13981573,0.069119
 29,-0.00201535,0.00162547,-0.03803518,-0.02123104,0.00137170,-0.062357
 64,0.03973674,-0.00555028,-0.36799709,-0.08160660,0.00115110,0.7261439
 0,0.04991000,-0.04915812,0.00947882,-0.03204433,-0.02051372,0.00163462
 ,-0.01557917,0.04394836,-0.00318318,-0.00422909,-0.14178089,0.01286276
 ,-0.04582890,0.68183920,-0.00441312,0.00821651,0.00423276,0.00301884,0
 .00215435,-0.00229757,-0.00041635,-0.00631251,0.00195205,-0.01044364,0
 .00982524,-0.05964912,0.02813162,-0.09030298,0.14902197,-0.21153908,0.
 13745554,-0.02739215,-0.04974483,0.01174494,-0.00288385,0.00710229,0.0
 1238477,-0.00182717,-0.00680302,-0.03479795,0.00449508,-0.14907283,-0.
 09518877,0.01229034,0.74441136,0.05023789,-0.24581481,0.03234859,0.069
 13655,0.04808396,-0.00396580,0.01598790,-0.05100602,0.00486167,-0.0909
 7864,0.00727151,-0.00430717,-0.00991405,-0.29734217,0.03991459,0.01735
 709,0.63912529,-0.01399501,0.03449466,-0.06780183,-0.01188961,-0.00632
 636,0.00560064,-0.00239913,0.00755774,-0.00678441,0.01373461,-0.001981
 87,0.00602571,-0.00089595,0.03538252,-0.06765237,0.01811227,-0.0811902
 6,0.14854018,-0.09067247,-0.08821184,0.01251301,-0.00484106,-0.0300867
 0,0.00422892,-0.00564153,0.00115015,-0.00035164,-0.00082136,0.00007617
 ,0.00001868,-0.00255405,0.00323043,-0.00081676,0.01137027,0.02039359,-
 0.00298889,0.09135441,-0.08809119,-0.30929162,0.04025273,0.00028368,-0
 .00053969,0.00081332,-0.00081768,0.00191689,0.00112796,0.00091435,0.00
 046265,-0.00016199,0.00377746,-0.00182152,0.00144040,-0.01039067,-0.01
 568191,0.00275436,0.09451085,0.32494693,0.01274706,0.04010045,-0.04511
 082,-0.00042092,-0.00000136,0.00450087,-0.00008383,0.00110527,0.008553
 29,-0.00014640,-0.00024146,-0.00093277,-0.00101804,0.00134148,0.006384
 35,0.00171006,0.00399387,0.00298496,-0.01306433,-0.04460488,0.03322899
 ,-0.01286924,0.02306841,-0.00435514,-0.18955826,0.14522851,-0.02368305
 ,0.00857549,-0.00978895,0.00134032,0.00015424,-0.00294357,0.00042490,-
 0.00057706,-0.00111145,0.00020845,-0.00478287,-0.00240480,-0.00003272,
 0.00095078,-0.00012287,0.00024950,0.19721508,-0.00709980,0.01040123,-0
 .00049771,0.14342004,-0.21610413,0.02978057,0.01996990,-0.01618641,0.0
 0353495,-0.00235662,-0.00490196,0.00137537,-0.00129159,-0.00068420,-0.
 00009185,-0.00220183,0.00078486,0.00107365,0.00034841,0.00043035,-0.00
 080911,-0.15353257,0.22440478,-0.00063925,-0.00034491,0.00455511,-0.02
 285390,0.03225042,-0.04171355,-0.00530908,0.00254480,0.00404539,0.0004
 9865,0.00084197,0.00458137,0.00034810,-0.00014340,-0.00084008,0.000419
 91,0.00042716,0.00762436,-0.00000204,-0.00081278,-0.00441068,0.0265771
 0,-0.03351040,0.03042029,-0.00086155,0.00040674,-0.00005413,-0.0029429
 5,0.00320405,-0.00080235,0.01023984,0.02011609,-0.00263519,-0.09272997
 ,-0.09402157,0.01162660,-0.00342800,-0.02857133,0.00396425,-0.00567002
 ,-0.00007465,-0.00053929,0.00011656,-0.00006506,0.00005502,0.00052274,
 0.00107663,-0.00013897,0.09199247,0.00065098,0.00042381,-0.00020558,0.
 00382736,-0.00215467,0.00116748,-0.01120582,-0.01708988,0.00279147,-0.
 09263196,-0.30931011,0.03625663,0.00127655,0.00105451,0.00081260,-0.00
 045195,0.00159115,0.00094255,-0.00006880,-0.00004963,-0.00013061,-0.00
 055795,-0.00086807,0.00019138,0.10074168,0.32389328,-0.00059078,-0.000
 02747,-0.00098734,-0.00064385,0.00133221,0.00439975,0.00333280,0.00377
 619,0.00427388,0.01014656,0.03724911,-0.04147722,0.00007555,-0.0006198
 3,0.00462493,-0.00050661,0.00057350,0.00797287,0.00003867,-0.00013473,
 -0.00083386,-0.00003220,0.00029201,0.00022929,-0.01233874,-0.04006369,
 0.02997200,0.00011625,-0.00252998,0.00025350,-0.00042694,-0.00049022,0
 .00008615,-0.00382359,-0.00364869,-0.00014970,-0.01477925,0.02457483,-
 0.00440516,-0.18598141,0.14036695,-0.02728534,0.01089145,-0.00928105,0
 .00180761,0.00040749,-0.00051728,0.00007739,0.00003347,0.00008524,-0.0
 0001941,0.00099563,-0.00023756,0.00031742,0.19344090,-0.00296507,-0.00
 441572,0.00161648,-0.00125907,-0.00011322,-0.00018857,-0.00181708,0.00
 083496,0.00118438,-0.00599725,0.00924365,-0.00092190,0.14021610,-0.215
 46946,0.03267442,0.02138118,-0.01530971,0.00374936,0.00106602,-0.00090
 318,0.00019908,0.00010704,0.00003602,-0.00011704,0.00035113,0.00041759
 ,-0.00076755,-0.15023685,0.22461121,0.00030324,0.00151958,0.00607512,0
 .00020480,-0.00013808,-0.00093622,-0.00038832,0.00129712,0.00885222,0.
 00042483,0.00032639,0.00462643,-0.02736247,0.03233662,-0.04603314,-0.0
 0304043,0.00283396,0.00293104,-0.00016898,0.00015508,0.00007955,-0.000
 00264,-0.00014172,-0.00080502,0.00015255,-0.00080352,-0.00466296,0.029
 55818,-0.03650856,0.03399230,-0.01424252,-0.00692230,0.00043805,-0.000
 74838,0.00378076,-0.00084802,0.00048488,0.00035415,0.00000129,0.001455
 09,-0.00184920,0.00016603,-0.00500661,0.00099736,-0.00051187,-0.337271
 65,-0.05538040,-0.00179244,0.00067957,0.00012610,0.00012142,-0.0007320
 0,-0.00040730,0.00008580,-0.00032471,0.00013435,-0.00001874,0.00055021
 ,-0.00017714,0.00015131,0.35503700,0.02329116,0.00949369,0.00012461,0.
 00336455,-0.00321616,0.00168852,0.00033016,-0.00140591,0.00008102,-0.0
 0131997,-0.00548512,0.00186181,-0.02927175,0.00016442,-0.00025701,-0.0
 5544142,-0.07097515,0.00351487,-0.00049584,0.00066553,-0.00073910,0.00
 115524,0.00032993,-0.00014103,-0.00145130,-0.00008301,-0.00010971,0.00
 046689,0.00078363,-0.00068776,0.05934574,0.06938632,-0.00451056,-0.001
 01673,0.00478585,-0.00057565,0.00177818,0.00635149,0.00007528,0.000413
 07,-0.00068725,-0.00049461,0.00180357,0.00596855,0.00478146,0.00110484
 ,0.00453724,-0.00185715,0.00329614,-0.03869830,0.00024306,-0.00071551,
 -0.00370219,-0.00012115,-0.00023621,-0.00014253,0.00026797,-0.00006783
 ,-0.00013672,0.00000730,-0.00073876,-0.00344910,0.00222382,-0.00520904
 ,0.02582797,0.03394900,-0.01744488,0.00308078,-0.06625950,-0.07809204,
 0.01052700,-0.26652753,-0.03931130,0.00251253,-0.11193722,0.03466638,-
 0.00934868,0.02564684,0.03632249,-0.00498482,-0.01038638,-0.00442938,0
 .00067761,-0.00020617,0.00075200,-0.00008376,0.00297420,0.00362233,0.0
 0298365,0.00213353,-0.00178760,0.00036547,-0.00104356,-0.00088460,0.00
 021417,0.00012388,0.00013722,0.00008000,0.37287287,-0.00309325,-0.0050
 3623,0.00255698,-0.04771583,0.00244785,0.00268657,-0.08651168,-0.11330
 758,0.01771061,0.04069893,0.01043180,-0.00042366,-0.00028071,-0.009188
 84,0.00285358,-0.00031784,-0.00039118,-0.00004559,-0.00231567,-0.00052
 194,-0.00025828,0.00107782,0.00221577,-0.00247488,-0.00168687,0.002398
 20,-0.00165743,0.00117537,0.00052497,-0.00020451,-0.00007242,0.0002669
 9,-0.00050944,0.09227452,0.16870245,0.01217633,-0.00546918,0.00586369,
 -0.00699570,-0.01810064,0.01482043,0.05049095,0.03085483,-0.06746595,-
 0.02534839,0.00886084,0.00623506,0.00395241,0.01255076,0.00469626,-0.0
 0064430,0.00182157,-0.00099023,0.00057520,0.00034788,-0.00073935,0.001
 05889,0.00073236,-0.00190429,0.00069596,-0.00132804,-0.00323676,-0.000
 18418,-0.00052713,-0.00035734,-0.00003769,-0.00003300,-0.00050097,-0.0
 3865821,-0.06840874,0.09842159,-0.01444814,0.00859106,-0.00079359,0.01
 339106,0.02727896,-0.00230921,-0.10113480,-0.00535667,-0.01174150,0.02
 285448,-0.01774512,0.00157720,-0.00941941,-0.01428701,0.00181461,0.000
 88683,0.00017063,-0.00019377,-0.00043502,-0.00063776,-0.00005508,-0.00
 148750,-0.00309596,-0.00234606,-0.00003852,0.00044113,-0.00012600,-0.0
 0057310,0.00037693,-0.00001899,0.00005895,-0.00018992,-0.00007071,0.06
 853507,-0.02719646,0.05351871,0.03513722,0.01327453,-0.00792326,0.0008
 2837,-0.01534221,-0.02346172,0.00288318,0.07546282,0.02586091,-0.00909
 137,-0.02526387,0.01509841,-0.00211713,0.00905728,0.01356688,-0.000906
 50,-0.00135379,-0.00046175,0.00008486,0.00046657,0.00055537,-0.0000113
 3,0.00003896,0.00008918,0.00128651,0.00013146,-0.00047786,0.00007077,0
 .00029508,-0.00038854,0.00008644,0.00010414,0.00003926,0.00007399,-0.0
 8397319,-0.02966748,-0.01842437,0.05668773,-0.00326587,-0.02338757,0.0
 1439795,-0.00182236,0.02391521,0.04391590,-0.00565799,-0.13090971,-0.0
 3904705,0.01088818,0.04462092,-0.02456949,0.00532593,-0.01404984,-0.02
 529336,0.00239060,0.00121497,0.00015090,-0.00005231,-0.00067596,-0.000
 98809,0.00009332,-0.00229499,-0.00337155,-0.00239169,-0.00043468,0.000
 88227,-0.00012478,-0.00027968,0.00073556,-0.00023696,0.00007604,-0.000
 20492,-0.00008425,0.16468218,-0.02392051,0.05312393,-0.11345157,0.0919
 2246,-0.11965398,0.02169831,-0.01244884,0.00124336,-0.01919444,-0.0428
 4492,0.00533619,0.10623328,0.02774933,-0.00830175,-0.03567960,0.023987
 10,-0.00567333,0.01479563,0.02431018,-0.00248719,0.00001116,-0.0010298
 1,0.00048096,0.00129356,0.00124723,-0.00019332,0.00147562,0.00366745,0
 .00294731,-0.00006618,-0.00050354,0.00033371,0.00098991,-0.00072126,0.
 00030607,0.00000914,0.00030510,0.00012056,-0.16292362,0.06064946,-0.09
 943144,0.08663314,-0.10245514,0.15761633,0.24787312,-0.00771126,0.0054
 7244,-0.00034013,0.00717860,0.01527575,-0.00451290,-0.05078043,-0.0148
 2335,0.00190339,0.01705761,-0.00968665,0.00237301,-0.00653847,-0.01015
 451,0.00064994,-0.00007574,0.00124183,-0.00027740,-0.00031492,-0.00043
 130,0.00010802,-0.00053471,-0.00077730,-0.00062566,-0.00015610,0.00039
 105,-0.00000472,-0.00023183,0.00027805,-0.00012880,-0.00004638,-0.0000
 1229,-0.00001869,0.08775646,-0.03589360,0.07290313,-0.05520461,0.02907
 882,-0.05880360,-0.02482078,0.04072635,0.00643160,-0.00391551,0.001387
 88,-0.00645730,-0.01681787,0.00057042,0.05065691,0.01704988,-0.0025703
 8,-0.01690761,0.00910672,0.00061980,0.00545201,0.00915745,-0.00109179,
 0.00004428,-0.00118000,0.00031387,0.00024613,0.00033205,-0.00004409,0.
 00046624,0.00123130,0.00016271,0.00020110,-0.00038363,-0.00004620,0.00
 004189,-0.00026458,-0.00016539,-0.00005983,0.00005302,-0.00011327,-0.1
 0894898,0.06449887,-0.09555551,0.07606643,-0.05102838,0.02234843,-0.07
 097190,-0.00663824,0.13178356,-0.01884229,0.01088137,-0.00085132,0.016
 66330,0.03340339,-0.00547158,-0.08159580,-0.02197634,0.00441793,0.0287
 6820,-0.01941093,0.00573354,-0.01215544,-0.01962680,0.00203349,0.00061
 861,0.00039006,-0.00015053,-0.00105855,-0.00103222,0.00013757,-0.00191
 527,-0.00242440,-0.00264613,0.00006840,0.00039723,-0.00035658,-0.00085
 751,0.00059875,-0.00035097,-0.00008250,-0.00023522,-0.00016146,0.12007
 349,-0.02932230,0.05319067,-0.10138782,0.07887743,-0.11609202,-0.21053
 884,0.04138152,0.09670075,0.38192034,0.00418665,-0.00234148,-0.0002190
 8,-0.00379828,-0.00809631,0.00027159,0.01781401,0.00451274,0.00122434,
 -0.00625876,0.00476386,0.00034833,0.00266644,0.00428085,-0.00098011,-0
 .00004961,-0.00009814,0.00008722,0.00027347,0.00025695,0.00004824,0.00
 022736,0.00097178,0.00128719,-0.00006417,-0.00005370,0.00007540,0.0002
 2078,-0.00013797,-0.00006050,0.00000004,0.00009644,0.00018362,-0.02517
 263,0.00579106,-0.01657553,0.02675149,-0.01872592,0.02397184,0.0297843
 6,-0.02415001,-0.03415457,0.02974534,0.14173597,0.00142218,-0.00083645
 ,0.00014788,-0.00126338,-0.00301157,0.00122808,0.00964090,0.00216869,-
 0.00207878,-0.00287989,0.00138906,-0.00152008,0.00112518,0.00189603,0.
 00021948,-0.00013509,-0.00018864,0.00008940,0.00004007,0.00004619,-0.0
 0010621,0.00002801,0.00032445,-0.00014052,0.00003551,-0.00006110,-0.00
 002734,0.00002679,-0.00003499,0.00010849,-0.00001278,-0.00000193,-0.00
 007943,-0.01151173,0.00562555,-0.00595967,-0.01124387,-0.00695378,0.02
 202123,0.01759294,-0.01980999,-0.06607263,0.14002998,0.20668787,0.3814
 3425,0.00103089,-0.00063999,0.00006528,-0.00091420,-0.00216850,0.00043
 673,0.00557179,0.00126404,-0.00013123,-0.00191528,0.00124455,-0.000388
 76,0.00087906,0.00132945,-0.00010251,-0.00002129,-0.00018092,0.0000642
 8,0.00005758,0.00006306,-0.00003233,0.00002057,0.00022006,0.00009432,-
 0.00000725,-0.00002411,0.00000333,0.00006004,-0.00003883,0.00001762,0.
 00000964,0.00000936,-0.00000816,-0.00702488,0.00263692,-0.00435923,0.0
 0142756,-0.00600782,0.00945036,-0.05261019,-0.00695897,-0.03296171,-0.
 11967833,-0.07632649,-0.14289483,0.17311432,-0.00021838,-0.00015420,0.
 00030043,-0.00013827,-0.00107207,0.00153610,0.00508490,0.00132775,-0.0
 0049778,-0.00209307,0.00056027,-0.00159582,0.00124789,0.00125923,0.000
 30932,-0.00005396,-0.00101778,0.00017967,-0.00002190,0.00000613,-0.000
 10027,0.00009352,-0.00014181,-0.00065935,0.00006328,-0.00008264,0.0000
 1592,-0.00001169,0.00000773,0.00011827,0.00001252,-0.00004856,-0.00014
 121,-0.00443579,0.00122775,0.00079527,0.00341557,0.00008358,0.00022171
 ,0.01312408,0.00346472,0.01295350,-0.10164689,-0.10880612,-0.18723938,
 0.08557819,0.10338601,0.00271047,-0.00142206,-0.00010637,-0.00207838,-
 0.00362645,-0.00019209,0.00700088,0.00182646,-0.00014367,-0.00238853,0
 .00228676,0.00025092,0.00086198,0.00179686,-0.00049558,-0.00000016,0.0
 0060992,-0.00010360,0.00016485,0.00014802,0.00005465,0.00016848,0.0003
 1386,0.00072983,-0.00005562,-0.00000037,0.00006048,0.00014725,-0.00009
 020,-0.00001902,0.00001759,0.00005966,0.00012290,-0.01158722,0.0019708
 6,-0.00645090,0.00937342,-0.00870372,0.01383270,0.00108149,0.01322263,
 0.00847259,-0.17616334,-0.18219586,-0.32926415,0.17074685,0.17380362,0
 .31325132||-0.00000994,0.00000833,-0.00000668,-0.00000053,-0.00000098,
 -0.00000255,0.00000346,0.00000836,-0.00000067,0.00001393,0.00000173,0.
 00000440,0.00000098,0.00000342,0.00000102,-0.00000129,0.00000265,-0.00
 000073,-0.00000305,0.00000402,-0.00000891,-0.00000441,0.00000075,-0.00
 000567,0.00000419,0.00000272,0.00000911,0.00000407,0.00000702,0.000005
 08,0.00000036,0.00000714,-0.00000322,-0.00000447,-0.00002415,0.0000197
 9,0.00001615,0.00001323,-0.00000561,-0.00000960,-0.00001149,-0.0000041
 7,-0.00000989,-0.00000725,-0.00000337,0.00000004,-0.00001552,0.0000021
 6|||@


 Everywhere is walking distance if you have the time.
                                    -- Steven Wright
 Job cpu time:  0 days  0 hours 41 minutes 56.0 seconds.
 File lengths (MBytes):  RWF=    152 Int=      0 D2E=      0 Chk=      5 Scr=      1
 Normal termination of Gaussian 09 at Mon Nov 30 15:19:33 2020.
