 Entering Link 1 = C:\G09W\l1.exe PID=     12468.
  
 Copyright (c) 1988,1990,1992,1993,1995,1998,2003,2009, Gaussian, Inc.
                  All Rights Reserved.
  
 This is part of the Gaussian(R) 09 program.  It is based on
 the Gaussian(R) 03 system (copyright 2003, Gaussian, Inc.),
 the Gaussian(R) 98 system (copyright 1998, Gaussian, Inc.),
 the Gaussian(R) 94 system (copyright 1995, Gaussian, Inc.),
 the Gaussian 92(TM) system (copyright 1992, Gaussian, Inc.),
 the Gaussian 90(TM) system (copyright 1990, Gaussian, Inc.),
 the Gaussian 88(TM) system (copyright 1988, Gaussian, Inc.),
 the Gaussian 86(TM) system (copyright 1986, Carnegie Mellon
 University), and the Gaussian 82(TM) system (copyright 1983,
 Carnegie Mellon University). Gaussian is a federally registered
 trademark of Gaussian, Inc.
  
 This software contains proprietary and confidential information,
 including trade secrets, belonging to Gaussian, Inc.
  
 This software is provided under written license and may be
 used, copied, transmitted, or stored only in accord with that
 written license.
  
 The following legend is applicable only to US Government
 contracts under FAR:
  
                    RESTRICTED RIGHTS LEGEND
  
 Use, reproduction and disclosure by the US Government is
 subject to restrictions as set forth in subparagraphs (a)
 and (c) of the Commercial Computer Software - Restricted
 Rights clause in FAR 52.227-19.
  
 Gaussian, Inc.
 340 Quinnipiac St., Bldg. 40, Wallingford CT 06492
  
  
 ---------------------------------------------------------------
 Warning -- This program may not be used in any manner that
 competes with the business of Gaussian, Inc. or will provide
 assistance to any competitor of Gaussian, Inc.  The licensee
 of this program is prohibited from giving any competitor of
 Gaussian, Inc. access to this program.  By using this program,
 the user acknowledges that Gaussian, Inc. is engaged in the
 business of creating and licensing software in the field of
 computational chemistry and represents and warrants to the
 licensee that it is not a competitor of Gaussian, Inc. and that
 it will not use this program in any manner prohibited above.
 ---------------------------------------------------------------
  

 Cite this work as:
 Gaussian 09, Revision A.02,
 M. J. Frisch, G. W. Trucks, H. B. Schlegel, G. E. Scuseria, 
 M. A. Robb, J. R. Cheeseman, G. Scalmani, V. Barone, B. Mennucci, 
 G. A. Petersson, H. Nakatsuji, M. Caricato, X. Li, H. P. Hratchian, 
 A. F. Izmaylov, J. Bloino, G. Zheng, J. L. Sonnenberg, M. Hada, 
 M. Ehara, K. Toyota, R. Fukuda, J. Hasegawa, M. Ishida, T. Nakajima, 
 Y. Honda, O. Kitao, H. Nakai, T. Vreven, J. A. Montgomery, Jr., 
 J. E. Peralta, F. Ogliaro, M. Bearpark, J. J. Heyd, E. Brothers, 
 K. N. Kudin, V. N. Staroverov, R. Kobayashi, J. Normand, 
 K. Raghavachari, A. Rendell, J. C. Burant, S. S. Iyengar, J. Tomasi, 
 M. Cossi, N. Rega, J. M. Millam, M. Klene, J. E. Knox, J. B. Cross, 
 V. Bakken, C. Adamo, J. Jaramillo, R. Gomperts, R. E. Stratmann, 
 O. Yazyev, A. J. Austin, R. Cammi, C. Pomelli, J. W. Ochterski, 
 R. L. Martin, K. Morokuma, V. G. Zakrzewski, G. A. Voth, 
 P. Salvador, J. J. Dannenberg, S. Dapprich, A. D. Daniels, 
 O. Farkas, J. B. Foresman, J. V. Ortiz, J. Cioslowski, 
 and D. J. Fox, Gaussian, Inc., Wallingford CT, 2009.
 
 ******************************************
 Gaussian 09:  IA32W-G09RevA.02 11-Jun-2009
                08-Oct-2020 
 ******************************************
 %chk=C:\Users\sagad\Documents\rayGit\FQ\quimicaComputacional\class4Metilo\reacti
 vos\methaneHF.chk
 %nprocshared=4
 Will use up to    4 processors via shared memory.
 %mem=1500MB
 ------------------------
 #opt freq HF/6-31+g(d,p)
 ------------------------
 1/18=20,19=15,38=1/1,3;
 2/9=110,12=2,17=6,18=5,40=1/2;
 3/5=1,6=6,7=111,11=9,16=1,25=1,30=1,71=1/1,2,3;
 4//1;
 5/5=2,38=5/2;
 6/7=2,8=2,9=2,10=2,28=1/1;
 7//1,2,3,16;
 1/18=20,19=15/3(2);
 2/9=110/2;
 99//99;
 2/9=110/2;
 3/5=1,6=6,7=111,11=9,16=1,25=1,30=1,71=1/1,2,3;
 4/5=5,16=3/1;
 5/5=2,38=5/2;
 7//1,2,3,16;
 1/18=20,19=15/3(-5);
 2/9=110/2;
 6/7=2,8=2,9=2,10=2,19=2,28=1/1;
 99/9=1/99;
 ------------------------------
 Calculation of methane with HF
 ------------------------------
 Symbolic Z-matrix:
 Charge =  0 Multiplicity = 1
 C                    -5.60103   1.03696  -0.87365 
 H                    -5.24438   0.02815  -0.87365 
 H                    -5.24436   1.54135   0. 
 H                    -5.24436   1.54135  -1.7473 
 H                    -6.67103   1.03697  -0.87365 
 

 GradGradGradGradGradGradGradGradGradGradGradGradGradGradGradGradGradGrad
 Berny optimization.
 Initialization pass.
                           ----------------------------
                           !    Initial Parameters    !
                           ! (Angstroms and Degrees)  !
 --------------------------                            --------------------------
 ! Name  Definition              Value          Derivative Info.                !
 --------------------------------------------------------------------------------
 ! R1    R(1,2)                  1.07           estimate D2E/DX2                !
 ! R2    R(1,3)                  1.07           estimate D2E/DX2                !
 ! R3    R(1,4)                  1.07           estimate D2E/DX2                !
 ! R4    R(1,5)                  1.07           estimate D2E/DX2                !
 ! A1    A(2,1,3)              109.4712         estimate D2E/DX2                !
 ! A2    A(2,1,4)              109.4712         estimate D2E/DX2                !
 ! A3    A(2,1,5)              109.4712         estimate D2E/DX2                !
 ! A4    A(3,1,4)              109.4713         estimate D2E/DX2                !
 ! A5    A(3,1,5)              109.4712         estimate D2E/DX2                !
 ! A6    A(4,1,5)              109.4712         estimate D2E/DX2                !
 ! D1    D(2,1,4,3)           -120.0            estimate D2E/DX2                !
 ! D2    D(2,1,5,3)            120.0            estimate D2E/DX2                !
 ! D3    D(2,1,5,4)           -120.0            estimate D2E/DX2                !
 ! D4    D(3,1,5,4)            120.0            estimate D2E/DX2                !
 --------------------------------------------------------------------------------
 Trust Radius=3.00D-01 FncErr=1.00D-07 GrdErr=1.00D-07
 Number of steps in this run=  24 maximum allowed number of steps= 100.
 GradGradGradGradGradGradGradGradGradGradGradGradGradGradGradGradGradGrad

                          Input orientation:                          
 ---------------------------------------------------------------------
 Center     Atomic      Atomic             Coordinates (Angstroms)
 Number     Number       Type             X           Y           Z
 ---------------------------------------------------------------------
      1          6           0       -5.601034    1.036955   -0.873652
      2          1           0       -5.244379    0.028145   -0.873652
      3          1           0       -5.244361    1.541353    0.000000
      4          1           0       -5.244361    1.541353   -1.747303
      5          1           0       -6.671034    1.036968   -0.873652
 ---------------------------------------------------------------------
                    Distance matrix (angstroms):
                    1          2          3          4          5
     1  C    0.000000
     2  H    1.070000   0.000000
     3  H    1.070000   1.747302   0.000000
     4  H    1.070000   1.747302   1.747303   0.000000
     5  H    1.070000   1.747303   1.747303   1.747303   0.000000
 Stoichiometry    CH4
 Framework group  T[O(C),4C3(H)]
 Deg. of freedom     1
 Full point group                 T       NOp  12
 Largest Abelian subgroup         D2      NOp   4
 Largest concise Abelian subgroup D2      NOp   4
                         Standard orientation:                         
 ---------------------------------------------------------------------
 Center     Atomic      Atomic             Coordinates (Angstroms)
 Number     Number       Type             X           Y           Z
 ---------------------------------------------------------------------
      1          6           0        0.000000    0.000000    0.000000
      2          1           0        0.617765    0.617765    0.617765
      3          1           0       -0.617765   -0.617765    0.617765
      4          1           0       -0.617765    0.617765   -0.617765
      5          1           0        0.617765   -0.617765   -0.617765
 ---------------------------------------------------------------------
 Rotational constants (GHZ):    164.2463794    164.2463794    164.2463794
 Standard basis: 6-31+G(d,p) (6D, 7F)
 There are    12 symmetry adapted basis functions of A   symmetry.
 There are     9 symmetry adapted basis functions of B1  symmetry.
 There are     9 symmetry adapted basis functions of B2  symmetry.
 There are     9 symmetry adapted basis functions of B3  symmetry.
 Integral buffers will be    262144 words long.
 Raffenetti 1 integral format.
 Two-electron integral symmetry is turned on.
    39 basis functions,    60 primitive gaussians,    39 cartesian basis functions
     5 alpha electrons        5 beta electrons
       nuclear repulsion energy        13.6865185901 Hartrees.
 NAtoms=    5 NActive=    5 NUniq=    2 SFac= 3.00D+00 NAtFMM=   80 NAOKFM=F Big=F
 One-electron integrals computed using PRISM.
 NBasis=    39 RedAO= T  NBF=    12     9     9     9
 NBsUse=    39 1.00D-06 NBFU=    12     9     9     9
 Harris functional with IExCor=  205 diagonalized for initial guess.
 ExpMin= 4.38D-02 ExpMax= 3.05D+03 ExpMxC= 4.57D+02 IAcc=2 IRadAn=         0 AccDes= 0.00D+00
 HarFok:  IExCor=  205 AccDes= 0.00D+00 IRadAn=         0 IDoV= 1
 ScaDFX=  1.000000  1.000000  1.000000  1.000000
 FoFCou: FMM=F IPFlag=           0 FMFlag=      100000 FMFlg1=           0
         NFxFlg=           0 DoJE=T BraDBF=F KetDBF=T FulRan=T
         Omega=  0.000000  0.000000  1.000000  0.000000  0.000000 ICntrl=     500 IOpCl=  0
         NMat0=    1 NMatS0=    1 NMatT0=    0 NMatD0=    1 NMtDS0=    0 NMtDT0=    0
         I1Cent=           4 NGrid=           0.
 Petite list used in FoFCou.
 Initial guess orbital symmetries:
       Occupied  (A) (A) (T) (T) (T)
       Virtual   (A) (T) (T) (T) (T) (T) (T) (A) (T) (T) (T) (T)
                 (T) (T) (A) (A) (E) (E) (T) (T) (T) (T) (T) (T)
                 (T) (T) (T) (E) (E) (A) (T) (T) (T) (A)
 The electronic state of the initial guess is 1-A.
 Requested convergence on RMS density matrix=1.00D-08 within 128 cycles.
 Requested convergence on MAX density matrix=1.00D-06.
 Requested convergence on             energy=1.00D-06.
 No special actions if energy rises.
 Keep R1 ints in memory in canonical form, NReq=1147936.
 SCF Done:  E(RHF) =  -40.2015926942     A.U. after    8 cycles
             Convg  =    0.2709D-08             -V/T =  1.9986

 **********************************************************************

            Population analysis using the SCF density.

 **********************************************************************

 Orbital symmetries:
       Occupied  (A) (A) (T) (T) (T)
       Virtual   (A) (T) (T) (T) (T) (T) (T) (A) (T) (T) (T) (T)
                 (T) (T) (A) (A) (E) (E) (T) (T) (T) (T) (T) (T)
                 (T) (T) (T) (E) (E) (A) (T) (T) (T) (A)
 The electronic state is 1-A.
 Alpha  occ. eigenvalues --  -11.20105  -0.95226  -0.54998  -0.54998  -0.54998
 Alpha virt. eigenvalues --    0.09241   0.12192   0.12192   0.12192   0.33865
 Alpha virt. eigenvalues --    0.33865   0.33865   0.42202   0.84460   0.84460
 Alpha virt. eigenvalues --    0.84460   1.18081   1.18081   1.18081   1.31922
 Alpha virt. eigenvalues --    1.37490   1.62624   1.62624   2.35882   2.35882
 Alpha virt. eigenvalues --    2.35882   2.43851   2.43851   2.43851   2.98481
 Alpha virt. eigenvalues --    2.98481   2.98481   3.29941   3.29941   3.59971
 Alpha virt. eigenvalues --    3.84217   3.84217   3.84217   4.84806
          Condensed to atoms (all electrons):
              1          2          3          4          5
     1  C    4.917905   0.401370   0.401370   0.401370   0.401370
     2  H    0.401370   0.548645  -0.026954  -0.026954  -0.026954
     3  H    0.401370  -0.026954   0.548645  -0.026954  -0.026954
     4  H    0.401370  -0.026954  -0.026954   0.548645  -0.026954
     5  H    0.401370  -0.026954  -0.026954  -0.026954   0.548645
 Mulliken atomic charges:
              1
     1  C   -0.523383
     2  H    0.130846
     3  H    0.130846
     4  H    0.130846
     5  H    0.130846
 Sum of Mulliken atomic charges =   0.00000
 Mulliken charges with hydrogens summed into heavy atoms:
              1
     1  C    0.000000
 Sum of Mulliken charges with hydrogens summed into heavy atoms =   0.00000
 Electronic spatial extent (au):  <R**2>=             35.1094
 Charge=              0.0000 electrons
 Dipole moment (field-independent basis, Debye):
    X=              0.0000    Y=              0.0000    Z=              0.0000  Tot=              0.0000
 Quadrupole moment (field-independent basis, Debye-Ang):
   XX=             -8.4089   YY=             -8.4089   ZZ=             -8.4089
   XY=              0.0000   XZ=              0.0000   YZ=              0.0000
 Traceless Quadrupole moment (field-independent basis, Debye-Ang):
   XX=              0.0000   YY=              0.0000   ZZ=              0.0000
   XY=              0.0000   XZ=              0.0000   YZ=              0.0000
 Octapole moment (field-independent basis, Debye-Ang**2):
  XXX=              0.0000  YYY=              0.0000  ZZZ=              0.0000  XYY=              0.0000
  XXY=              0.0000  XXZ=              0.0000  XZZ=              0.0000  YZZ=              0.0000
  YYZ=              0.0000  XYZ=              0.6249
 Hexadecapole moment (field-independent basis, Debye-Ang**3):
 XXXX=            -16.1692 YYYY=            -16.1692 ZZZZ=            -16.1692 XXXY=              0.0000
 XXXZ=              0.0000 YYYX=              0.0000 YYYZ=              0.0000 ZZZX=              0.0000
 ZZZY=              0.0000 XXYY=             -4.9527 XXZZ=             -4.9527 YYZZ=             -4.9527
 XXYZ=              0.0000 YYXZ=              0.0000 ZZXY=              0.0000
 N-N= 1.368651859005D+01 E-N=-1.204271222186D+02  KE= 4.025740047456D+01
 Symmetry A    KE= 3.449416676424D+01
 Symmetry B1   KE= 1.921077903443D+00
 Symmetry B2   KE= 1.921077903443D+00
 Symmetry B3   KE= 1.921077903443D+00
 Calling FoFJK, ICntrl=      2127 FMM=F ISym2X=1 I1Cent= 0 IOpClX= 0 NMat=1 NMatS=1 NMatT=0.
 ***** Axes restored to original set *****
 -------------------------------------------------------------------
 Center     Atomic                   Forces (Hartrees/Bohr)
 Number     Number              X              Y              Z
 -------------------------------------------------------------------
      1        6           0.000000000    0.000000000    0.000000000
      2        1           0.003470318   -0.009815920   -0.000000008
      3        1           0.003470503    0.004907892    0.008500800
      4        1           0.003470490    0.004907902   -0.008500800
      5        1          -0.010411311    0.000000126    0.000000008
 -------------------------------------------------------------------
 Cartesian Forces:  Max     0.010411311 RMS     0.005376378

 GradGradGradGradGradGradGradGradGradGradGradGradGradGradGradGradGradGrad
 Berny optimization.
 Internal  Forces:  Max     0.010411311 RMS     0.005565080
 Search for a local minimum.
 Step number   1 out of a maximum of   24
 All quantities printed in internal units (Hartrees-Bohrs-Radians)
 Mixed Optimization -- RFO/linear search
 Second derivative matrix not updated -- first step.
 The second derivative matrix:
                          R1        R2        R3        R4        A1
           R1           0.37230
           R2           0.00000   0.37230
           R3           0.00000   0.00000   0.37230
           R4           0.00000   0.00000   0.00000   0.37230
           A1           0.00000   0.00000   0.00000   0.00000   0.16000
           A2           0.00000   0.00000   0.00000   0.00000   0.00000
           A3           0.00000   0.00000   0.00000   0.00000   0.00000
           A4           0.00000   0.00000   0.00000   0.00000   0.00000
           A5           0.00000   0.00000   0.00000   0.00000   0.00000
           A6           0.00000   0.00000   0.00000   0.00000   0.00000
           D1           0.00000   0.00000   0.00000   0.00000   0.00000
           D2           0.00000   0.00000   0.00000   0.00000   0.00000
           D3           0.00000   0.00000   0.00000   0.00000   0.00000
           D4           0.00000   0.00000   0.00000   0.00000   0.00000
                          A2        A3        A4        A5        A6
           A2           0.16000
           A3           0.00000   0.16000
           A4           0.00000   0.00000   0.16000
           A5           0.00000   0.00000   0.00000   0.16000
           A6           0.00000   0.00000   0.00000   0.00000   0.16000
           D1           0.00000   0.00000   0.00000   0.00000   0.00000
           D2           0.00000   0.00000   0.00000   0.00000   0.00000
           D3           0.00000   0.00000   0.00000   0.00000   0.00000
           D4           0.00000   0.00000   0.00000   0.00000   0.00000
                          D1        D2        D3        D4
           D1           0.00499
           D2           0.00000   0.00499
           D3           0.00000   0.00000   0.00499
           D4           0.00000   0.00000   0.00000   0.00499
     Eigenvalues ---    0.05269   0.05891   0.08766   0.16000   0.16000
     Eigenvalues ---    0.37230   0.37230   0.37230   0.372301000.00000
     Eigenvalues --- 1000.000001000.000001000.000001000.00000
 RFO step:  Lambda=-1.16097884D-03 EMin= 5.26881010D-02
 Linear search not attempted -- first point.
 Iteration  1 RMS(Cart)=  0.01490132 RMS(Int)=  0.00000000
 Iteration  2 RMS(Cart)=  0.00000000 RMS(Int)=  0.00000000
 ClnCor:  largest displacement from symmetrization is 3.42D-14 for atom     5.
 Variable       Old X    -DE/DX   Delta X   Delta X   Delta X     New X
                                 (Linear)    (Quad)   (Total)
    R1        2.02201   0.01041   0.00000   0.02788   0.02788   2.04988
    R2        2.02201   0.01041   0.00000   0.02788   0.02788   2.04988
    R3        2.02201   0.01041   0.00000   0.02788   0.02788   2.04988
    R4        2.02201   0.01041   0.00000   0.02788   0.02788   2.04988
    A1        1.91063   0.00000   0.00000   0.00000   0.00000   1.91063
    A2        1.91063   0.00000   0.00000   0.00000   0.00000   1.91063
    A3        1.91063   0.00000   0.00000   0.00000   0.00000   1.91063
    A4        1.91063   0.00000   0.00000   0.00000   0.00000   1.91063
    A5        1.91063   0.00000   0.00000   0.00000   0.00000   1.91063
    A6        1.91063   0.00000   0.00000   0.00000   0.00000   1.91063
    D1       -2.09440   0.00000   0.00000   0.00000   0.00000  -2.09440
    D2        2.09440   0.00000   0.00000   0.00000   0.00000   2.09440
    D3       -2.09440   0.00000   0.00000   0.00000   0.00000  -2.09440
    D4        2.09440   0.00000   0.00000   0.00000   0.00000   2.09440
         Item               Value     Threshold  Converged?
 Maximum Force            0.010411     0.000450     NO 
 RMS     Force            0.005565     0.000300     NO 
 Maximum Displacement     0.027878     0.001800     NO 
 RMS     Displacement     0.014901     0.001200     NO 
 Predicted change in Energy=-5.822940D-04
 GradGradGradGradGradGradGradGradGradGradGradGradGradGradGradGradGradGrad

                          Input orientation:                          
 ---------------------------------------------------------------------
 Center     Atomic      Atomic             Coordinates (Angstroms)
 Number     Number       Type             X           Y           Z
 ---------------------------------------------------------------------
      1          6           0       -5.601034    1.036955   -0.873652
      2          1           0       -5.239462    0.014237   -0.873652
      3          1           0       -5.239443    1.548307    0.012045
      4          1           0       -5.239444    1.548308   -1.759348
      5          1           0       -6.685786    1.036968   -0.873651
 ---------------------------------------------------------------------
                    Distance matrix (angstroms):
                    1          2          3          4          5
     1  C    0.000000
     2  H    1.084752   0.000000
     3  H    1.084752   1.771393   0.000000
     4  H    1.084752   1.771393   1.771393   0.000000
     5  H    1.084752   1.771393   1.771393   1.771393   0.000000
 Stoichiometry    CH4
 Framework group  TD[O(C),4C3(H)]
 Deg. of freedom     1
 Full point group                 TD      NOp  24
 Omega: Change in point group or standard orientation.

 Old FWG=T    [O(C1),4C3(H1)]
 New FWG=TD   [O(C1),4C3(H1)]
 Largest Abelian subgroup         D2      NOp   4
 Largest concise Abelian subgroup D2      NOp   4
                         Standard orientation:                         
 ---------------------------------------------------------------------
 Center     Atomic      Atomic             Coordinates (Angstroms)
 Number     Number       Type             X           Y           Z
 ---------------------------------------------------------------------
      1          6           0        0.000000    0.000000    0.000000
      2          1           0        0.626282    0.626282    0.626282
      3          1           0       -0.626282   -0.626282    0.626282
      4          1           0       -0.626282    0.626282   -0.626282
      5          1           0        0.626282   -0.626282   -0.626282
 ---------------------------------------------------------------------
 Rotational constants (GHZ):    159.8093527    159.8093527    159.8093527
 Standard basis: 6-31+G(d,p) (6D, 7F)
 There are    12 symmetry adapted basis functions of A   symmetry.
 There are     9 symmetry adapted basis functions of B1  symmetry.
 There are     9 symmetry adapted basis functions of B2  symmetry.
 There are     9 symmetry adapted basis functions of B3  symmetry.
 Integral buffers will be    262144 words long.
 Raffenetti 1 integral format.
 Two-electron integral symmetry is turned on.
    39 basis functions,    60 primitive gaussians,    39 cartesian basis functions
     5 alpha electrons        5 beta electrons
       nuclear repulsion energy        13.5003859863 Hartrees.
 NAtoms=    5 NActive=    5 NUniq=    2 SFac= 3.00D+00 NAtFMM=   80 NAOKFM=F Big=F
 One-electron integrals computed using PRISM.
 NBasis=    39 RedAO= T  NBF=    12     9     9     9
 NBsUse=    39 1.00D-06 NBFU=    12     9     9     9
 Initial guess read from the read-write file.
 B after Tr=     0.000000    0.000000    0.000000
         Rot=    1.000000    0.000000    0.000000    0.000000 Ang=   0.00 deg.
 Initial guess orbital symmetries:
       Occupied  (A1) (A1) (T2) (T2) (T2)
       Virtual   (A1) (T2) (T2) (T2) (T2) (T2) (T2) (A1) (T2) (T2)
                 (T2) (T2) (T2) (T2) (A1) (A1) (E) (E) (T1) (T1)
                 (T1) (T2) (T2) (T2) (T2) (T2) (T2) (E) (E) (A1)
                 (T2) (T2) (T2) (A1)
 Harris functional with IExCor=  205 diagonalized for initial guess.
 ExpMin= 4.38D-02 ExpMax= 3.05D+03 ExpMxC= 4.57D+02 IAcc=2 IRadAn=         0 AccDes= 0.00D+00
 HarFok:  IExCor=  205 AccDes= 0.00D+00 IRadAn=         0 IDoV= 1
 ScaDFX=  1.000000  1.000000  1.000000  1.000000
 FoFCou: FMM=F IPFlag=           0 FMFlag=      100000 FMFlg1=           0
         NFxFlg=           0 DoJE=T BraDBF=F KetDBF=T FulRan=T
         Omega=  0.000000  0.000000  1.000000  0.000000  0.000000 ICntrl=     500 IOpCl=  0
         NMat0=    1 NMatS0=    1 NMatT0=    0 NMatD0=    1 NMtDS0=    0 NMtDT0=    0
         I1Cent=           4 NGrid=           0.
 Petite list used in FoFCou.
 Requested convergence on RMS density matrix=1.00D-08 within 128 cycles.
 Requested convergence on MAX density matrix=1.00D-06.
 Requested convergence on             energy=1.00D-06.
 No special actions if energy rises.
 Keep R1 ints in memory in canonical form, NReq=1148038.
 SCF Done:  E(RHF) =  -40.2021289434     A.U. after    7 cycles
             Convg  =    0.2912D-08             -V/T =  2.0008
 Calling FoFJK, ICntrl=      2127 FMM=F ISym2X=1 I1Cent= 0 IOpClX= 0 NMat=1 NMatS=1 NMatT=0.
 ***** Axes restored to original set *****
 -------------------------------------------------------------------
 Center     Atomic                   Forces (Hartrees/Bohr)
 Number     Number              X              Y              Z
 -------------------------------------------------------------------
      1        6           0.000000000    0.000000000    0.000000000
      2        1          -0.000215901    0.000610683    0.000000001
      3        1          -0.000215912   -0.000305337   -0.000528864
      4        1          -0.000215911   -0.000305338    0.000528864
      5        1           0.000647724   -0.000000008   -0.000000001
 -------------------------------------------------------------------
 Cartesian Forces:  Max     0.000647724 RMS     0.000334483

 GradGradGradGradGradGradGradGradGradGradGradGradGradGradGradGradGradGrad
 Berny optimization.
 Using GEDIIS/GDIIS optimizer.
 Internal  Forces:  Max     0.000647724 RMS     0.000346223
 Search for a local minimum.
 Step number   2 out of a maximum of   24
 All quantities printed in internal units (Hartrees-Bohrs-Radians)
 Mixed Optimization -- En-DIIS/RFO-DIIS
 Update second derivatives using D2CorX and points    1    2
 DE= -5.36D-04 DEPred=-5.82D-04 R= 9.21D-01
 SS=  1.41D+00  RLast= 5.58D-02 DXNew= 5.0454D-01 1.6727D-01
 Trust test= 9.21D-01 RLast= 5.58D-02 DXMaxT set to 3.00D-01
 The second derivative matrix:
                          R1        R2        R3        R4        A1
           R1           0.37840
           R2           0.00610   0.37840
           R3           0.00610   0.00610   0.37840
           R4           0.00610   0.00610   0.00610   0.37840
           A1           0.00000   0.00000   0.00000   0.00000   0.16000
           A2           0.00000   0.00000   0.00000   0.00000   0.00000
           A3           0.00000   0.00000   0.00000   0.00000   0.00000
           A4           0.00000   0.00000   0.00000   0.00000   0.00000
           A5           0.00000   0.00000   0.00000   0.00000   0.00000
           A6           0.00000   0.00000   0.00000   0.00000   0.00000
           D1           0.00000   0.00000   0.00000   0.00000   0.00000
           D2           0.00000   0.00000   0.00000   0.00000   0.00000
           D3           0.00000   0.00000   0.00000   0.00000   0.00000
           D4           0.00000   0.00000   0.00000   0.00000   0.00000
                          A2        A3        A4        A5        A6
           A2           0.16000
           A3           0.00000   0.16000
           A4           0.00000   0.00000   0.16000
           A5           0.00000   0.00000   0.00000   0.16000
           A6           0.00000   0.00000   0.00000   0.00000   0.16000
           D1           0.00000   0.00000   0.00000   0.00000   0.00000
           D2           0.00000   0.00000   0.00000   0.00000   0.00000
           D3           0.00000   0.00000   0.00000   0.00000   0.00000
           D4           0.00000   0.00000   0.00000   0.00000   0.00000
                          D1        D2        D3        D4
           D1           0.00499
           D2           0.00000   0.00499
           D3           0.00000   0.00000   0.00499
           D4           0.00000   0.00000   0.00000   0.00499
 Use linear search instead of GDIIS.
     Eigenvalues ---    0.05269   0.05891   0.08766   0.16000   0.16000
     Eigenvalues ---    0.37230   0.37230   0.37230   0.396701000.00000
     Eigenvalues --- 1000.000001000.000001000.000001000.00000
 RFO step:  Lambda= 0.00000000D+00 EMin= 5.26881010D-02
 Quartic linear search produced a step of -0.06081.
 Iteration  1 RMS(Cart)=  0.00090622 RMS(Int)=  0.00000000
 Iteration  2 RMS(Cart)=  0.00000000 RMS(Int)=  0.00000000
 ClnCor:  largest displacement from symmetrization is 1.12D-14 for atom     4.
 Variable       Old X    -DE/DX   Delta X   Delta X   Delta X     New X
                                 (Linear)    (Quad)   (Total)
    R1        2.04988  -0.00065  -0.00170   0.00000  -0.00170   2.04819
    R2        2.04988  -0.00065  -0.00170   0.00000  -0.00170   2.04819
    R3        2.04988  -0.00065  -0.00170   0.00000  -0.00170   2.04819
    R4        2.04988  -0.00065  -0.00170   0.00000  -0.00170   2.04819
    A1        1.91063   0.00000   0.00000   0.00000   0.00000   1.91063
    A2        1.91063   0.00000   0.00000   0.00000   0.00000   1.91063
    A3        1.91063   0.00000   0.00000   0.00000   0.00000   1.91063
    A4        1.91063   0.00000   0.00000   0.00000   0.00000   1.91063
    A5        1.91063   0.00000   0.00000   0.00000   0.00000   1.91063
    A6        1.91063   0.00000   0.00000   0.00000   0.00000   1.91063
    D1       -2.09440   0.00000   0.00000   0.00000   0.00000  -2.09440
    D2        2.09440   0.00000   0.00000   0.00000   0.00000   2.09440
    D3       -2.09440   0.00000   0.00000   0.00000   0.00000  -2.09440
    D4        2.09440   0.00000   0.00000   0.00000   0.00000   2.09440
         Item               Value     Threshold  Converged?
 Maximum Force            0.000648     0.000450     NO 
 RMS     Force            0.000346     0.000300     NO 
 Maximum Displacement     0.001695     0.001800     YES
 RMS     Displacement     0.000906     0.001200     YES
 Predicted change in Energy=-2.112093D-06
 GradGradGradGradGradGradGradGradGradGradGradGradGradGradGradGradGradGrad

                          Input orientation:                          
 ---------------------------------------------------------------------
 Center     Atomic      Atomic             Coordinates (Angstroms)
 Number     Number       Type             X           Y           Z
 ---------------------------------------------------------------------
      1          6           0       -5.601034    1.036955   -0.873652
      2          1           0       -5.239761    0.015082   -0.873652
      3          1           0       -5.239742    1.547884    0.011312
      4          1           0       -5.239743    1.547885   -1.758615
      5          1           0       -6.684889    1.036968   -0.873651
 ---------------------------------------------------------------------
                    Distance matrix (angstroms):
                    1          2          3          4          5
     1  C    0.000000
     2  H    1.083855   0.000000
     3  H    1.083855   1.769928   0.000000
     4  H    1.083855   1.769928   1.769928   0.000000
     5  H    1.083855   1.769928   1.769928   1.769928   0.000000
 Stoichiometry    CH4
 Framework group  TD[O(C),4C3(H)]
 Deg. of freedom     1
 Full point group                 TD      NOp  24
 Largest Abelian subgroup         D2      NOp   4
 Largest concise Abelian subgroup D2      NOp   4
                         Standard orientation:                         
 ---------------------------------------------------------------------
 Center     Atomic      Atomic             Coordinates (Angstroms)
 Number     Number       Type             X           Y           Z
 ---------------------------------------------------------------------
      1          6           0        0.000000    0.000000    0.000000
      2          1           0        0.625764    0.625764    0.625764
      3          1           0       -0.625764   -0.625764    0.625764
      4          1           0       -0.625764    0.625764   -0.625764
      5          1           0        0.625764   -0.625764   -0.625764
 ---------------------------------------------------------------------
 Rotational constants (GHZ):    160.0740257    160.0740257    160.0740257
 Standard basis: 6-31+G(d,p) (6D, 7F)
 There are    12 symmetry adapted basis functions of A   symmetry.
 There are     9 symmetry adapted basis functions of B1  symmetry.
 There are     9 symmetry adapted basis functions of B2  symmetry.
 There are     9 symmetry adapted basis functions of B3  symmetry.
 Integral buffers will be    262144 words long.
 Raffenetti 1 integral format.
 Two-electron integral symmetry is turned on.
    39 basis functions,    60 primitive gaussians,    39 cartesian basis functions
     5 alpha electrons        5 beta electrons
       nuclear repulsion energy        13.5115608898 Hartrees.
 NAtoms=    5 NActive=    5 NUniq=    2 SFac= 3.00D+00 NAtFMM=   80 NAOKFM=F Big=F
 One-electron integrals computed using PRISM.
 NBasis=    39 RedAO= T  NBF=    12     9     9     9
 NBsUse=    39 1.00D-06 NBFU=    12     9     9     9
 Initial guess read from the read-write file.
 B after Tr=     0.000000    0.000000    0.000000
         Rot=    1.000000    0.000000    0.000000    0.000000 Ang=   0.00 deg.
 Initial guess orbital symmetries:
       Occupied  (A1) (A1) (T2) (T2) (T2)
       Virtual   (A1) (T2) (T2) (T2) (T2) (T2) (T2) (A1) (T2) (T2)
                 (T2) (T2) (T2) (T2) (A1) (A1) (E) (E) (T1) (T1)
                 (T1) (T2) (T2) (T2) (T2) (T2) (T2) (E) (E) (A1)
                 (T2) (T2) (T2) (A1)
 Requested convergence on RMS density matrix=1.00D-08 within 128 cycles.
 Requested convergence on MAX density matrix=1.00D-06.
 Requested convergence on             energy=1.00D-06.
 No special actions if energy rises.
 Keep R1 ints in memory in canonical form, NReq=1148038.
 SCF Done:  E(RHF) =  -40.2021311410     A.U. after    6 cycles
             Convg  =    0.4142D-08             -V/T =  2.0006
 Calling FoFJK, ICntrl=      2127 FMM=F ISym2X=1 I1Cent= 0 IOpClX= 0 NMat=1 NMatS=1 NMatT=0.
 ***** Axes restored to original set *****
 -------------------------------------------------------------------
 Center     Atomic                   Forces (Hartrees/Bohr)
 Number     Number              X              Y              Z
 -------------------------------------------------------------------
      1        6           0.000000000    0.000000000    0.000000000
      2        1           0.000000042   -0.000000118    0.000000000
      3        1           0.000000042    0.000000059    0.000000102
      4        1           0.000000042    0.000000059   -0.000000102
      5        1          -0.000000125    0.000000000    0.000000000
 -------------------------------------------------------------------
 Cartesian Forces:  Max     0.000000125 RMS     0.000000064

 GradGradGradGradGradGradGradGradGradGradGradGradGradGradGradGradGradGrad
 Berny optimization.
 Using GEDIIS/GDIIS optimizer.
 Internal  Forces:  Max     0.000000125 RMS     0.000000067
 Search for a local minimum.
 Step number   3 out of a maximum of   24
 All quantities printed in internal units (Hartrees-Bohrs-Radians)
 Mixed Optimization -- En-DIIS/RFO-DIIS
 Swaping is turned off.
 Update second derivatives using D2CorX and points    1    2    3
 DE= -2.20D-06 DEPred=-2.11D-06 R= 1.04D+00
 SS=  1.41D+00  RLast= 3.39D-03 DXNew= 5.0454D-01 1.0172D-02
 Trust test= 1.04D+00 RLast= 3.39D-03 DXMaxT set to 3.00D-01
 The second derivative matrix:
                          R1        R2        R3        R4        A1
           R1           0.37476
           R2           0.00246   0.37476
           R3           0.00246   0.00246   0.37476
           R4           0.00246   0.00246   0.00246   0.37476
           A1           0.00000   0.00000   0.00000   0.00000   0.16000
           A2           0.00000   0.00000   0.00000   0.00000   0.00000
           A3           0.00000   0.00000   0.00000   0.00000   0.00000
           A4           0.00000   0.00000   0.00000   0.00000   0.00000
           A5           0.00000   0.00000   0.00000   0.00000   0.00000
           A6           0.00000   0.00000   0.00000   0.00000   0.00000
           D1           0.00000   0.00000   0.00000   0.00000   0.00000
           D2           0.00000   0.00000   0.00000   0.00000   0.00000
           D3           0.00000   0.00000   0.00000   0.00000   0.00000
           D4           0.00000   0.00000   0.00000   0.00000   0.00000
                          A2        A3        A4        A5        A6
           A2           0.16000
           A3           0.00000   0.16000
           A4           0.00000   0.00000   0.16000
           A5           0.00000   0.00000   0.00000   0.16000
           A6           0.00000   0.00000   0.00000   0.00000   0.16000
           D1           0.00000   0.00000   0.00000   0.00000   0.00000
           D2           0.00000   0.00000   0.00000   0.00000   0.00000
           D3           0.00000   0.00000   0.00000   0.00000   0.00000
           D4           0.00000   0.00000   0.00000   0.00000   0.00000
                          D1        D2        D3        D4
           D1           0.00499
           D2           0.00000   0.00499
           D3           0.00000   0.00000   0.00499
           D4           0.00000   0.00000   0.00000   0.00499
     Eigenvalues ---    0.05269   0.05891   0.08766   0.16000   0.16000
     Eigenvalues ---    0.37230   0.37230   0.37230   0.382131000.00000
     Eigenvalues --- 1000.000001000.000001000.000001000.00000
 En-DIIS/RFO-DIIS IScMMF=        0 using points:     3    2
 RFO step:  Lambda= 0.00000000D+00.
 Iteration  1 RMS(Cart)=  0.00000017 RMS(Int)=  0.00000000
 ClnCor:  largest displacement from symmetrization is 3.48D-14 for atom     5.
 Variable       Old X    -DE/DX   Delta X   Delta X   Delta X     New X
                                  (DIIS)     (GDIIS)  (Total)
    R1        2.04819   0.00000   0.00000   0.00000   0.00000   2.04819
    R2        2.04819   0.00000   0.00000   0.00000   0.00000   2.04819
    R3        2.04819   0.00000   0.00000   0.00000   0.00000   2.04819
    R4        2.04819   0.00000   0.00000   0.00000   0.00000   2.04819
    A1        1.91063   0.00000   0.00000   0.00000   0.00000   1.91063
    A2        1.91063   0.00000   0.00000   0.00000   0.00000   1.91063
    A3        1.91063   0.00000   0.00000   0.00000   0.00000   1.91063
    A4        1.91063   0.00000   0.00000   0.00000   0.00000   1.91063
    A5        1.91063   0.00000   0.00000   0.00000   0.00000   1.91063
    A6        1.91063   0.00000   0.00000   0.00000   0.00000   1.91063
    D1       -2.09440   0.00000   0.00000   0.00000   0.00000  -2.09440
    D2        2.09440   0.00000   0.00000   0.00000   0.00000   2.09440
    D3       -2.09440   0.00000   0.00000   0.00000   0.00000  -2.09440
    D4        2.09440   0.00000   0.00000   0.00000   0.00000   2.09440
         Item               Value     Threshold  Converged?
 Maximum Force            0.000000     0.000450     YES
 RMS     Force            0.000000     0.000300     YES
 Maximum Displacement     0.000000     0.001800     YES
 RMS     Displacement     0.000000     0.001200     YES
 Predicted change in Energy=-8.154146D-14
 Optimization completed.
    -- Stationary point found.
                           ----------------------------
                           !   Optimized Parameters   !
                           ! (Angstroms and Degrees)  !
 --------------------------                            --------------------------
 ! Name  Definition              Value          Derivative Info.                !
 --------------------------------------------------------------------------------
 ! R1    R(1,2)                  1.0839         -DE/DX =    0.0                 !
 ! R2    R(1,3)                  1.0839         -DE/DX =    0.0                 !
 ! R3    R(1,4)                  1.0839         -DE/DX =    0.0                 !
 ! R4    R(1,5)                  1.0839         -DE/DX =    0.0                 !
 ! A1    A(2,1,3)              109.4712         -DE/DX =    0.0                 !
 ! A2    A(2,1,4)              109.4712         -DE/DX =    0.0                 !
 ! A3    A(2,1,5)              109.4712         -DE/DX =    0.0                 !
 ! A4    A(3,1,4)              109.4712         -DE/DX =    0.0                 !
 ! A5    A(3,1,5)              109.4712         -DE/DX =    0.0                 !
 ! A6    A(4,1,5)              109.4712         -DE/DX =    0.0                 !
 ! D1    D(2,1,4,3)           -120.0            -DE/DX =    0.0                 !
 ! D2    D(2,1,5,3)            120.0            -DE/DX =    0.0                 !
 ! D3    D(2,1,5,4)           -120.0            -DE/DX =    0.0                 !
 ! D4    D(3,1,5,4)            120.0            -DE/DX =    0.0                 !
 --------------------------------------------------------------------------------
 GradGradGradGradGradGradGradGradGradGradGradGradGradGradGradGradGradGrad

                          Input orientation:                          
 ---------------------------------------------------------------------
 Center     Atomic      Atomic             Coordinates (Angstroms)
 Number     Number       Type             X           Y           Z
 ---------------------------------------------------------------------
      1          6           0       -5.601034    1.036955   -0.873652
      2          1           0       -5.239761    0.015082   -0.873652
      3          1           0       -5.239742    1.547884    0.011312
      4          1           0       -5.239743    1.547885   -1.758615
      5          1           0       -6.684889    1.036968   -0.873651
 ---------------------------------------------------------------------
                    Distance matrix (angstroms):
                    1          2          3          4          5
     1  C    0.000000
     2  H    1.083855   0.000000
     3  H    1.083855   1.769928   0.000000
     4  H    1.083855   1.769928   1.769928   0.000000
     5  H    1.083855   1.769928   1.769928   1.769928   0.000000
 Stoichiometry    CH4
 Framework group  TD[O(C),4C3(H)]
 Deg. of freedom     1
 Full point group                 TD      NOp  24
 Largest Abelian subgroup         D2      NOp   4
 Largest concise Abelian subgroup D2      NOp   4
                         Standard orientation:                         
 ---------------------------------------------------------------------
 Center     Atomic      Atomic             Coordinates (Angstroms)
 Number     Number       Type             X           Y           Z
 ---------------------------------------------------------------------
      1          6           0        0.000000    0.000000    0.000000
      2          1           0        0.625764    0.625764    0.625764
      3          1           0       -0.625764   -0.625764    0.625764
      4          1           0       -0.625764    0.625764   -0.625764
      5          1           0        0.625764   -0.625764   -0.625764
 ---------------------------------------------------------------------
 Rotational constants (GHZ):    160.0740257    160.0740257    160.0740257

 **********************************************************************

            Population analysis using the SCF density.

 **********************************************************************

 Orbital symmetries:
       Occupied  (A1) (A1) (T2) (T2) (T2)
       Virtual   (A1) (T2) (T2) (T2) (T2) (T2) (T2) (A1) (T2) (T2)
                 (T2) (T2) (T2) (T2) (A1) (A1) (E) (E) (T1) (T1)
                 (T1) (T2) (T2) (T2) (T2) (T2) (T2) (E) (E) (A1)
                 (T2) (T2) (T2) (A1)
 The electronic state is 1-A1.
 Alpha  occ. eigenvalues --  -11.20789  -0.94651  -0.54645  -0.54645  -0.54645
 Alpha virt. eigenvalues --    0.09246   0.12219   0.12219   0.12219   0.33455
 Alpha virt. eigenvalues --    0.33455   0.33455   0.41748   0.84828   0.84828
 Alpha virt. eigenvalues --    0.84828   1.17349   1.17349   1.17349   1.31356
 Alpha virt. eigenvalues --    1.35683   1.62713   1.62713   2.35172   2.35172
 Alpha virt. eigenvalues --    2.35172   2.41643   2.41643   2.41643   2.96240
 Alpha virt. eigenvalues --    2.96240   2.96240   3.26516   3.26516   3.55186
 Alpha virt. eigenvalues --    3.80978   3.80978   3.80978   4.84351
          Condensed to atoms (all electrons):
              1          2          3          4          5
     1  C    4.927145   0.398949   0.398949   0.398949   0.398949
     2  H    0.398949   0.549798  -0.026494  -0.026494  -0.026494
     3  H    0.398949  -0.026494   0.549798  -0.026494  -0.026494
     4  H    0.398949  -0.026494  -0.026494   0.549798  -0.026494
     5  H    0.398949  -0.026494  -0.026494  -0.026494   0.549798
 Mulliken atomic charges:
              1
     1  C   -0.522940
     2  H    0.130735
     3  H    0.130735
     4  H    0.130735
     5  H    0.130735
 Sum of Mulliken atomic charges =   0.00000
 Mulliken charges with hydrogens summed into heavy atoms:
              1
     1  C    0.000000
 Sum of Mulliken charges with hydrogens summed into heavy atoms =   0.00000
 Electronic spatial extent (au):  <R**2>=             35.6443
 Charge=              0.0000 electrons
 Dipole moment (field-independent basis, Debye):
    X=              0.0000    Y=              0.0000    Z=              0.0000  Tot=              0.0000
 Quadrupole moment (field-independent basis, Debye-Ang):
   XX=             -8.4576   YY=             -8.4576   ZZ=             -8.4576
   XY=              0.0000   XZ=              0.0000   YZ=              0.0000
 Traceless Quadrupole moment (field-independent basis, Debye-Ang):
   XX=              0.0000   YY=              0.0000   ZZ=              0.0000
   XY=              0.0000   XZ=              0.0000   YZ=              0.0000
 Octapole moment (field-independent basis, Debye-Ang**2):
  XXX=              0.0000  YYY=              0.0000  ZZZ=              0.0000  XYY=              0.0000
  XXY=              0.0000  XXZ=              0.0000  XZZ=              0.0000  YZZ=              0.0000
  YYZ=              0.0000  XYZ=              0.6623
 Hexadecapole moment (field-independent basis, Debye-Ang**3):
 XXXX=            -16.5480 YYYY=            -16.5480 ZZZZ=            -16.5480 XXXY=              0.0000
 XXXZ=              0.0000 YYYX=              0.0000 YYYZ=              0.0000 ZZZX=              0.0000
 ZZZY=              0.0000 XXYY=             -5.0532 XXZZ=             -5.0532 YYZZ=             -5.0532
 XXYZ=              0.0000 YYXZ=              0.0000 ZZXY=              0.0000
 N-N= 1.351156088983D+01 E-N=-1.200159283111D+02  KE= 4.017602666831D+01
 Symmetry A    KE= 3.447745302044D+01
 Symmetry B1   KE= 1.899524549290D+00
 Symmetry B2   KE= 1.899524549290D+00
 Symmetry B3   KE= 1.899524549290D+00
 1|1|UNPC-DESKTOP-319GPER|FOpt|RHF|6-31+G(d,p)|C1H4|SAGAD|08-Oct-2020|0
 ||#opt freq HF/6-31+g(d,p)||Calculation of methane with HF||0,1|C,-5.6
 0103382,1.036955126,-0.873651501|H,-5.2397611728,0.0150823554,-0.87365
 23742|H,-5.2397418802,1.5478844374,0.0113124857|H,-5.2397433038,1.5478
 854465,-1.7586154863|H,-6.6848889231,1.0369682646,-0.8736506292||Versi
 on=IA32W-G09RevA.02|State=1-A1|HF=-40.2021311|RMSD=4.142e-009|RMSF=6.4
 46e-008|Dipole=0.,0.,0.|Quadrupole=0.,0.,0.,0.,0.,0.|PG=TD [O(C1),4C3(
 H1)]||@


 WE LEARN WISDOM FROM FAILURE MUCH MORE THAN FROM SUCCESS.
 WE DISCOVER WHAT WILL DO BY FINDING OUT WHAT WILL NOT DO...
 AND HE WHO NEVER MADE A MISTAKE NEVER MADE A DISCOVERY
 Job cpu time:  0 days  0 hours  0 minutes  8.0 seconds.
 File lengths (MBytes):  RWF=      5 Int=      0 D2E=      0 Chk=      1 Scr=      1
 Normal termination of Gaussian 09 at Thu Oct 08 01:20:58 2020.
 Link1:  Proceeding to internal job step number  2.
 --------------------------------------------------------------------
 #N Geom=AllCheck Guess=TCheck SCRF=Check GenChk RHF/6-31+G(d,p) Freq
 --------------------------------------------------------------------
 1/10=4,29=7,30=1,38=1,40=1/1,3;
 2/12=2,40=1/2;
 3/5=1,6=6,7=111,11=1,14=-4,16=1,25=1,30=1,70=2,71=2,116=1/1,2,3;
 4/5=101/1;
 5/5=2,98=1/2;
 8/6=4,10=90,11=11/1;
 10/13=10,15=4/2;
 11/6=3,8=1,9=11,15=111,16=1/1,2,10;
 10/6=1/2;
 6/7=2,8=2,9=2,10=2,18=1,28=1/1;
 7/8=1,10=1,25=1/1,2,3,16;
 1/10=4,30=1/3;
 99//99;
 ------------------------------
 Calculation of methane with HF
 ------------------------------
 Redundant internal coordinates taken from checkpoint file:
 C:\Users\sagad\Documents\rayGit\FQ\quimicaComputacional\class4Metilo\reactivos\methaneHF.chk
 Charge =  0 Multiplicity = 1
 C,0,-5.60103382,1.036955126,-0.873651501
 H,0,-5.2397611728,0.0150823554,-0.8736523742
 H,0,-5.2397418802,1.5478844374,0.0113124857
 H,0,-5.2397433038,1.5478854465,-1.7586154863
 H,0,-6.6848889231,1.0369682646,-0.8736506292
 Recover connectivity data from disk.

 GradGradGradGradGradGradGradGradGradGradGradGradGradGradGradGradGradGrad
 Berny optimization.
 Initialization pass.
                           ----------------------------
                           !    Initial Parameters    !
                           ! (Angstroms and Degrees)  !
 --------------------------                            --------------------------
 ! Name  Definition              Value          Derivative Info.                !
 --------------------------------------------------------------------------------
 ! R1    R(1,2)                  1.0839         calculate D2E/DX2 analytically  !
 ! R2    R(1,3)                  1.0839         calculate D2E/DX2 analytically  !
 ! R3    R(1,4)                  1.0839         calculate D2E/DX2 analytically  !
 ! R4    R(1,5)                  1.0839         calculate D2E/DX2 analytically  !
 ! A1    A(2,1,3)              109.4712         calculate D2E/DX2 analytically  !
 ! A2    A(2,1,4)              109.4712         calculate D2E/DX2 analytically  !
 ! A3    A(2,1,5)              109.4712         calculate D2E/DX2 analytically  !
 ! A4    A(3,1,4)              109.4712         calculate D2E/DX2 analytically  !
 ! A5    A(3,1,5)              109.4712         calculate D2E/DX2 analytically  !
 ! A6    A(4,1,5)              109.4712         calculate D2E/DX2 analytically  !
 ! D1    D(2,1,4,3)           -120.0            calculate D2E/DX2 analytically  !
 ! D2    D(2,1,5,3)            120.0            calculate D2E/DX2 analytically  !
 ! D3    D(2,1,5,4)           -120.0            calculate D2E/DX2 analytically  !
 ! D4    D(3,1,5,4)            120.0            calculate D2E/DX2 analytically  !
 --------------------------------------------------------------------------------
 Trust Radius=3.00D-01 FncErr=1.00D-07 GrdErr=1.00D-07
 Number of steps in this run=   2 maximum allowed number of steps=   2.
 GradGradGradGradGradGradGradGradGradGradGradGradGradGradGradGradGradGrad

                          Input orientation:                          
 ---------------------------------------------------------------------
 Center     Atomic      Atomic             Coordinates (Angstroms)
 Number     Number       Type             X           Y           Z
 ---------------------------------------------------------------------
      1          6           0       -5.601034    1.036955   -0.873652
      2          1           0       -5.239761    0.015082   -0.873652
      3          1           0       -5.239742    1.547884    0.011312
      4          1           0       -5.239743    1.547885   -1.758615
      5          1           0       -6.684889    1.036968   -0.873651
 ---------------------------------------------------------------------
                    Distance matrix (angstroms):
                    1          2          3          4          5
     1  C    0.000000
     2  H    1.083855   0.000000
     3  H    1.083855   1.769928   0.000000
     4  H    1.083855   1.769928   1.769928   0.000000
     5  H    1.083855   1.769928   1.769928   1.769928   0.000000
 Stoichiometry    CH4
 Framework group  TD[O(C),4C3(H)]
 Deg. of freedom     1
 Full point group                 TD      NOp  24
 Largest Abelian subgroup         D2      NOp   4
 Largest concise Abelian subgroup D2      NOp   4
                         Standard orientation:                         
 ---------------------------------------------------------------------
 Center     Atomic      Atomic             Coordinates (Angstroms)
 Number     Number       Type             X           Y           Z
 ---------------------------------------------------------------------
      1          6           0        0.000000    0.000000    0.000000
      2          1           0        0.625764    0.625764    0.625764
      3          1           0       -0.625764   -0.625764    0.625764
      4          1           0       -0.625764    0.625764   -0.625764
      5          1           0        0.625764   -0.625764   -0.625764
 ---------------------------------------------------------------------
 Rotational constants (GHZ):    160.0740257    160.0740257    160.0740257
 Standard basis: 6-31+G(d,p) (6D, 7F)
 There are    12 symmetry adapted basis functions of A   symmetry.
 There are     9 symmetry adapted basis functions of B1  symmetry.
 There are     9 symmetry adapted basis functions of B2  symmetry.
 There are     9 symmetry adapted basis functions of B3  symmetry.
 Integral buffers will be    262144 words long.
 Raffenetti 1 integral format.
 Two-electron integral symmetry is turned on.
    39 basis functions,    60 primitive gaussians,    39 cartesian basis functions
     5 alpha electrons        5 beta electrons
       nuclear repulsion energy        13.5115608898 Hartrees.
 NAtoms=    5 NActive=    5 NUniq=    2 SFac= 3.00D+00 NAtFMM=   80 NAOKFM=F Big=F
 One-electron integrals computed using PRISM.
 NBasis=    39 RedAO= T  NBF=    12     9     9     9
 NBsUse=    39 1.00D-06 NBFU=    12     9     9     9
 Initial guess read from the checkpoint file:  C:\Users\sagad\Documents\rayGit\FQ
 \quimicaComputacional\class4Metilo\reactivos\methaneHF.chk
 B after Tr=     0.000000    0.000000    0.000000
         Rot=    1.000000    0.000000    0.000000    0.000000 Ang=   0.00 deg.
 Initial guess orbital symmetries:
       Occupied  (A1) (A1) (T2) (T2) (T2)
       Virtual   (A1) (T2) (T2) (T2) (T2) (T2) (T2) (A1) (T2) (T2)
                 (T2) (T2) (T2) (T2) (A1) (A1) (E) (E) (T1) (T1)
                 (T1) (T2) (T2) (T2) (T2) (T2) (T2) (E) (E) (A1)
                 (T2) (T2) (T2) (A1)
 Requested convergence on RMS density matrix=1.00D-08 within 128 cycles.
 Requested convergence on MAX density matrix=1.00D-06.
 Requested convergence on             energy=1.00D-06.
 No special actions if energy rises.
 Keep R1 ints in memory in canonical form, NReq=1148038.
 SCF Done:  E(RHF) =  -40.2021311410     A.U. after    1 cycles
             Convg  =    0.1136D-09             -V/T =  2.0006
 Range of M.O.s used for correlation:     1    39
 NBasis=    39 NAE=     5 NBE=     5 NFC=     0 NFV=     0
 NROrb=     39 NOA=     5 NOB=     5 NVA=    34 NVB=    34
          Differentiating once with respect to electric field.
                with respect to dipole field.
          Electric field/nuclear overlap derivatives assumed to be zero.
          Keep R1 ints in memory in canonical form, NReq=1125217.
          There are     3 degrees of freedom in the 1st order CPHF.  IDoFFX=0.
      3 vectors produced by pass  0 Test12= 5.67D-15 3.33D-08 XBig12= 2.80D+00 9.61D-01.
 AX will form     3 AO Fock derivatives at one time.
      3 vectors produced by pass  1 Test12= 5.67D-15 3.33D-08 XBig12= 7.69D-02 1.26D-01.
      3 vectors produced by pass  2 Test12= 5.67D-15 3.33D-08 XBig12= 9.32D-04 1.17D-02.
      3 vectors produced by pass  3 Test12= 5.67D-15 3.33D-08 XBig12= 5.80D-06 8.72D-04.
      3 vectors produced by pass  4 Test12= 5.67D-15 3.33D-08 XBig12= 4.03D-08 8.74D-05.
      3 vectors produced by pass  5 Test12= 5.67D-15 3.33D-08 XBig12= 3.58D-10 7.55D-06.
      3 vectors produced by pass  6 Test12= 5.67D-15 3.33D-08 XBig12= 1.99D-12 5.78D-07.
 Inverted reduced A of dimension    21 with in-core refinement.
 End of Minotr Frequency-dependent properties file   721 does not exist.
 End of Minotr Frequency-dependent properties file   722 does not exist.
 Symmetrizing basis deriv contribution to polar:
 IMax=3 JMax=2 DiffMx= 0.00D+00
 G2DrvN: will do     6 centers at a time, making    1 passes doing MaxLOS=2.
 Calling FoFCou, ICntrl=  3107 FMM=F I1Cent=   0 AccDes= 0.00D+00.
 FoFDir/FoFCou used for L=0 through L=2.
 End of G2Drv Frequency-dependent properties file   721 does not exist.
 End of G2Drv Frequency-dependent properties file   722 does not exist.
          IDoAtm=11111
          Differentiating once with respect to electric field.
                with respect to dipole field.
          Differentiating once with respect to nuclear coordinates.
          Keep R1 ints in memory in canonical form, NReq=1125276.
          There are     9 degrees of freedom in the 1st order CPHF.  IDoFFX=4.
 Will reuse    3 saved solutions.
      6 vectors produced by pass  0 Test12= 1.89D-15 1.11D-08 XBig12= 2.96D-02 7.44D-02.
 AX will form     6 AO Fock derivatives at one time.
      6 vectors produced by pass  1 Test12= 1.89D-15 1.11D-08 XBig12= 5.11D-04 8.67D-03.
      6 vectors produced by pass  2 Test12= 1.89D-15 1.11D-08 XBig12= 7.13D-06 1.13D-03.
      6 vectors produced by pass  3 Test12= 1.89D-15 1.11D-08 XBig12= 4.96D-08 1.10D-04.
      6 vectors produced by pass  4 Test12= 1.89D-15 1.11D-08 XBig12= 3.08D-10 5.51D-06.
      6 vectors produced by pass  5 Test12= 1.89D-15 1.11D-08 XBig12= 1.83D-12 4.30D-07.
      6 vectors produced by pass  6 Test12= 1.89D-15 1.11D-08 XBig12= 1.24D-14 3.44D-08.
 Inverted reduced A of dimension    42 with in-core refinement.
 Isotropic polarizability for W=    0.000000       13.02 Bohr**3.
 End of Minotr Frequency-dependent properties file   721 does not exist.
 End of Minotr Frequency-dependent properties file   722 does not exist.

 **********************************************************************

            Population analysis using the SCF density.

 **********************************************************************

 Orbital symmetries:
       Occupied  (A1) (A1) (T2) (T2) (T2)
       Virtual   (A1) (T2) (T2) (T2) (T2) (T2) (T2) (A1) (T2) (T2)
                 (T2) (T2) (T2) (T2) (A1) (A1) (E) (E) (T1) (T1)
                 (T1) (T2) (T2) (T2) (T2) (T2) (T2) (E) (E) (A1)
                 (T2) (T2) (T2) (A1)
 The electronic state is 1-A1.
 Alpha  occ. eigenvalues --  -11.20789  -0.94651  -0.54645  -0.54645  -0.54645
 Alpha virt. eigenvalues --    0.09246   0.12219   0.12219   0.12219   0.33455
 Alpha virt. eigenvalues --    0.33455   0.33455   0.41748   0.84828   0.84828
 Alpha virt. eigenvalues --    0.84828   1.17349   1.17349   1.17349   1.31356
 Alpha virt. eigenvalues --    1.35683   1.62713   1.62713   2.35172   2.35172
 Alpha virt. eigenvalues --    2.35172   2.41643   2.41643   2.41643   2.96240
 Alpha virt. eigenvalues --    2.96240   2.96240   3.26516   3.26516   3.55186
 Alpha virt. eigenvalues --    3.80978   3.80978   3.80978   4.84351
          Condensed to atoms (all electrons):
              1          2          3          4          5
     1  C    4.927145   0.398949   0.398949   0.398949   0.398949
     2  H    0.398949   0.549798  -0.026494  -0.026494  -0.026494
     3  H    0.398949  -0.026494   0.549798  -0.026494  -0.026494
     4  H    0.398949  -0.026494  -0.026494   0.549798  -0.026494
     5  H    0.398949  -0.026494  -0.026494  -0.026494   0.549798
 Mulliken atomic charges:
              1
     1  C   -0.522940
     2  H    0.130735
     3  H    0.130735
     4  H    0.130735
     5  H    0.130735
 Sum of Mulliken atomic charges =   0.00000
 Mulliken charges with hydrogens summed into heavy atoms:
              1
     1  C    0.000000
 Sum of Mulliken charges with hydrogens summed into heavy atoms =   0.00000
 APT atomic charges:
              1
     1  C    0.061239
     2  H   -0.015310
     3  H   -0.015310
     4  H   -0.015310
     5  H   -0.015310
 Sum of APT charges=   0.00000
 APT Atomic charges with hydrogens summed into heavy atoms:
              1
     1  C    0.000000
     2  H    0.000000
     3  H    0.000000
     4  H    0.000000
     5  H    0.000000
 Sum of APT charges=   0.00000
 Electronic spatial extent (au):  <R**2>=             35.6443
 Charge=              0.0000 electrons
 Dipole moment (field-independent basis, Debye):
    X=              0.0000    Y=              0.0000    Z=              0.0000  Tot=              0.0000
 Quadrupole moment (field-independent basis, Debye-Ang):
   XX=             -8.4576   YY=             -8.4576   ZZ=             -8.4576
   XY=              0.0000   XZ=              0.0000   YZ=              0.0000
 Traceless Quadrupole moment (field-independent basis, Debye-Ang):
   XX=              0.0000   YY=              0.0000   ZZ=              0.0000
   XY=              0.0000   XZ=              0.0000   YZ=              0.0000
 Octapole moment (field-independent basis, Debye-Ang**2):
  XXX=              0.0000  YYY=              0.0000  ZZZ=              0.0000  XYY=              0.0000
  XXY=              0.0000  XXZ=              0.0000  XZZ=              0.0000  YZZ=              0.0000
  YYZ=              0.0000  XYZ=              0.6623
 Hexadecapole moment (field-independent basis, Debye-Ang**3):
 XXXX=            -16.5480 YYYY=            -16.5480 ZZZZ=            -16.5480 XXXY=              0.0000
 XXXZ=              0.0000 YYYX=              0.0000 YYYZ=              0.0000 ZZZX=              0.0000
 ZZZY=              0.0000 XXYY=             -5.0532 XXZZ=             -5.0532 YYZZ=             -5.0532
 XXYZ=              0.0000 YYXZ=              0.0000 ZZXY=              0.0000
 N-N= 1.351156088983D+01 E-N=-1.200159283251D+02  KE= 4.017602667831D+01
 Symmetry A    KE= 3.447745303233D+01
 Symmetry B1   KE= 1.899524548660D+00
 Symmetry B2   KE= 1.899524548660D+00
 Symmetry B3   KE= 1.899524548660D+00
  Exact polarizability:  13.022   0.000  13.022   0.000   0.000  13.022
 Approx polarizability:  10.371   0.000  10.371   0.000   0.000  10.371
 Calling FoFJK, ICntrl=    100127 FMM=F ISym2X=1 I1Cent= 0 IOpClX= 0 NMat=1 NMatS=1 NMatT=0.
 Full mass-weighted force constant matrix:
 Low frequencies ---   -1.2636   -1.2636   -1.2636   -0.0013   -0.0011   -0.0008
 Low frequencies --- 1462.5041 1462.5041 1462.5041
 Diagonal vibrational polarizability:
        0.2549812       0.2549812       0.2549812
 Diagonal vibrational hyperpolarizability:
        0.0000000       0.0000000       0.0000000
 Harmonic frequencies (cm**-1), IR intensities (KM/Mole), Raman scattering
 activities (A**4/AMU), depolarization ratios for plane and unpolarized
 incident light, reduced masses (AMU), force constants (mDyne/A),
 and normal coordinates:
                     1                      2                      3
                    T2                     T2                     T2
 Frequencies --  1462.5041              1462.5041              1462.5041
 Red. masses --     1.1787                 1.1787                 1.1787
 Frc consts  --     1.4854                 1.4854                 1.4854
 IR Inten    --    12.2066                12.2066                12.2066
 Raman Activ --     1.3133                 1.3133                 1.3133
 Depolar (P) --     0.7500                 0.7500                 0.7500
 Depolar (U) --     0.8571                 0.8571                 0.8571
  Atom  AN      X      Y      Z        X      Y      Z        X      Y      Z
     1   6     0.10  -0.04  -0.06    -0.01   0.09  -0.08     0.07   0.07   0.07
     2   1    -0.49   0.19   0.30     0.07  -0.46   0.39     0.05   0.05   0.05
     3   1    -0.26   0.42   0.07     0.37  -0.15   0.09    -0.21  -0.21  -0.48
     4   1    -0.34   0.04   0.45    -0.29  -0.10   0.04    -0.21  -0.48  -0.21
     5   1    -0.11  -0.19  -0.08     0.01  -0.41   0.44    -0.48  -0.21  -0.21
                     4                      5                      6
                     E                      E                     A1
 Frequencies --  1674.3287              1674.3287              3169.1148
 Red. masses --     1.0078                 1.0078                 1.0078
 Frc consts  --     1.6646                 1.6646                 5.9636
 IR Inten    --     0.0000                 0.0000                 0.0000
 Raman Activ --    19.5108                19.5108               158.4948
 Depolar (P) --     0.7500                 0.7500                 0.0000
 Depolar (U) --     0.8571                 0.8571                 0.0000
  Atom  AN      X      Y      Z        X      Y      Z        X      Y      Z
     1   6     0.00   0.00   0.00     0.00   0.00   0.00     0.00   0.00   0.00
     2   1    -0.38   0.06   0.32    -0.15   0.40  -0.25    -0.29  -0.29  -0.29
     3   1     0.38  -0.06   0.32     0.15  -0.40  -0.25     0.29   0.29  -0.29
     4   1     0.38   0.06  -0.32     0.15   0.40   0.25     0.29  -0.29   0.29
     5   1    -0.38  -0.06  -0.32    -0.15  -0.40   0.25    -0.29   0.29   0.29
                     7                      8                      9
                    T2                     T2                     T2
 Frequencies --  3276.5013              3276.5013              3276.5013
 Red. masses --     1.1019                 1.1019                 1.1019
 Frc consts  --     6.9698                 6.9698                 6.9698
 IR Inten    --    40.4513                40.4513                40.4513
 Raman Activ --    69.9208                69.9208                69.9208
 Depolar (P) --     0.7500                 0.7500                 0.7500
 Depolar (U) --     0.8571                 0.8571                 0.8571
  Atom  AN      X      Y      Z        X      Y      Z        X      Y      Z
     1   6    -0.05  -0.05  -0.05    -0.05  -0.02   0.07     0.05  -0.07   0.02
     2   1     0.50   0.50   0.50    -0.01  -0.01   0.01     0.01  -0.02   0.00
     3   1     0.16   0.16  -0.18     0.45   0.46  -0.44     0.14   0.12  -0.13
     4   1     0.15  -0.17   0.15    -0.13   0.11  -0.10    -0.46   0.45  -0.46
     5   1    -0.18   0.16   0.16     0.33  -0.35  -0.33    -0.32   0.32   0.34

 -------------------
 - Thermochemistry -
 -------------------
 Temperature   298.150 Kelvin.  Pressure   1.00000 Atm.
 Atom     1 has atomic number  6 and mass  12.00000
 Atom     2 has atomic number  1 and mass   1.00783
 Atom     3 has atomic number  1 and mass   1.00783
 Atom     4 has atomic number  1 and mass   1.00783
 Atom     5 has atomic number  1 and mass   1.00783
 Molecular mass:    16.03130 amu.
 Principal axes and moments of inertia in atomic units:
                           1         2         3
     Eigenvalues --    11.27442  11.27442  11.27442
           X            0.48688   0.84787  -0.20992
           Y            0.85436  -0.51227  -0.08747
           Z            0.18170   0.13676   0.97380
 This molecule is a spherical top.
 Rotational symmetry number 12.
 Rotational temperatures (Kelvin)      7.68233     7.68233     7.68233
 Rotational constants (GHZ):         160.07403   160.07403   160.07403
 Zero-point vibrational energy     124021.6 (Joules/Mol)
                                   29.64187 (Kcal/Mol)
 Vibrational temperatures:   2104.21  2104.21  2104.21  2408.98  2408.98
          (Kelvin)           4559.64  4714.15  4714.15  4714.15
 
 Zero-point correction=                           0.047237 (Hartree/Particle)
 Thermal correction to Energy=                    0.050092
 Thermal correction to Enthalpy=                  0.051036
 Thermal correction to Gibbs Free Energy=         0.029940
 Sum of electronic and zero-point Energies=            -40.154894
 Sum of electronic and thermal Energies=               -40.152039
 Sum of electronic and thermal Enthalpies=             -40.151095
 Sum of electronic and thermal Free Energies=          -40.172191
 
                     E (Thermal)             CV                S
                      KCal/Mol        Cal/Mol-Kelvin    Cal/Mol-Kelvin
 Total                   31.433              6.298             44.400
 Electronic               0.000              0.000              0.000
 Translational            0.889              2.981             34.261
 Rotational               0.889              2.981             10.086
 Vibrational             29.656              0.337              0.053
                       Q            Log10(Q)             Ln(Q)
 Total Bot       0.169236D-13        -13.771508        -31.710069
 Total V=0       0.903870D+08          7.956106         18.319611
 Vib (Bot)       0.187835D-21        -21.726222        -50.026476
 Vib (V=0)       0.100321D+01          0.001391          0.003204
 Electronic      0.100000D+01          0.000000          0.000000
 Translational   0.252295D+07          6.401908         14.740939
 Rotational      0.357113D+02          1.552806          3.575469
 ***** Axes restored to original set *****
 -------------------------------------------------------------------
 Center     Atomic                   Forces (Hartrees/Bohr)
 Number     Number              X              Y              Z
 -------------------------------------------------------------------
      1        6           0.000000000    0.000000000    0.000000000
      2        1           0.000000042   -0.000000118    0.000000000
      3        1           0.000000042    0.000000059    0.000000102
      4        1           0.000000042    0.000000059   -0.000000102
      5        1          -0.000000125    0.000000000    0.000000000
 -------------------------------------------------------------------
 Cartesian Forces:  Max     0.000000125 RMS     0.000000065

 GradGradGradGradGradGradGradGradGradGradGradGradGradGradGradGradGradGrad
 Berny optimization.
 Internal  Forces:  Max     0.000000125 RMS     0.000000067
 Search for a local minimum.
 Step number   1 out of a maximum of    2
 All quantities printed in internal units (Hartrees-Bohrs-Radians)
 Second derivative matrix not updated -- analytic derivatives used.
 The second derivative matrix:
                          R1        R2        R3        R4        A1
           R1           0.37461
           R2           0.00281   0.37461
           R3           0.00281   0.00281   0.37461
           R4           0.00281   0.00281   0.00281   0.37461
           A1           0.00208   0.00208  -0.00130  -0.00285   0.02228
           A2           0.00325  -0.00084   0.00362  -0.00603  -0.00973
           A3           0.00636  -0.00510  -0.00565   0.00439  -0.01471
           A4          -0.00084   0.00325   0.00362  -0.00603  -0.00973
           A5          -0.00510   0.00636  -0.00565   0.00439  -0.01471
           A6          -0.00574  -0.00574   0.00536   0.00613   0.02660
           D1          -0.00402  -0.00402  -0.00284   0.01088  -0.01536
           D2           0.00331   0.00331  -0.00851   0.00189   0.00927
           D3          -0.00436   0.00767  -0.00426   0.00095   0.00464
           D4          -0.00767   0.00436   0.00426  -0.00095  -0.00464
                          A2        A3        A4        A5        A6
           A2           0.04215
           A3          -0.02553   0.08234
           A4          -0.00207   0.02748   0.04215
           A5           0.02748  -0.03967  -0.02553   0.08234
           A6          -0.03230  -0.02992  -0.03230  -0.02992   0.09783
           D1          -0.01263   0.01682  -0.01263   0.01682   0.00698
           D2          -0.01073   0.00812  -0.01073   0.00812  -0.00406
           D3          -0.01621  -0.00084   0.00549   0.00896  -0.00203
           D4          -0.00549  -0.00896   0.01621   0.00084   0.00203
                          D1        D2        D3        D4
           D1           0.03428
           D2           0.00178   0.02130
           D3           0.00089   0.01065   0.02161
           D4          -0.00089  -0.01065   0.01096   0.02161
     Eigenvalues ---    0.04366   0.04924   0.07500   0.14816   0.14857
     Eigenvalues ---    0.37278   0.37279   0.37309   0.383051000.00000
     Eigenvalues --- 1000.000001000.000001000.000001000.00000
 Angle between quadratic step and forces=  90.00 degrees.
 Linear search not attempted -- first point.
 Iteration  1 RMS(Cart)=  0.00000017 RMS(Int)=  0.00000000
 ClnCor:  largest displacement from symmetrization is 1.72D-14 for atom     4.
 Variable       Old X    -DE/DX   Delta X   Delta X   Delta X     New X
                                 (Linear)    (Quad)   (Total)
    R1        2.04819   0.00000   0.00000   0.00000   0.00000   2.04819
    R2        2.04819   0.00000   0.00000   0.00000   0.00000   2.04819
    R3        2.04819   0.00000   0.00000   0.00000   0.00000   2.04819
    R4        2.04819   0.00000   0.00000   0.00000   0.00000   2.04819
    A1        1.91063   0.00000   0.00000   0.00000   0.00000   1.91063
    A2        1.91063   0.00000   0.00000   0.00000   0.00000   1.91063
    A3        1.91063   0.00000   0.00000   0.00000   0.00000   1.91063
    A4        1.91063   0.00000   0.00000   0.00000   0.00000   1.91063
    A5        1.91063   0.00000   0.00000   0.00000   0.00000   1.91063
    A6        1.91063   0.00000   0.00000   0.00000   0.00000   1.91063
    D1       -2.09440   0.00000   0.00000   0.00000   0.00000  -2.09440
    D2        2.09440   0.00000   0.00000   0.00000   0.00000   2.09440
    D3       -2.09440   0.00000   0.00000   0.00000   0.00000  -2.09440
    D4        2.09440   0.00000   0.00000   0.00000   0.00000   2.09440
         Item               Value     Threshold  Converged?
 Maximum Force            0.000000     0.000450     YES
 RMS     Force            0.000000     0.000300     YES
 Maximum Displacement     0.000000     0.001800     YES
 RMS     Displacement     0.000000     0.001200     YES
 Predicted change in Energy=-8.174591D-14
 Optimization completed.
    -- Stationary point found.
                           ----------------------------
                           !   Optimized Parameters   !
                           ! (Angstroms and Degrees)  !
 --------------------------                            --------------------------
 ! Name  Definition              Value          Derivative Info.                !
 --------------------------------------------------------------------------------
 ! R1    R(1,2)                  1.0839         -DE/DX =    0.0                 !
 ! R2    R(1,3)                  1.0839         -DE/DX =    0.0                 !
 ! R3    R(1,4)                  1.0839         -DE/DX =    0.0                 !
 ! R4    R(1,5)                  1.0839         -DE/DX =    0.0                 !
 ! A1    A(2,1,3)              109.4712         -DE/DX =    0.0                 !
 ! A2    A(2,1,4)              109.4712         -DE/DX =    0.0                 !
 ! A3    A(2,1,5)              109.4712         -DE/DX =    0.0                 !
 ! A4    A(3,1,4)              109.4712         -DE/DX =    0.0                 !
 ! A5    A(3,1,5)              109.4712         -DE/DX =    0.0                 !
 ! A6    A(4,1,5)              109.4712         -DE/DX =    0.0                 !
 ! D1    D(2,1,4,3)           -120.0            -DE/DX =    0.0                 !
 ! D2    D(2,1,5,3)            120.0            -DE/DX =    0.0                 !
 ! D3    D(2,1,5,4)           -120.0            -DE/DX =    0.0                 !
 ! D4    D(3,1,5,4)            120.0            -DE/DX =    0.0                 !
 --------------------------------------------------------------------------------
 GradGradGradGradGradGradGradGradGradGradGradGradGradGradGradGradGradGrad

 1|1|UNPC-DESKTOP-319GPER|Freq|RHF|6-31+G(d,p)|C1H4|SAGAD|08-Oct-2020|0
 ||#N Geom=AllCheck Guess=TCheck SCRF=Check GenChk RHF/6-31+G(d,p) Freq
 ||Calculation of methane with HF||0,1|C,-5.60103382,1.036955126,-0.873
 651501|H,-5.2397611728,0.0150823554,-0.8736523742|H,-5.2397418802,1.54
 78844374,0.0113124857|H,-5.2397433038,1.5478854465,-1.7586154863|H,-6.
 6848889231,1.0369682646,-0.8736506292||Version=IA32W-G09RevA.02|State=
 1-A1|HF=-40.2021311|RMSD=1.136e-010|RMSF=6.461e-008|ZeroPoint=0.047237
 3|Thermal=0.0500918|Dipole=0.,0.,0.|DipoleDeriv=0.0612394,0.,0.,0.,0.0
 612394,0.,0.,0.,0.0612394,0.0390493,0.0768705,0.,0.0768705,-0.1512049,
 -0.0000002,0.,-0.0000002,0.0662261,0.0390464,-0.0384368,-0.0665751,-0.
 0384368,0.0118699,-0.0941487,-0.0665751,-0.0941487,-0.0968458,0.039046
 6,-0.0384367,0.0665748,-0.0384367,0.0118696,0.0941489,0.0665748,0.0941
 489,-0.0968458,-0.1783817,0.000003,0.0000002,0.000003,0.0662261,0.,0.0
 000002,0.,0.0662261|Polar=13.0223295,0.,13.0223295,0.,0.,13.0223295|Po
 larDeriv=6.5368091,-0.0001585,-3.2683484,-0.0000105,-0.0000037,-3.2684
 604,-0.0001588,-3.2683485,4.6223405,-0.0000037,0.0000105,-4.6221827,-0
 .0000105,-0.0000037,0.0000105,-3.2684605,-4.6221824,0.,1.0480061,-2.43
 37549,1.7783855,-0.0000009,0.0000015,0.5375361,-0.9641166,2.2979611,-8
 .522903,0.0000015,-0.0000058,-0.0279715,0.0000003,0.0000015,-0.0000046
 ,1.0571116,-1.4976099,-0.0000039,1.0481162,1.2169096,0.8477573,2.10774
 11,0.5373281,1.4682338,0.4821006,1.3673606,2.198991,0.5373281,2.487654
 2,2.0763381,0.8350024,0.5373281,1.2149155,1.9878372,2.8111471,6.190270
 9,1.0481081,1.2169103,0.8477565,-2.1077358,-0.5373263,1.4682294,0.4820
 999,1.3673578,2.198998,-0.5373263,-2.4876595,2.0763412,-0.8349971,-0.5
 373263,-1.2149208,1.9878307,2.8111517,-6.1902709,-9.68104,0.0000935,-0
 .2055505,0.0000062,0.0000004,-0.2055385,0.0000746,-1.7643307,-0.497427
 2,0.0000004,0.0000006,0.497475,0.0000049,0.0000004,-0.0000007,-1.76431
 86,0.4974939,0.0000039|HyperPolar=-21.9654558,0.0005325,10.9825396,-15
 .5323222,0.0000353,0.0000125,-0.0000354,10.9829162,15.5317897,0.|PG=TD
  [O(C1),4C3(H1)]|NImag=0||0.60815490,0.,0.60815490,0.,0.,0.60815490,-0
 .08745060,0.09133553,0.00000008,0.08809929,0.09133553,-0.31350572,-0.0
 0000022,-0.10129118,0.33879459,0.00000008,-0.00000022,-0.05515986,-0.0
 0000009,0.00000024,0.05228883,-0.08745405,-0.04566957,-0.07910278,0.00
 447688,0.00518289,0.01221526,0.08810311,-0.04566957,-0.11974453,-0.111
 86501,-0.01317084,-0.01418672,-0.02902231,0.05064759,0.12391329,-0.079
 10278,-0.11186501,-0.24891759,0.00161909,0.00094929,0.00202100,0.08772
 504,0.12405839,0.26716631,-0.08745379,-0.04566948,0.07910246,0.0044768
 6,0.00518290,-0.01221526,0.00447716,0.00798755,-0.01059672,0.08810283,
 -0.04566948,-0.11974479,0.11186523,-0.01317079,-0.01418676,0.02902231,
 0.00798752,0.01012477,-0.01498560,0.05064749,0.12391357,0.07910246,0.1
 1186523,-0.24891759,-0.00161911,-0.00094931,0.00202105,0.01059668,0.01
 498563,-0.02229077,-0.08772469,-0.12405863,0.26716631,-0.34579646,0.00
 000352,0.00000023,-0.00960243,-0.00041015,0.,-0.00960310,0.00020527,0.
 00035536,-0.00960305,0.00020526,-0.00035534,0.37460505,0.00000352,-0.0
 5515986,0.,0.03629728,0.00308461,-0.00000003,-0.01814843,-0.00010679,0
 .00184294,-0.01814847,-0.00010679,-0.00184292,-0.00000391,0.05228883,0
 .00000023,0.,-0.05515986,0.00000003,0.,-0.00117103,-0.03143421,0.00184
 331,0.00202105,0.03143421,-0.00184332,0.00202100,-0.00000026,0.,0.0522
 8883||0.,0.,0.,-0.00000004,0.00000012,0.,-0.00000004,-0.00000006,-0.00
 000010,-0.00000004,-0.00000006,0.00000010,0.00000013,0.,0.|||@



 IN THIS SHORT LIFE

 THAT ONLY LASTS AN HOUR

 HOW MUCH, HOW LITTLE, IS WITHIN OUR POWER....


 EMILY DICKINSON BOLTS OF MELODY NO. 521
 Job cpu time:  0 days  0 hours  0 minutes  4.0 seconds.
 File lengths (MBytes):  RWF=      5 Int=      0 D2E=      0 Chk=      1 Scr=      1
 Normal termination of Gaussian 09 at Thu Oct 08 01:21:02 2020.
