 Entering Link 1 = C:\G09W\l1.exe PID=     10780.
  
 Copyright (c) 1988,1990,1992,1993,1995,1998,2003,2009, Gaussian, Inc.
                  All Rights Reserved.
  
 This is part of the Gaussian(R) 09 program.  It is based on
 the Gaussian(R) 03 system (copyright 2003, Gaussian, Inc.),
 the Gaussian(R) 98 system (copyright 1998, Gaussian, Inc.),
 the Gaussian(R) 94 system (copyright 1995, Gaussian, Inc.),
 the Gaussian 92(TM) system (copyright 1992, Gaussian, Inc.),
 the Gaussian 90(TM) system (copyright 1990, Gaussian, Inc.),
 the Gaussian 88(TM) system (copyright 1988, Gaussian, Inc.),
 the Gaussian 86(TM) system (copyright 1986, Carnegie Mellon
 University), and the Gaussian 82(TM) system (copyright 1983,
 Carnegie Mellon University). Gaussian is a federally registered
 trademark of Gaussian, Inc.
  
 This software contains proprietary and confidential information,
 including trade secrets, belonging to Gaussian, Inc.
  
 This software is provided under written license and may be
 used, copied, transmitted, or stored only in accord with that
 written license.
  
 The following legend is applicable only to US Government
 contracts under FAR:
  
                    RESTRICTED RIGHTS LEGEND
  
 Use, reproduction and disclosure by the US Government is
 subject to restrictions as set forth in subparagraphs (a)
 and (c) of the Commercial Computer Software - Restricted
 Rights clause in FAR 52.227-19.
  
 Gaussian, Inc.
 340 Quinnipiac St., Bldg. 40, Wallingford CT 06492
  
  
 ---------------------------------------------------------------
 Warning -- This program may not be used in any manner that
 competes with the business of Gaussian, Inc. or will provide
 assistance to any competitor of Gaussian, Inc.  The licensee
 of this program is prohibited from giving any competitor of
 Gaussian, Inc. access to this program.  By using this program,
 the user acknowledges that Gaussian, Inc. is engaged in the
 business of creating and licensing software in the field of
 computational chemistry and represents and warrants to the
 licensee that it is not a competitor of Gaussian, Inc. and that
 it will not use this program in any manner prohibited above.
 ---------------------------------------------------------------
  

 Cite this work as:
 Gaussian 09, Revision A.02,
 M. J. Frisch, G. W. Trucks, H. B. Schlegel, G. E. Scuseria, 
 M. A. Robb, J. R. Cheeseman, G. Scalmani, V. Barone, B. Mennucci, 
 G. A. Petersson, H. Nakatsuji, M. Caricato, X. Li, H. P. Hratchian, 
 A. F. Izmaylov, J. Bloino, G. Zheng, J. L. Sonnenberg, M. Hada, 
 M. Ehara, K. Toyota, R. Fukuda, J. Hasegawa, M. Ishida, T. Nakajima, 
 Y. Honda, O. Kitao, H. Nakai, T. Vreven, J. A. Montgomery, Jr., 
 J. E. Peralta, F. Ogliaro, M. Bearpark, J. J. Heyd, E. Brothers, 
 K. N. Kudin, V. N. Staroverov, R. Kobayashi, J. Normand, 
 K. Raghavachari, A. Rendell, J. C. Burant, S. S. Iyengar, J. Tomasi, 
 M. Cossi, N. Rega, J. M. Millam, M. Klene, J. E. Knox, J. B. Cross, 
 V. Bakken, C. Adamo, J. Jaramillo, R. Gomperts, R. E. Stratmann, 
 O. Yazyev, A. J. Austin, R. Cammi, C. Pomelli, J. W. Ochterski, 
 R. L. Martin, K. Morokuma, V. G. Zakrzewski, G. A. Voth, 
 P. Salvador, J. J. Dannenberg, S. Dapprich, A. D. Daniels, 
 O. Farkas, J. B. Foresman, J. V. Ortiz, J. Cioslowski, 
 and D. J. Fox, Gaussian, Inc., Wallingford CT, 2009.
 
 ******************************************
 Gaussian 09:  IA32W-G09RevA.02 11-Jun-2009
                08-Feb-2021 
 ******************************************
 %chk=D:\Documents\rayGit\FQ\quimicaComputacional\proyecto\decompositionHydrogenP
 eroxide\descompositionByRadicals\gasPhase\step3\ts\Q2\tsM062X.chk
 %mem=1500mb
 %nproc=4
 Will use up to    4 processors via shared memory.
 ----------------------------------------------------------------
 # opt=(calcfc,qst2,maxcycles=100) freq=noraman m062x/6-31+g(d,p)
 ----------------------------------------------------------------
 1/5=1,6=100,10=4,14=-1,18=20,26=3,27=202,38=1/1,3;
 2/9=110,12=2,17=6,18=5,40=1/2;
 3/5=1,6=6,7=111,11=2,16=1,25=1,30=1,71=2,74=-55/1,2,3;
 4//1;
 5/5=2,38=5/2;
 8/6=4,10=90,11=11/1;
 11/6=1,8=1,9=11,15=111,16=1/1,2,10;
 10/6=1,7=6,13=1/2;
 6/7=2,8=2,9=2,10=2,28=1/1;
 7/10=1,18=20,25=1/1,2,3,16;
 1/5=1,6=100,10=4,14=-1,18=20,27=202/3(2);
 2/9=110/2;
 99//99;
 2/9=110/2;
 3/5=1,6=6,7=111,11=2,16=1,25=1,30=1,71=1,74=-55/1,2,3;
 4/5=5,16=3/1;
 5/5=2,38=5/2;
 7//1,2,3,16;
 1/5=1,6=100,14=-1,18=20,27=202/3(-5);
 2/9=110/2;
 6/7=2,8=2,9=2,10=2,19=2,28=1/1;
 99/9=1/99;
 ---------
 reactives
 ---------
 Symbolic Z-matrix:
 Charge =  0 Multiplicity = 1
 O                    -0.65177  -0.0075    0. 
 H                    -0.97222  -0.0075   -0.90494 
 O                     0.66823  -0.0075    0. 
 H                     1.3149    1.82155   0. 
 O                     1.6349    2.72665   0. 
 O                     2.9549    2.72665   0. 
 
 --------
 products
 --------
 Symbolic Z-matrix:
 Charge =  0 Multiplicity = 1
 O                    -0.65177  -0.0075    0. 
 H                    -0.97222  -0.0075   -0.90494 
 O                     0.66823  -0.0075    0. 
 H                     0.98823   0.8976    0. 
 O                     1.6349    2.72665   0. 
 O                     2.9549    2.72665   0. 
 
 Iteration  1 RMS(Cart)=  0.05253409 RMS(Int)=  0.29637549
 Iteration  2 RMS(Cart)=  0.05253041 RMS(Int)=  0.21472640
 Iteration  3 RMS(Cart)=  0.05253022 RMS(Int)=  0.13307712
 Iteration  4 RMS(Cart)=  0.05252938 RMS(Int)=  0.05142776
 Iteration  5 RMS(Cart)=  0.03308669 RMS(Int)=  0.00006528
 Iteration  6 RMS(Cart)=  0.00004653 RMS(Int)=  0.00000000
 Iteration  7 RMS(Cart)=  0.00000000 RMS(Int)=  0.00000000

 GradGradGradGradGradGradGradGradGradGradGradGradGradGradGradGradGradGrad
 Berny optimization.
 Initialization pass.
                           ----------------------------
                           !    Initial Parameters    !
                           ! (Angstroms and Degrees)  !
 --------------------------                            --------------------------
 ! Name  Definition        TS        Reactant  Product Derivative Info.         !
 --------------------------------------------------------------------------------
 ! R1    R(1,2)             0.96      0.96      0.96   calculate D2E/DX2 analyti!
 ! R2    R(1,3)             1.32      1.32      1.32   calculate D2E/DX2 analyti!
 ! R3    R(3,4)             1.45      1.94      0.96   calculate D2E/DX2 analyti!
 ! R4    R(4,5)             1.45      0.96      1.94   calculate D2E/DX2 analyti!
 ! R5    R(5,6)             1.32      1.32      1.32   calculate D2E/DX2 analyti!
 ! A1    A(2,1,3)         109.5     109.5     109.5    calculate D2E/DX2 analyti!
 ! A2    A(1,3,4)         109.4712  109.4712  109.4712 calculate D2E/DX2 analyti!
 ! A3    A(4,5,6)         109.4712  109.4712  109.4712 calculate D2E/DX2 analyti!
 ! A4    L(3,4,5,6,-1)    180.0     180.0     180.0    calculate D2E/DX2 analyti!
 ! A5    L(3,4,5,6,-2)    180.0     180.0     180.0    calculate D2E/DX2 analyti!
 ! D1    D(2,1,3,4)        90.0      90.0      90.0    calculate D2E/DX2 analyti!
 ! D2    D(1,3,5,6)       180.0     180.0     180.0    calculate D2E/DX2 analyti!
 --------------------------------------------------------------------------------
 Trust Radius=3.00D-01 FncErr=1.00D-07 GrdErr=1.00D-06
 Number of steps in this run= 100 maximum allowed number of steps= 100.
 Search for a saddle point of order  1.
 GradGradGradGradGradGradGradGradGradGradGradGradGradGradGradGradGradGrad

                          Input orientation:                          
 ---------------------------------------------------------------------
 Center     Atomic      Atomic             Coordinates (Angstroms)
 Number     Number       Type             X           Y           Z
 ---------------------------------------------------------------------
      1          8           0       -0.619927    0.064203    0.004178
      2          1           0       -0.934170    0.051482   -0.902845
      3          8           0        0.700026    0.070803    0.013142
      4          1           0        1.176622    1.440172   -0.000418
      5          8           0        1.653218    2.809541   -0.013978
      6          8           0        2.973171    2.816141   -0.005014
 ---------------------------------------------------------------------
                    Distance matrix (angstroms):
                    1          2          3          4          5
     1  O    0.000000
     2  H    0.960000   0.000000
     3  O    1.320000   1.873499   0.000000
     4  H    2.262941   2.682960   1.450000   0.000000
     5  O    3.564323   3.884784   2.900000   1.450000   0.000000
     6  O    4.525881   4.869984   3.564323   2.262941   1.320000
                    6
     6  O    0.000000
 Stoichiometry    H2O4
 Framework group  C1[X(H2O4)]
 Deg. of freedom    12
 Full point group                 C1      NOp   1
 Largest Abelian subgroup         C1      NOp   1
 Largest concise Abelian subgroup C1      NOp   1
                         Standard orientation:                         
 ---------------------------------------------------------------------
 Center     Atomic      Atomic             Coordinates (Angstroms)
 Number     Number       Type             X           Y           Z
 ---------------------------------------------------------------------
      1          8           0       -2.166245   -0.302466   -0.088313
      2          1           0       -2.408575   -0.589621    0.795100
      3          8           0       -1.239469    0.634078   -0.008487
      4          1           0        0.072987    0.017867   -0.024094
      5          8           0        1.385443   -0.598343   -0.039701
      6          8           0        2.312220    0.338200    0.040125
 ---------------------------------------------------------------------
 Rotational constants (GHZ):     30.4906508      2.2722084      2.1283967
 Standard basis: 6-31+G(d,p) (6D, 7F)
 There are    86 symmetry adapted basis functions of A   symmetry.
 Integral buffers will be    262144 words long.
 Raffenetti 2 integral format.
 Two-electron integral symmetry is turned on.
    86 basis functions,   142 primitive gaussians,    86 cartesian basis functions
    17 alpha electrons       17 beta electrons
       nuclear repulsion energy       107.8855286458 Hartrees.
 NAtoms=    6 NActive=    6 NUniq=    6 SFac= 7.50D-01 NAtFMM=   80 NAOKFM=F Big=F
 One-electron integrals computed using PRISM.
 NBasis=    86 RedAO= T  NBF=    86
 NBsUse=    86 1.00D-06 NBFU=    86
 Harris functional with IExCor= 1009 diagonalized for initial guess.
 ExpMin= 8.45D-02 ExpMax= 5.48D+03 ExpMxC= 8.25D+02 IAcc=2 IRadAn=         0 AccDes= 0.00D+00
 HarFok:  IExCor= 1009 AccDes= 0.00D+00 IRadAn=         0 IDoV= 1
 ScaDFX=  1.000000  1.000000  1.000000  1.000000
 FoFCou: FMM=F IPFlag=           0 FMFlag=      100000 FMFlg1=           0
         NFxFlg=           0 DoJE=T BraDBF=F KetDBF=T FulRan=T
         Omega=  0.000000  0.000000  1.000000  0.000000  0.000000 ICntrl=     500 IOpCl=  0
         NMat0=    1 NMatS0=    1 NMatT0=    0 NMatD0=    1 NMtDS0=    0 NMtDT0=    0
         I1Cent=           4 NGrid=           0.
 Petite list used in FoFCou.
 Initial guess orbital symmetries:
       Occupied  (A) (A) (A) (A) (A) (A) (A) (A) (A) (A) (A) (A)
                 (A) (A) (A) (A) (A)
       Virtual   (A) (A) (A) (A) (A) (A) (A) (A) (A) (A) (A) (A)
                 (A) (A) (A) (A) (A) (A) (A) (A) (A) (A) (A) (A)
                 (A) (A) (A) (A) (A) (A) (A) (A) (A) (A) (A) (A)
                 (A) (A) (A) (A) (A) (A) (A) (A) (A) (A) (A) (A)
                 (A) (A) (A) (A) (A) (A) (A) (A) (A) (A) (A) (A)
                 (A) (A) (A) (A) (A) (A) (A) (A) (A)
 The electronic state of the initial guess is 1-A.
 Requested convergence on RMS density matrix=1.00D-08 within 128 cycles.
 Requested convergence on MAX density matrix=1.00D-06.
 Requested convergence on             energy=1.00D-06.
 No special actions if energy rises.
 Keep R1 ints in memory in canonical form, NReq=7993047.
 Integral accuracy reduced to 1.0D-05 until final iterations.
 EnCoef did     5 forward-backward iterations
 Initial convergence to 1.0D-05 achieved.  Increase integral accuracy.
 Rare condition: small coef for last iteration:  0.000D+00
 EnCoef did   100 forward-backward iterations
 Rare condition: small coef for last iteration:  0.212D-17
 SCF Done:  E(RM062X) =  -301.586045791     A.U. after   32 cycles
             Convg  =    0.4024D-08             -V/T =  2.0094
 Range of M.O.s used for correlation:     1    86
 NBasis=    86 NAE=    17 NBE=    17 NFC=     0 NFV=     0
 NROrb=     86 NOA=    17 NOB=    17 NVA=    69 NVB=    69

 **** Warning!!: The largest alpha MO coefficient is  0.16766245D+02


 **** Warning!!: The smallest alpha delta epsilon is  0.79598947D-01

 Symmetrizing basis deriv contribution to polar:
 IMax=3 JMax=2 DiffMx= 0.00D+00
 G2DrvN: will do     7 centers at a time, making    1 passes doing MaxLOS=2.
 Calling FoFCou, ICntrl=  3107 FMM=F I1Cent=   0 AccDes= 0.00D+00.
 FoFDir/FoFCou used for L=0 through L=2.
 End of G2Drv Frequency-dependent properties file   721 does not exist.
 End of G2Drv Frequency-dependent properties file   722 does not exist.
          IDoAtm=111111
          Differentiating once with respect to nuclear coordinates.
          Keep R1 ints in memory in canonical form, NReq=7820771.
          There are    21 degrees of freedom in the 1st order CPHF.  IDoFFX=5.
     15 vectors produced by pass  0 Test12= 5.59D-11 4.76D-07 XBig12= 1.40D-01 2.85D-01.
 AX will form    15 AO Fock derivatives at one time.
     15 vectors produced by pass  1 Test12= 5.59D-11 4.76D-07 XBig12= 1.33D-02 7.81D-02.
     15 vectors produced by pass  2 Test12= 5.59D-11 4.76D-07 XBig12= 3.00D-04 9.45D-03.
     15 vectors produced by pass  3 Test12= 5.59D-11 4.76D-07 XBig12= 5.03D-06 8.87D-04.
     15 vectors produced by pass  4 Test12= 5.59D-11 4.76D-07 XBig12= 6.34D-08 5.77D-05.
     12 vectors produced by pass  5 Test12= 5.59D-11 4.76D-07 XBig12= 5.08D-10 4.12D-06.
 Inverted reduced A of dimension    87 with in-core refinement.
 End of Minotr Frequency-dependent properties file   721 does not exist.
 End of Minotr Frequency-dependent properties file   722 does not exist.

 **********************************************************************

            Population analysis using the SCF density.

 **********************************************************************

 Orbital symmetries:
       Occupied  (A) (A) (A) (A) (A) (A) (A) (A) (A) (A) (A) (A)
                 (A) (A) (A) (A) (A)
       Virtual   (A) (A) (A) (A) (A) (A) (A) (A) (A) (A) (A) (A)
                 (A) (A) (A) (A) (A) (A) (A) (A) (A) (A) (A) (A)
                 (A) (A) (A) (A) (A) (A) (A) (A) (A) (A) (A) (A)
                 (A) (A) (A) (A) (A) (A) (A) (A) (A) (A) (A) (A)
                 (A) (A) (A) (A) (A) (A) (A) (A) (A) (A) (A) (A)
                 (A) (A) (A) (A) (A) (A) (A) (A) (A)
 The electronic state is 1-A.
 Alpha  occ. eigenvalues --  -19.89955 -19.89137 -19.67888 -19.67738  -1.41086
 Alpha  occ. eigenvalues --   -1.26355  -1.02590  -0.92564  -0.68795  -0.65906
 Alpha  occ. eigenvalues --   -0.62027  -0.59603  -0.52132  -0.49536  -0.45395
 Alpha  occ. eigenvalues --   -0.32134  -0.30345
 Alpha virt. eigenvalues --   -0.22385   0.02841   0.05234   0.08720   0.11102
 Alpha virt. eigenvalues --    0.11825   0.15959   0.16404   0.17033   0.17122
 Alpha virt. eigenvalues --    0.18970   0.20904   0.21485   0.23537   0.24784
 Alpha virt. eigenvalues --    0.27176   0.28549   0.31868   0.33007   0.38813
 Alpha virt. eigenvalues --    0.41492   1.00057   1.02393   1.05497   1.06194
 Alpha virt. eigenvalues --    1.09598   1.10724   1.13802   1.15542   1.18680
 Alpha virt. eigenvalues --    1.20869   1.22811   1.23826   1.27489   1.29156
 Alpha virt. eigenvalues --    1.33807   1.37333   1.44319   1.45814   1.51865
 Alpha virt. eigenvalues --    1.53327   1.55915   1.60035   1.62101   1.68242
 Alpha virt. eigenvalues --    1.74872   1.78180   1.81721   1.88782   2.09816
 Alpha virt. eigenvalues --    2.17975   2.21969   2.25334   2.27728   2.32115
 Alpha virt. eigenvalues --    2.42864   2.48785   2.55266   2.65566   2.71337
 Alpha virt. eigenvalues --    2.98476   2.99672   3.10707   3.28805   3.45976
 Alpha virt. eigenvalues --    3.67211   3.90837   4.08238   4.30430
          Condensed to atoms (all electrons):
              1          2          3          4          5          6
     1  O    8.104066   0.253341   0.071607  -0.051793   0.020119  -0.005312
     2  H    0.253341   0.440912  -0.048711  -0.000913  -0.000523  -0.000075
     3  O    0.071607  -0.048711   8.183285   0.212653  -0.028776   0.013166
     4  H   -0.051793  -0.000913   0.212653   0.499866  -0.035992   0.010195
     5  O    0.020119  -0.000523  -0.028776  -0.035992   7.683542   0.350340
     6  O   -0.005312  -0.000075   0.013166   0.010195   0.350340   7.569678
 Mulliken atomic charges:
              1
     1  O   -0.392028
     2  H    0.355969
     3  O   -0.403223
     4  H    0.365984
     5  O    0.011290
     6  O    0.062008
 Sum of Mulliken atomic charges =   0.00000
 Mulliken charges with hydrogens summed into heavy atoms:
              1
     1  O   -0.036059
     3  O   -0.403223
     5  O    0.377274
     6  O    0.062008
 Sum of Mulliken charges with hydrogens summed into heavy atoms =   0.00000
 APT atomic charges:
              1
     1  O   -0.747940
     2  H    0.627802
     3  O   -0.351588
     4  H    0.392777
     5  O   -0.215957
     6  O    0.294906
 Sum of APT charges=   0.00000
 APT Atomic charges with hydrogens summed into heavy atoms:
              1
     1  O   -0.120138
     2  H    0.000000
     3  O   -0.351588
     4  H    0.000000
     5  O    0.176820
     6  O    0.294906
 Sum of APT charges=   0.00000
 Electronic spatial extent (au):  <R**2>=            488.1170
 Charge=              0.0000 electrons
 Dipole moment (field-independent basis, Debye):
    X=              3.1940    Y=             -1.6459    Z=              1.6554  Tot=              3.9562
 Quadrupole moment (field-independent basis, Debye-Ang):
   XX=            -22.5108   YY=            -24.1954   ZZ=            -21.1424
   XY=              3.1569   XZ=             -4.3036   YZ=             -1.2467
 Traceless Quadrupole moment (field-independent basis, Debye-Ang):
   XX=              0.1054   YY=             -1.5792   ZZ=              1.4738
   XY=              3.1569   XZ=             -4.3036   YZ=             -1.2467
 Octapole moment (field-independent basis, Debye-Ang**2):
  XXX=              8.4405  YYY=             -2.1121  ZZZ=              1.7228  XYY=              2.2268
  XXY=             -2.9487  XXZ=             10.9693  XZZ=              0.8527  YZZ=             -1.5492
  YYZ=              0.9620  XYZ=              2.7180
 Hexadecapole moment (field-independent basis, Debye-Ang**3):
 XXXX=           -460.1535 YYYY=            -53.1444 ZZZZ=            -18.4908 XXXY=             18.3597
 XXXZ=            -28.2753 YYYX=              4.2479 YYYZ=             -1.0896 ZZZX=             -4.3580
 ZZZY=             -1.2365 XXYY=            -85.9838 XXZZ=            -71.1331 YYZZ=            -11.6610
 XXYZ=             -7.0076 YYXZ=             -2.2839 ZZXY=              2.7173
 N-N= 1.078855286458D+02 E-N=-9.270806803423D+02  KE= 2.987920862446D+02
  Exact polarizability:   0.000   0.000   0.000   0.000   0.000   0.000
 Approx polarizability: 100.032   0.588  30.901   0.262  -0.119  18.023
 Calling FoFJK, ICntrl=    100147 FMM=F ISym2X=0 I1Cent= 0 IOpClX= 0 NMat=1 NMatS=1 NMatT=0.
 ***** Axes restored to original set *****
 -------------------------------------------------------------------
 Center     Atomic                   Forces (Hartrees/Bohr)
 Number     Number              X              Y              Z
 -------------------------------------------------------------------
      1        8          -0.076972234    0.005745935    0.016281115
      2        1           0.004407744   -0.001864675   -0.011111800
      3        8           0.107129927    0.085012281   -0.006937597
      4        1          -0.032283109   -0.086290687    0.001487770
      5        8           0.138366294   -0.000478673    0.000886166
      6        8          -0.140648622   -0.002124181   -0.000605654
 -------------------------------------------------------------------
 Cartesian Forces:  Max     0.140648622 RMS     0.063484419

 GradGradGradGradGradGradGradGradGradGradGradGradGradGradGradGradGradGrad
 Berny optimization.
 Internal  Forces:  Max     0.140671636 RMS     0.053646144
 Search for a saddle point.
 Step number   1 out of a maximum of  100
 All quantities printed in internal units (Hartrees-Bohrs-Radians)
 Second derivative matrix not updated -- analytic derivatives used.
 The second derivative matrix:
                          R1        R2        R3        R4        R5
           R1           0.54387
           R2           0.01128   0.56944
           R3          -0.00149   0.01891  -0.02284
           R4           0.00323   0.00058   0.02921  -0.03478
           R5          -0.00543   0.02288  -0.00649   0.05245   0.31518
           A1          -0.00396   0.07353  -0.00122   0.00771  -0.00514
           A2          -0.00117   0.05268  -0.01066   0.00433  -0.00890
           A3           0.00020  -0.00037   0.00100  -0.00455   0.01437
           A4          -0.00050   0.00425  -0.00044   0.00125  -0.00370
           A5          -0.00014  -0.00025   0.00020  -0.00073   0.00090
           D1          -0.00015   0.00235   0.00184   0.00173   0.00036
           D2          -0.00018   0.00090  -0.00002  -0.00020  -0.00260
                          A1        A2        A3        A4        A5
           A1           0.23121
           A2           0.00508   0.17495
           A3           0.00074  -0.01391   0.06966
           A4           0.00036   0.01201  -0.00079   0.01304
           A5          -0.00033   0.00062  -0.00035  -0.00033   0.00407
           D1           0.01017   0.01457  -0.00177  -0.00227  -0.00134
           D2          -0.00020   0.00036  -0.00018  -0.00099   0.00075
                          D1        D2
           D1           0.01920
           D2           0.00102   0.00401
 LST/QST climbing along tangent vector
     Eigenvalues ---   -0.05802  -0.00406   0.00306   0.00461   0.01105
     Eigenvalues ---    0.01931   0.06745   0.17025   0.21633   0.31948
     Eigenvalues ---    0.54234   0.59520
 Eigenvectors required to have negative eigenvalues:
                          R3        R4        A4        A3        A2
   1                    0.70711  -0.70711   0.00000   0.00000   0.00000
                          R5        D1        A1        A5        R1
   1                    0.00000   0.00000   0.00000   0.00000   0.00000
 QST in optimization variable space.
                        Tangent   TS vect  // Eig F  Eigenval
   1         R1         0.00000   0.00000  -0.06515  -0.05802
   2         R2         0.00000   0.00000  -0.02820  -0.00406
   3         R3        -0.70711   0.70711  -0.00164   0.00306
   4         R4         0.70711  -0.70711  -0.00045   0.00461
   5         R5         0.00000   0.00000  -0.00327   0.01105
   6         A1         0.00000   0.00000   0.00048   0.01931
   7         A2         0.00000   0.00000   0.00282   0.06745
   8         A3         0.00000   0.00000  -0.01724   0.17025
   9         A4         0.00000   0.00000  -0.01849   0.21633
  10         A5         0.00000   0.00000  -0.07312   0.31948
  11         D1         0.00000   0.00000   0.00152   0.54234
  12         D2         0.00000   0.00000   0.02770   0.59520
 RFO step:  Lambda0=4.230194315D-02 Lambda=-4.07914160D-02.
 Linear search not attempted -- option 19 set.
 Maximum step size (   0.300) exceeded in Quadratic search.
    -- Step size scaled by   0.293
 Iteration  1 RMS(Cart)=  0.07733942 RMS(Int)=  0.02701609
 Iteration  2 RMS(Cart)=  0.02889125 RMS(Int)=  0.00006320
 Iteration  3 RMS(Cart)=  0.00006734 RMS(Int)=  0.00000000
 Iteration  4 RMS(Cart)=  0.00000001 RMS(Int)=  0.00000000
 Variable       Old X    -DE/DX   Delta X   Delta X   Delta X     New X
                                 (Linear)    (Quad)   (Total)
    R1        1.81414   0.00894   0.00000   0.00171   0.00171   1.81584
    R2        2.49444   0.07260   0.00000   0.02715   0.02715   2.52159
    R3        2.74010  -0.09532   0.00000  -0.02371  -0.02371   2.71639
    R4        2.74010  -0.00319   0.00000  -0.29317  -0.29317   2.44694
    R5        2.49444  -0.14067   0.00000  -0.03976  -0.03976   2.45468
    A1        1.91114  -0.01374   0.00000  -0.01212  -0.01212   1.89901
    A2        1.91063  -0.00953   0.00000  -0.02116  -0.02116   1.88947
    A3        1.91063  -0.00346   0.00000  -0.00654  -0.00654   1.90409
    A4        3.14159   0.00019   0.00000   0.00324   0.00324   3.14483
    A5        3.14159   0.00035   0.00000   0.00128   0.00128   3.14287
    D1        1.57080   0.00277   0.00000   0.02222   0.02222   1.59302
    D2        3.14159  -0.00031   0.00000  -0.00506  -0.00506   3.13654
         Item               Value     Threshold  Converged?
 Maximum Force            0.140672     0.000450     NO 
 RMS     Force            0.053646     0.000300     NO 
 Maximum Displacement     0.179052     0.001800     NO 
 RMS     Displacement     0.105415     0.001200     NO 
 Predicted change in Energy=-1.148780D-02
 GradGradGradGradGradGradGradGradGradGradGradGradGradGradGradGradGradGrad

                          Input orientation:                          
 ---------------------------------------------------------------------
 Center     Atomic      Atomic             Coordinates (Angstroms)
 Number     Number       Type             X           Y           Z
 ---------------------------------------------------------------------
      1          8           0       -0.586300    0.114004    0.011298
      2          1           0       -0.895519    0.082592   -0.897950
      3          8           0        0.748064    0.116993    0.011977
      4          1           0        1.195375    1.482987   -0.003567
      5          8           0        1.594321    2.714791   -0.016649
      6          8           0        2.892998    2.740975   -0.010045
 ---------------------------------------------------------------------
                    Distance matrix (angstroms):
                    1          2          3          4          5
     1  O    0.000000
     2  H    0.960903   0.000000
     3  O    1.334367   1.878966   0.000000
     4  H    2.246932   2.670742   1.437452   0.000000
     5  O    3.394110   3.728869   2.732311   1.294862   0.000000
     6  O    4.359696   4.712561   3.389175   2.112936   1.298958
                    6
     6  O    0.000000
 Stoichiometry    H2O4
 Framework group  C1[X(H2O4)]
 Deg. of freedom    12
 Full point group                 C1      NOp   1
 Largest Abelian subgroup         C1      NOp   1
 Largest concise Abelian subgroup C1      NOp   1
                         Standard orientation:                         
 ---------------------------------------------------------------------
 Center     Atomic      Atomic             Coordinates (Angstroms)
 Number     Number       Type             X           Y           Z
 ---------------------------------------------------------------------
      1          8           0       -2.090217   -0.300331   -0.090796
      2          1           0       -2.342819   -0.565774    0.797498
      3          8           0       -1.149210    0.642009   -0.006909
      4          1           0        0.135773   -0.002086   -0.022076
      5          8           0        1.291424   -0.585967   -0.036967
      6          8           0        2.223883    0.315271    0.037745
 ---------------------------------------------------------------------
 Rotational constants (GHZ):     31.1619467      2.4886992      2.3210993
 Standard basis: 6-31+G(d,p) (6D, 7F)
 There are    86 symmetry adapted basis functions of A   symmetry.
 Integral buffers will be    262144 words long.
 Raffenetti 2 integral format.
 Two-electron integral symmetry is turned on.
    86 basis functions,   142 primitive gaussians,    86 cartesian basis functions
    17 alpha electrons       17 beta electrons
       nuclear repulsion energy       110.5806216980 Hartrees.
 NAtoms=    6 NActive=    6 NUniq=    6 SFac= 7.50D-01 NAtFMM=   80 NAOKFM=F Big=F
 One-electron integrals computed using PRISM.
 NBasis=    86 RedAO= T  NBF=    86
 NBsUse=    86 1.00D-06 NBFU=    86
 Initial guess read from the read-write file.
 B after Tr=     0.000000    0.000000    0.000000
         Rot=    1.000000    0.000000    0.000000    0.000000 Ang=   0.00 deg.
 Initial guess orbital symmetries:
       Occupied  (A) (A) (A) (A) (A) (A) (A) (A) (A) (A) (A) (A)
                 (A) (A) (A) (A) (A)
       Virtual   (A) (A) (A) (A) (A) (A) (A) (A) (A) (A) (A) (A)
                 (A) (A) (A) (A) (A) (A) (A) (A) (A) (A) (A) (A)
                 (A) (A) (A) (A) (A) (A) (A) (A) (A) (A) (A) (A)
                 (A) (A) (A) (A) (A) (A) (A) (A) (A) (A) (A) (A)
                 (A) (A) (A) (A) (A) (A) (A) (A) (A) (A) (A) (A)
                 (A) (A) (A) (A) (A) (A) (A) (A) (A)
 Harris functional with IExCor= 1009 diagonalized for initial guess.
 ExpMin= 8.45D-02 ExpMax= 5.48D+03 ExpMxC= 8.25D+02 IAcc=2 IRadAn=         0 AccDes= 0.00D+00
 HarFok:  IExCor= 1009 AccDes= 0.00D+00 IRadAn=         0 IDoV= 1
 ScaDFX=  1.000000  1.000000  1.000000  1.000000
 FoFCou: FMM=F IPFlag=           0 FMFlag=      100000 FMFlg1=           0
         NFxFlg=           0 DoJE=T BraDBF=F KetDBF=T FulRan=T
         Omega=  0.000000  0.000000  1.000000  0.000000  0.000000 ICntrl=     500 IOpCl=  0
         NMat0=    1 NMatS0=    1 NMatT0=    0 NMatD0=    1 NMtDS0=    0 NMtDT0=    0
         I1Cent=           4 NGrid=           0.
 Petite list used in FoFCou.
 Requested convergence on RMS density matrix=1.00D-08 within 128 cycles.
 Requested convergence on MAX density matrix=1.00D-06.
 Requested convergence on             energy=1.00D-06.
 No special actions if energy rises.
 Keep R1 ints in memory in canonical form, NReq=7993047.
 Integral accuracy reduced to 1.0D-05 until final iterations.
 Initial convergence to 1.0D-05 achieved.  Increase integral accuracy.
 SCF Done:  E(RM062X) =  -301.597383356     A.U. after   27 cycles
             Convg  =    0.4017D-08             -V/T =  2.0091
 Calling FoFJK, ICntrl=      2127 FMM=F ISym2X=0 I1Cent= 0 IOpClX= 0 NMat=1 NMatS=1 NMatT=0.
 ***** Axes restored to original set *****
 -------------------------------------------------------------------
 Center     Atomic                   Forces (Hartrees/Bohr)
 Number     Number              X              Y              Z
 -------------------------------------------------------------------
      1        8          -0.062078369    0.005690797    0.014795451
      2        1           0.003150996   -0.002493527   -0.010185270
      3        8           0.086878851    0.074270554   -0.006700054
      4        1          -0.023566728   -0.068837166    0.001811275
      5        8           0.105090716   -0.004971900    0.000450538
      6        8          -0.109475466   -0.003658759   -0.000171939
 -------------------------------------------------------------------
 Cartesian Forces:  Max     0.109475466 RMS     0.050386475

 GradGradGradGradGradGradGradGradGradGradGradGradGradGradGradGradGradGrad
 Berny optimization.
 Internal  Forces:  Max     0.109539523 RMS     0.043414903
 Search for a saddle point.
 Step number   2 out of a maximum of  100
 All quantities printed in internal units (Hartrees-Bohrs-Radians)
 Update second derivatives using D2CorX and points    1    2
 The second derivative matrix:
                          R1        R2        R3        R4        R5
           R1           0.54387
           R2           0.01120   0.57057
           R3          -0.00136   0.01573  -0.01550
           R4           0.00399  -0.00405   0.04770  -0.03505
           R5          -0.00528   0.02035  -0.00002   0.06497   0.32058
           A1          -0.00393   0.07335  -0.00047   0.00763  -0.00464
           A2          -0.00112   0.05236  -0.00936   0.00423  -0.00802
           A3           0.00022  -0.00070   0.00188  -0.00307   0.01508
           A4          -0.00051   0.00441  -0.00087   0.00053  -0.00405
           A5          -0.00014  -0.00026   0.00017  -0.00055   0.00090
           D1          -0.00020   0.00258   0.00070   0.00259  -0.00034
           D2          -0.00016   0.00079   0.00036  -0.00004  -0.00233
                          A1        A2        A3        A4        A5
           A1           0.23120
           A2           0.00507   0.17494
           A3           0.00080  -0.01381   0.06975
           A4           0.00033   0.01196  -0.00083   0.01306
           A5          -0.00032   0.00064  -0.00035  -0.00033   0.00406
           D1           0.01021   0.01464  -0.00185  -0.00223  -0.00135
           D2          -0.00020   0.00038  -0.00015  -0.00101   0.00075
                          D1        D2
           D1           0.01908
           D2           0.00103   0.00401
 LST/QST climbing along tangent vector
     Eigenvalues ---   -0.07275   0.00304   0.00459   0.00991   0.01351
     Eigenvalues ---    0.01966   0.06746   0.17074   0.21677   0.32962
     Eigenvalues ---    0.54235   0.59567
 Eigenvectors required to have negative eigenvalues:
                          R3        R4        R5        R2        D1
   1                    0.74100  -0.67138   0.00874  -0.00597  -0.00488
                          A2        A1        A3        D2        A4
   1                    0.00465   0.00266   0.00144   0.00111  -0.00071
 QST in optimization variable space.
                        Tangent   TS vect  // Eig F  Eigenval
   1         R1         0.00038  -0.00038  -0.05600  -0.07275
   2         R2         0.00597  -0.00597   0.00000   0.00304
   3         R3        -0.74100   0.74100   0.00083   0.00459
   4         R4         0.67138  -0.67138   0.01139   0.00991
   5         R5        -0.00874   0.00874  -0.01898   0.01351
   6         A1        -0.00266   0.00266  -0.00443   0.01966
   7         A2        -0.00465   0.00465   0.00217   0.06746
   8         A3        -0.00144   0.00144  -0.01247   0.17074
   9         A4         0.00071  -0.00071  -0.01402   0.21677
  10         A5         0.00028  -0.00028  -0.05879   0.32962
  11         D1         0.00488  -0.00488   0.00165   0.54235
  12         D2        -0.00111   0.00111   0.02334   0.59567
 RFO step:  Lambda0=3.039854953D-02 Lambda=-2.55901545D-02.
 Linear search not attempted -- option 19 set.
 Maximum step size (   0.300) exceeded in Quadratic search.
    -- Step size scaled by   0.364
 Iteration  1 RMS(Cart)=  0.06835319 RMS(Int)=  0.02760134
 Iteration  2 RMS(Cart)=  0.02937732 RMS(Int)=  0.00007967
 Iteration  3 RMS(Cart)=  0.00007752 RMS(Int)=  0.00000001
 Iteration  4 RMS(Cart)=  0.00000001 RMS(Int)=  0.00000000
 Variable       Old X    -DE/DX   Delta X   Delta X   Delta X     New X
                                 (Linear)    (Quad)   (Total)
    R1        1.81584   0.00858   0.00000   0.00260   0.00260   1.81844
    R2        2.52159   0.05901   0.00000   0.02341   0.02341   2.54500
    R3        2.71639  -0.08234   0.00000  -0.00020  -0.00020   2.71619
    R4        2.44694  -0.00955   0.00000  -0.29529  -0.29529   2.15164
    R5        2.45468  -0.10954   0.00000  -0.02679  -0.02679   2.42789
    A1        1.89901  -0.01099   0.00000  -0.01099  -0.01099   1.88802
    A2        1.88947  -0.00694   0.00000  -0.01877  -0.01877   1.87070
    A3        1.90409  -0.00348   0.00000  -0.00601  -0.00601   1.89808
    A4        3.14483   0.00029   0.00000   0.00208   0.00208   3.14692
    A5        3.14287   0.00027   0.00000   0.00231   0.00231   3.14518
    D1        1.59302   0.00348   0.00000   0.03150   0.03150   1.62452
    D2        3.13654  -0.00043   0.00000  -0.00436  -0.00436   3.13217
         Item               Value     Threshold  Converged?
 Maximum Force            0.109540     0.000450     NO 
 RMS     Force            0.043415     0.000300     NO 
 Maximum Displacement     0.168946     0.001800     NO 
 RMS     Displacement     0.097206     0.001200     NO 
 Predicted change in Energy=-8.264961D-03
 GradGradGradGradGradGradGradGradGradGradGradGradGradGradGradGradGradGrad

                          Input orientation:                          
 ---------------------------------------------------------------------
 Center     Atomic      Atomic             Coordinates (Angstroms)
 Number     Number       Type             X           Y           Z
 ---------------------------------------------------------------------
      1          8           0       -0.556383    0.158880    0.017484
      2          1           0       -0.863149    0.101645   -0.892791
      3          8           0        0.790333    0.161330    0.007578
      4          1           0        1.212368    1.535246   -0.006949
      5          8           0        1.540880    2.625388   -0.015977
      6          8           0        2.824891    2.669853   -0.014281
 ---------------------------------------------------------------------
                    Distance matrix (angstroms):
                    1          2          3          4          5
     1  O    0.000000
     2  H    0.962279   0.000000
     3  O    1.346755   1.883675   0.000000
     4  H    2.241308   2.673518   1.437348   0.000000
     5  O    3.237792   3.594084   2.575938   1.138601   0.000000
     6  O    4.211770   4.579204   3.229951   1.971704   1.284782
                    6
     6  O    0.000000
 Stoichiometry    H2O4
 Framework group  C1[X(H2O4)]
 Deg. of freedom    12
 Full point group                 C1      NOp   1
 Largest Abelian subgroup         C1      NOp   1
 Largest concise Abelian subgroup C1      NOp   1
                         Standard orientation:                         
 ---------------------------------------------------------------------
 Center     Atomic      Atomic             Coordinates (Angstroms)
 Number     Number       Type             X           Y           Z
 ---------------------------------------------------------------------
      1          8           0       -2.022497   -0.295628   -0.092638
      2          1           0       -2.293016   -0.531076    0.800315
      3          8           0       -1.064570    0.647091   -0.006576
      4          1           0        0.202090   -0.032141   -0.020178
      5          8           0        1.202651   -0.575375   -0.033825
      6          8           0        2.145782    0.294314    0.035521
 ---------------------------------------------------------------------
 Rotational constants (GHZ):     31.8995266      2.7109841      2.5180905
 Standard basis: 6-31+G(d,p) (6D, 7F)
 There are    86 symmetry adapted basis functions of A   symmetry.
 Integral buffers will be    262144 words long.
 Raffenetti 2 integral format.
 Two-electron integral symmetry is turned on.
    86 basis functions,   142 primitive gaussians,    86 cartesian basis functions
    17 alpha electrons       17 beta electrons
       nuclear repulsion energy       113.2882392120 Hartrees.
 NAtoms=    6 NActive=    6 NUniq=    6 SFac= 7.50D-01 NAtFMM=   80 NAOKFM=F Big=F
 One-electron integrals computed using PRISM.
 NBasis=    86 RedAO= T  NBF=    86
 NBsUse=    86 1.00D-06 NBFU=    86
 Initial guess read from the read-write file.
 B after Tr=     0.000000    0.000000    0.000000
         Rot=    1.000000    0.000000    0.000000    0.000000 Ang=   0.00 deg.
 Initial guess orbital symmetries:
       Occupied  (A) (A) (A) (A) (A) (A) (A) (A) (A) (A) (A) (A)
                 (A) (A) (A) (A) (A)
       Virtual   (A) (A) (A) (A) (A) (A) (A) (A) (A) (A) (A) (A)
                 (A) (A) (A) (A) (A) (A) (A) (A) (A) (A) (A) (A)
                 (A) (A) (A) (A) (A) (A) (A) (A) (A) (A) (A) (A)
                 (A) (A) (A) (A) (A) (A) (A) (A) (A) (A) (A) (A)
                 (A) (A) (A) (A) (A) (A) (A) (A) (A) (A) (A) (A)
                 (A) (A) (A) (A) (A) (A) (A) (A) (A)
 Harris functional with IExCor= 1009 diagonalized for initial guess.
 ExpMin= 8.45D-02 ExpMax= 5.48D+03 ExpMxC= 8.25D+02 IAcc=2 IRadAn=         0 AccDes= 0.00D+00
 HarFok:  IExCor= 1009 AccDes= 0.00D+00 IRadAn=         0 IDoV= 1
 ScaDFX=  1.000000  1.000000  1.000000  1.000000
 FoFCou: FMM=F IPFlag=           0 FMFlag=      100000 FMFlg1=           0
         NFxFlg=           0 DoJE=T BraDBF=F KetDBF=T FulRan=T
         Omega=  0.000000  0.000000  1.000000  0.000000  0.000000 ICntrl=     500 IOpCl=  0
         NMat0=    1 NMatS0=    1 NMatT0=    0 NMatD0=    1 NMtDS0=    0 NMtDT0=    0
         I1Cent=           4 NGrid=           0.
 Petite list used in FoFCou.
 Requested convergence on RMS density matrix=1.00D-08 within 128 cycles.
 Requested convergence on MAX density matrix=1.00D-06.
 Requested convergence on             energy=1.00D-06.
 No special actions if energy rises.
 Keep R1 ints in memory in canonical form, NReq=7992901.
 Integral accuracy reduced to 1.0D-05 until final iterations.
 Rare condition: small coef for last iteration:  0.000D+00
 Rare condition: small coef for last iteration:  0.000D+00
 Problem detected with inexpensive integrals.
 Switching to full accuracy and repeating last cycle.
 SCF Done:  E(RM062X) =  -301.603941943     A.U. after   33 cycles
             Convg  =    0.5586D-08             -V/T =  2.0086
 Calling FoFJK, ICntrl=      2127 FMM=F ISym2X=0 I1Cent= 0 IOpClX= 0 NMat=1 NMatS=1 NMatT=0.
 ***** Axes restored to original set *****
 -------------------------------------------------------------------
 Center     Atomic                   Forces (Hartrees/Bohr)
 Number     Number              X              Y              Z
 -------------------------------------------------------------------
      1        8          -0.046721484    0.005443442    0.013193680
      2        1           0.002127521   -0.003026733   -0.009115674
      3        8           0.062981197    0.052469558   -0.005983133
      4        1          -0.016638461   -0.054591174    0.001464460
      5        8           0.076610566    0.003705367    0.000243247
      6        8          -0.078359338   -0.004000460    0.000197419
 -------------------------------------------------------------------
 Cartesian Forces:  Max     0.078359338 RMS     0.036921270

 GradGradGradGradGradGradGradGradGradGradGradGradGradGradGradGradGradGrad
 Berny optimization.
 Internal  Forces:  Max     0.078465288 RMS     0.031211070
 Search for a saddle point.
 Step number   3 out of a maximum of  100
 All quantities printed in internal units (Hartrees-Bohrs-Radians)
 Update second derivatives using D2CorX and points    1    2    3
 The second derivative matrix:
                          R1        R2        R3        R4        R5
           R1           0.54387
           R2           0.01115   0.57131
           R3          -0.00124   0.01190   0.00119
           R4           0.00443  -0.01061   0.08368   0.02170
           R5          -0.00522   0.01894   0.00682   0.07770   0.32319
           A1          -0.00393   0.07349  -0.00081   0.00608  -0.00486
           A2          -0.00110   0.05237  -0.00890   0.00379  -0.00797
           A3           0.00023  -0.00096   0.00315  -0.00075   0.01556
           A4          -0.00052   0.00443  -0.00101   0.00040  -0.00409
           A5          -0.00014  -0.00038   0.00064   0.00062   0.00110
           D1          -0.00023   0.00258  -0.00007   0.00307  -0.00045
           D2          -0.00016   0.00071   0.00084   0.00068  -0.00217
                          A1        A2        A3        A4        A5
           A1           0.23118
           A2           0.00501   0.17485
           A3           0.00076  -0.01381   0.06984
           A4           0.00034   0.01197  -0.00084   0.01306
           A5          -0.00032   0.00066  -0.00031  -0.00033   0.00408
           D1           0.01031   0.01476  -0.00186  -0.00225  -0.00139
           D2          -0.00022   0.00037  -0.00012  -0.00101   0.00077
                          D1        D2
           D1           0.01890
           D2           0.00104   0.00402
 LST/QST climbing along tangent vector
     Eigenvalues ---   -0.07238   0.00304   0.00459   0.01059   0.01875
     Eigenvalues ---    0.06609   0.07543   0.17124   0.21710   0.34422
     Eigenvalues ---    0.54236   0.59614
 Eigenvectors required to have negative eigenvalues:
                          R3        R4        R5        D1        R2
   1                    0.82941  -0.55645   0.02966  -0.02395  -0.02254
                          A2        A1        A3        D2        A4
   1                    0.01780   0.01030   0.00559   0.00420  -0.00237
 QST in optimization variable space.
                        Tangent   TS vect  // Eig F  Eigenval
   1         R1         0.00192  -0.00192  -0.05121  -0.07238
   2         R2         0.02254  -0.02254  -0.00073   0.00304
   3         R3        -0.82941   0.82941   0.00034   0.00459
   4         R4         0.55645  -0.55645   0.00092   0.01059
   5         R5        -0.02966   0.02966   0.00213   0.01875
   6         A1        -0.01030   0.01030  -0.00145   0.06609
   7         A2        -0.01780   0.01780  -0.00483   0.07543
   8         A3        -0.00559   0.00559  -0.00794   0.17124
   9         A4         0.00237  -0.00237  -0.00968   0.21710
  10         A5         0.00160  -0.00160  -0.04171   0.34422
  11         D1         0.02395  -0.02395   0.00176   0.54236
  12         D2        -0.00420   0.00420   0.01833   0.59614
 RFO step:  Lambda0=2.651465631D-02 Lambda=-6.89131358D-03.
 Linear search not attempted -- option 19 set.
 Maximum step size (   0.300) exceeded in Quadratic search.
    -- Step size scaled by   0.542
 Iteration  1 RMS(Cart)=  0.05679568 RMS(Int)=  0.00214765
 Iteration  2 RMS(Cart)=  0.00157161 RMS(Int)=  0.00000056
 Iteration  3 RMS(Cart)=  0.00000066 RMS(Int)=  0.00000000
 Variable       Old X    -DE/DX   Delta X   Delta X   Delta X     New X
                                 (Linear)    (Quad)   (Total)
    R1        1.81844   0.00801   0.00000   0.00250   0.00250   1.82094
    R2        2.54500   0.04468   0.00000   0.01941   0.01941   2.56441
    R3        2.71619  -0.05787   0.00000   0.20603   0.20603   2.92222
    R4        2.15164  -0.00077   0.00000  -0.20310  -0.20310   1.94855
    R5        2.42789  -0.07847   0.00000  -0.04543  -0.04543   2.38245
    A1        1.88802  -0.00873   0.00000  -0.01621  -0.01621   1.87181
    A2        1.87070  -0.00450   0.00000  -0.01467  -0.01467   1.85603
    A3        1.89808  -0.00304   0.00000   0.00183   0.00183   1.89992
    A4        3.14692   0.00046   0.00000   0.00478   0.00478   3.15170
    A5        3.14518   0.00054   0.00000   0.03014   0.03014   3.17533
    D1        1.62452   0.00411   0.00000   0.04713   0.04713   1.67165
    D2        3.13217  -0.00031   0.00000  -0.01491  -0.01491   3.11726
         Item               Value     Threshold  Converged?
 Maximum Force            0.078465     0.000450     NO 
 RMS     Force            0.031211     0.000300     NO 
 Maximum Displacement     0.154875     0.001800     NO 
 RMS     Displacement     0.057912     0.001200     NO 
 Predicted change in Energy= 5.069059D-03
 GradGradGradGradGradGradGradGradGradGradGradGradGradGradGradGradGradGrad

                          Input orientation:                          
 ---------------------------------------------------------------------
 Center     Atomic      Atomic             Coordinates (Angstroms)
 Number     Number       Type             X           Y           Z
 ---------------------------------------------------------------------
      1          8           0       -0.568273    0.165153    0.021202
      2          1           0       -0.873137    0.073403   -0.888285
      3          8           0        0.788292    0.141225   -0.004827
      4          1           0        1.249293    1.617202   -0.020399
      5          8           0        1.546444    2.604518   -0.008858
      6          8           0        2.806321    2.650841   -0.003769
 ---------------------------------------------------------------------
                    Distance matrix (angstroms):
                    1          2          3          4          5
     1  O    0.000000
     2  H    0.963600   0.000000
     3  O    1.357026   1.882935   0.000000
     4  H    2.326742   2.764282   1.546375   0.000000
     5  O    3.228534   3.610306   2.577329   1.031127   0.000000
     6  O    4.191319   4.578643   3.220344   1.868963   1.260739
                    6
     6  O    0.000000
 Stoichiometry    H2O4
 Framework group  C1[X(H2O4)]
 Deg. of freedom    12
 Full point group                 C1      NOp   1
 Largest Abelian subgroup         C1      NOp   1
 Largest concise Abelian subgroup C1      NOp   1
                         Standard orientation:                         
 ---------------------------------------------------------------------
 Center     Atomic      Atomic             Coordinates (Angstroms)
 Number     Number       Type             X           Y           Z
 ---------------------------------------------------------------------
      1          8           0       -2.015145   -0.309287   -0.097362
      2          1           0       -2.311802   -0.505578    0.798177
      3          8           0       -1.067241    0.657336   -0.004409
      4          1           0        0.297385   -0.070037   -0.004131
      5          8           0        1.202599   -0.563306   -0.026419
      6          8           0        2.131589    0.287209    0.028934
 ---------------------------------------------------------------------
 Rotational constants (GHZ):     31.8322086      2.7288515      2.5329953
 Standard basis: 6-31+G(d,p) (6D, 7F)
 There are    86 symmetry adapted basis functions of A   symmetry.
 Integral buffers will be    262144 words long.
 Raffenetti 2 integral format.
 Two-electron integral symmetry is turned on.
    86 basis functions,   142 primitive gaussians,    86 cartesian basis functions
    17 alpha electrons       17 beta electrons
       nuclear repulsion energy       113.9057415370 Hartrees.
 NAtoms=    6 NActive=    6 NUniq=    6 SFac= 7.50D-01 NAtFMM=   80 NAOKFM=F Big=F
 One-electron integrals computed using PRISM.
 NBasis=    86 RedAO= T  NBF=    86
 NBsUse=    86 1.00D-06 NBFU=    86
 Initial guess read from the read-write file.
 B after Tr=     0.000000    0.000000    0.000000
         Rot=    1.000000    0.000000    0.000000    0.000000 Ang=   0.00 deg.
 Initial guess orbital symmetries:
       Occupied  (A) (A) (A) (A) (A) (A) (A) (A) (A) (A) (A) (A)
                 (A) (A) (A) (A) (A)
       Virtual   (A) (A) (A) (A) (A) (A) (A) (A) (A) (A) (A) (A)
                 (A) (A) (A) (A) (A) (A) (A) (A) (A) (A) (A) (A)
                 (A) (A) (A) (A) (A) (A) (A) (A) (A) (A) (A) (A)
                 (A) (A) (A) (A) (A) (A) (A) (A) (A) (A) (A) (A)
                 (A) (A) (A) (A) (A) (A) (A) (A) (A) (A) (A) (A)
                 (A) (A) (A) (A) (A) (A) (A) (A) (A)
 Harris functional with IExCor= 1009 diagonalized for initial guess.
 ExpMin= 8.45D-02 ExpMax= 5.48D+03 ExpMxC= 8.25D+02 IAcc=2 IRadAn=         0 AccDes= 0.00D+00
 HarFok:  IExCor= 1009 AccDes= 0.00D+00 IRadAn=         0 IDoV= 1
 ScaDFX=  1.000000  1.000000  1.000000  1.000000
 FoFCou: FMM=F IPFlag=           0 FMFlag=      100000 FMFlg1=           0
         NFxFlg=           0 DoJE=T BraDBF=F KetDBF=T FulRan=T
         Omega=  0.000000  0.000000  1.000000  0.000000  0.000000 ICntrl=     500 IOpCl=  0
         NMat0=    1 NMatS0=    1 NMatT0=    0 NMatD0=    1 NMtDS0=    0 NMtDT0=    0
         I1Cent=           4 NGrid=           0.
 Petite list used in FoFCou.
 Requested convergence on RMS density matrix=1.00D-08 within 128 cycles.
 Requested convergence on MAX density matrix=1.00D-06.
 Requested convergence on             energy=1.00D-06.
 No special actions if energy rises.
 Keep R1 ints in memory in canonical form, NReq=7992901.
 Integral accuracy reduced to 1.0D-05 until final iterations.
 Rare condition: small coef for last iteration:  0.000D+00
 Rare condition: small coef for last iteration:  0.000D+00
 Rare condition: small coef for last iteration:  0.000D+00
 Problem detected with inexpensive integrals.
 Switching to full accuracy and repeating last cycle.
 SCF Done:  E(RM062X) =  -301.596191326     A.U. after   29 cycles
             Convg  =    0.4501D-08             -V/T =  2.0081
 Calling FoFJK, ICntrl=      2127 FMM=F ISym2X=0 I1Cent= 0 IOpClX= 0 NMat=1 NMatS=1 NMatT=0.
 ***** Axes restored to original set *****
 -------------------------------------------------------------------
 Center     Atomic                   Forces (Hartrees/Bohr)
 Number     Number              X              Y              Z
 -------------------------------------------------------------------
      1        8          -0.033054358    0.005876189    0.010976150
      2        1           0.000776717   -0.003363895   -0.007881389
      3        8           0.045649030    0.037063365   -0.004596462
      4        1          -0.017931112   -0.059411821    0.000525900
      5        8           0.041320767    0.022299554    0.001033514
      6        8          -0.036761044   -0.002463391   -0.000057713
 -------------------------------------------------------------------
 Cartesian Forces:  Max     0.059411821 RMS     0.026050210

 GradGradGradGradGradGradGradGradGradGradGradGradGradGradGradGradGradGrad
 Berny optimization.
 Internal  Forces:  Max     0.041762857 RMS     0.019768658
 Search for a saddle point.
 Step number   4 out of a maximum of  100
 All quantities printed in internal units (Hartrees-Bohrs-Radians)
 Update second derivatives using D2CorX and points    2    3    4
 The second derivative matrix:
                          R1        R2        R3        R4        R5
           R1           0.54387
           R2           0.01112   0.57105
           R3          -0.00151   0.01000  -0.00971
           R4           0.00475  -0.00903   0.07033   0.14511
           R5          -0.00516   0.01901  -0.00206   0.12854   0.34283
           A1          -0.00390   0.07368   0.00038   0.00613  -0.00446
           A2          -0.00107   0.05260  -0.00647  -0.00152  -0.00951
           A3           0.00023  -0.00099   0.00244   0.00189   0.01653
           A4          -0.00052   0.00440  -0.00074  -0.00214  -0.00512
           A5          -0.00018  -0.00067  -0.00135   0.00020   0.00035
           D1          -0.00030   0.00207  -0.00289   0.00031  -0.00256
           D2          -0.00014   0.00084   0.00124   0.00343  -0.00085
                          A1        A2        A3        A4        A5
           A1           0.23105
           A2           0.00481   0.17476
           A3           0.00080  -0.01385   0.06988
           A4           0.00034   0.01207  -0.00090   0.01312
           A5          -0.00013   0.00099  -0.00039  -0.00033   0.00374
           D1           0.01063   0.01539  -0.00203  -0.00219  -0.00190
           D2          -0.00029   0.00014  -0.00003  -0.00106   0.00088
                          D1        D2
           D1           0.01813
           D2           0.00115   0.00404
 LST/QST climbing along tangent vector
     Eigenvalues ---   -0.04214   0.00231   0.00447   0.01035   0.01777
     Eigenvalues ---    0.06682   0.11288   0.17140   0.21749   0.40874
     Eigenvalues ---    0.54237   0.59542
 Eigenvectors required to have negative eigenvalues:
                          R3        R4        R5        D1        R2
   1                    0.90949  -0.38400   0.09656  -0.08696  -0.06033
                          A2        A1        A5        D2        A3
   1                    0.04708   0.03391  -0.02909   0.02098   0.00924
 QST in optimization variable space.
                        Tangent   TS vect  // Eig F  Eigenval
   1         R1         0.00587  -0.00587  -0.05211  -0.04214
   2         R2         0.06033  -0.06033  -0.00037   0.00231
   3         R3        -0.90949   0.90949   0.00004   0.00447
   4         R4         0.38400  -0.38400  -0.00025   0.01035
   5         R5        -0.09656   0.09656   0.00033   0.01777
   6         A1        -0.03391   0.03391   0.00028   0.06682
   7         A2        -0.04708   0.04708   0.00906   0.11288
   8         A3        -0.00924   0.00924  -0.00282   0.17140
   9         A4         0.00871  -0.00871  -0.00411   0.21749
  10         A5         0.02909  -0.02909  -0.01438   0.40874
  11         D1         0.08696  -0.08696   0.00177   0.54237
  12         D2        -0.02098   0.02098   0.01327   0.59542
 RFO step:  Lambda0=3.513742893D-02 Lambda=-1.69181941D-03.
 Linear search not attempted -- option 19 set.
 Maximum step size (   0.300) exceeded in Quadratic search.
    -- Step size scaled by   0.436
 Iteration  1 RMS(Cart)=  0.05678697 RMS(Int)=  0.02246542
 Iteration  2 RMS(Cart)=  0.02477622 RMS(Int)=  0.00005632
 Iteration  3 RMS(Cart)=  0.00007902 RMS(Int)=  0.00000000
 Iteration  4 RMS(Cart)=  0.00000001 RMS(Int)=  0.00000000
 Variable       Old X    -DE/DX   Delta X   Delta X   Delta X     New X
                                 (Linear)    (Quad)   (Total)
    R1        1.82094   0.00742   0.00000   0.00034   0.00034   1.82128
    R2        2.56441   0.03242   0.00000  -0.00409  -0.00409   2.56031
    R3        2.92222  -0.04176   0.00000   0.27789   0.27789   3.20011
    R4        1.94855   0.02033   0.00000  -0.09347  -0.09347   1.85508
    R5        2.38245  -0.03683   0.00000   0.00017   0.00017   2.38263
    A1        1.87181  -0.00587   0.00000   0.00128   0.00128   1.87309
    A2        1.85603  -0.00307   0.00000   0.00988   0.00988   1.86591
    A3        1.89992  -0.00259   0.00000   0.00100   0.00100   1.90091
    A4        3.15170   0.00008   0.00000  -0.01499  -0.01499   3.13671
    A5        3.17533   0.00089   0.00000  -0.03773  -0.03773   3.13760
    D1        1.67165   0.00424   0.00000  -0.03267  -0.03267   1.63898
    D2        3.11726   0.00006   0.00000   0.03478   0.03478  -3.13114
         Item               Value     Threshold  Converged?
 Maximum Force            0.041763     0.000450     NO 
 RMS     Force            0.019769     0.000300     NO 
 Maximum Displacement     0.163034     0.001800     NO 
 RMS     Displacement     0.077927     0.001200     NO 
 Predicted change in Energy= 1.231002D-02
 GradGradGradGradGradGradGradGradGradGradGradGradGradGradGradGradGradGrad

                          Input orientation:                          
 ---------------------------------------------------------------------
 Center     Atomic      Atomic             Coordinates (Angstroms)
 Number     Number       Type             X           Y           Z
 ---------------------------------------------------------------------
      1          8           0       -0.598387    0.110189    0.013162
      2          1           0       -0.893418    0.054325   -0.902649
      3          8           0        0.756289    0.090568    0.002428
      4          1           0        1.272251    1.703476    0.003039
      5          8           0        1.575864    2.637006    0.000739
      6          8           0        2.836341    2.656778   -0.021655
 ---------------------------------------------------------------------
                    Distance matrix (angstroms):
                    1          2          3          4          5
     1  O    0.000000
     2  H    0.963781   0.000000
     3  O    1.354860   1.882022   0.000000
     4  H    2.457225   2.868813   1.693426   0.000000
     5  O    3.333515   3.685607   2.675080   0.981664   0.000000
     6  O    4.275942   4.632495   3.303427   1.831876   1.260831
                    6
     6  O    0.000000
 Stoichiometry    H2O4
 Framework group  C1[X(H2O4)]
 Deg. of freedom    12
 Full point group                 C1      NOp   1
 Largest Abelian subgroup         C1      NOp   1
 Largest concise Abelian subgroup C1      NOp   1
                         Standard orientation:                         
 ---------------------------------------------------------------------
 Center     Atomic      Atomic             Coordinates (Angstroms)
 Number     Number       Type             X           Y           Z
 ---------------------------------------------------------------------
      1          8           0       -2.063783   -0.311600   -0.087715
      2          1           0       -2.325814   -0.526521    0.814517
      3          8           0       -1.118661    0.656328   -0.013528
      4          1           0        0.385429   -0.121549   -0.031208
      5          8           0        1.259463   -0.568399   -0.038560
      6          8           0        2.165529    0.304680    0.041889
 ---------------------------------------------------------------------
 Rotational constants (GHZ):     31.2057314      2.5930159      2.4125053
 Standard basis: 6-31+G(d,p) (6D, 7F)
 There are    86 symmetry adapted basis functions of A   symmetry.
 Integral buffers will be    262144 words long.
 Raffenetti 2 integral format.
 Two-electron integral symmetry is turned on.
    86 basis functions,   142 primitive gaussians,    86 cartesian basis functions
    17 alpha electrons       17 beta electrons
       nuclear repulsion energy       112.5857171262 Hartrees.
 NAtoms=    6 NActive=    6 NUniq=    6 SFac= 7.50D-01 NAtFMM=   80 NAOKFM=F Big=F
 One-electron integrals computed using PRISM.
 NBasis=    86 RedAO= T  NBF=    86
 NBsUse=    86 1.00D-06 NBFU=    86
 Initial guess read from the read-write file.
 B after Tr=     0.000000    0.000000    0.000000
         Rot=    1.000000    0.000000    0.000000    0.000000 Ang=   0.00 deg.
 Initial guess orbital symmetries:
       Occupied  (A) (A) (A) (A) (A) (A) (A) (A) (A) (A) (A) (A)
                 (A) (A) (A) (A) (A)
       Virtual   (A) (A) (A) (A) (A) (A) (A) (A) (A) (A) (A) (A)
                 (A) (A) (A) (A) (A) (A) (A) (A) (A) (A) (A) (A)
                 (A) (A) (A) (A) (A) (A) (A) (A) (A) (A) (A) (A)
                 (A) (A) (A) (A) (A) (A) (A) (A) (A) (A) (A) (A)
                 (A) (A) (A) (A) (A) (A) (A) (A) (A) (A) (A) (A)
                 (A) (A) (A) (A) (A) (A) (A) (A) (A)
 Harris functional with IExCor= 1009 diagonalized for initial guess.
 ExpMin= 8.45D-02 ExpMax= 5.48D+03 ExpMxC= 8.25D+02 IAcc=2 IRadAn=         0 AccDes= 0.00D+00
 HarFok:  IExCor= 1009 AccDes= 0.00D+00 IRadAn=         0 IDoV= 1
 ScaDFX=  1.000000  1.000000  1.000000  1.000000
 FoFCou: FMM=F IPFlag=           0 FMFlag=      100000 FMFlg1=           0
         NFxFlg=           0 DoJE=T BraDBF=F KetDBF=T FulRan=T
         Omega=  0.000000  0.000000  1.000000  0.000000  0.000000 ICntrl=     500 IOpCl=  0
         NMat0=    1 NMatS0=    1 NMatT0=    0 NMatD0=    1 NMtDS0=    0 NMtDT0=    0
         I1Cent=           4 NGrid=           0.
 Petite list used in FoFCou.
 Requested convergence on RMS density matrix=1.00D-08 within 128 cycles.
 Requested convergence on MAX density matrix=1.00D-06.
 Requested convergence on             energy=1.00D-06.
 No special actions if energy rises.
 Keep R1 ints in memory in canonical form, NReq=7992901.
 Integral accuracy reduced to 1.0D-05 until final iterations.
 Rare condition: small coef for last iteration:  0.000D+00
 Rare condition: small coef for last iteration:  0.000D+00
 Problem detected with inexpensive integrals.
 Switching to full accuracy and repeating last cycle.
 SCF Done:  E(RM062X) =  -301.583153576     A.U. after   25 cycles
             Convg  =    0.5698D-08             -V/T =  2.0080
 Calling FoFJK, ICntrl=      2127 FMM=F ISym2X=0 I1Cent= 0 IOpClX= 0 NMat=1 NMatS=1 NMatT=0.
 ***** Axes restored to original set *****
 -------------------------------------------------------------------
 Center     Atomic                   Forces (Hartrees/Bohr)
 Number     Number              X              Y              Z
 -------------------------------------------------------------------
      1        8          -0.028859040    0.004435431    0.010949429
      2        1          -0.000101484   -0.002730628   -0.008650826
      3        8           0.039452405    0.029306188   -0.003270037
      4        1          -0.018747551   -0.063420075    0.000577597
      5        8           0.031014677    0.034377836   -0.000311735
      6        8          -0.022759007   -0.001968752    0.000705571
 -------------------------------------------------------------------
 Cartesian Forces:  Max     0.063420075 RMS     0.024176260

 GradGradGradGradGradGradGradGradGradGradGradGradGradGradGradGradGradGrad
 Berny optimization.
 Internal  Forces:  Max     0.033379886 RMS     0.017492302
 Search for a saddle point.
 Step number   5 out of a maximum of  100
 All quantities printed in internal units (Hartrees-Bohrs-Radians)
 Update second derivatives using D2CorX and points    3    4    5
 The second derivative matrix:
                          R1        R2        R3        R4        R5
           R1           0.54386
           R2           0.01111   0.57128
           R3          -0.00199   0.01389  -0.02274
           R4           0.00508  -0.01344   0.02634   0.21824
           R5          -0.00513   0.01867  -0.00534   0.13424   0.34324
           A1          -0.00389   0.07356  -0.00106   0.00824  -0.00431
           A2          -0.00108   0.05265  -0.00726  -0.00167  -0.00954
           A3           0.00023  -0.00088   0.00409  -0.00014   0.01637
           A4          -0.00050   0.00422  -0.00056   0.00001  -0.00494
           A5          -0.00015  -0.00091   0.00197   0.00168   0.00050
           D1          -0.00029   0.00207   0.00246  -0.00208  -0.00271
           D2          -0.00018   0.00125   0.00087  -0.00144  -0.00126
                          A1        A2        A3        A4        A5
           A1           0.23111
           A2           0.00479   0.17472
           A3           0.00074  -0.01384   0.06994
           A4           0.00041   0.01211  -0.00097   0.01312
           A5          -0.00005   0.00111  -0.00047  -0.00047   0.00325
           D1           0.01060   0.01552  -0.00200  -0.00243  -0.00245
           D2          -0.00046   0.00006   0.00013  -0.00106   0.00119
                          D1        D2
           D1           0.01773
           D2           0.00171   0.00404
     Eigenvalues ---   -0.02852   0.00174   0.00477   0.01041   0.01858
     Eigenvalues ---    0.06697   0.13375   0.17293   0.21875   0.42973
     Eigenvalues ---    0.54242   0.59623
 Eigenvectors required to have negative eigenvalues:
                          R3        R4        D1        R5        A5
   1                    0.97795  -0.14635  -0.07855   0.07187  -0.06264
                          A2        A3        R2        A1        D2
   1                    0.04853  -0.04829  -0.03515   0.02227  -0.02140
 QST in optimization variable space.
                        Tangent   TS vect  // Eig F  Eigenval
   1         R1         0.01204   0.00622  -0.03983  -0.02852
   2         R2         0.11096  -0.03515  -0.00092   0.00174
   3         R3        -0.93767   0.97795  -0.00229   0.00477
   4         R4         0.22176  -0.14635   0.00093   0.01041
   5         R5        -0.18834   0.07187   0.00126   0.01858
   6         A1        -0.06409   0.02227  -0.00185   0.06697
   7         A2        -0.07533   0.04853   0.03657   0.13375
   8         A3        -0.01638  -0.04829   0.00335   0.17293
   9         A4        -0.00823   0.00397  -0.00336   0.21875
  10         A5        -0.00673  -0.06264  -0.00288   0.42973
  11         D1         0.11485  -0.07855   0.00476   0.54242
  12         D2         0.01760  -0.02140   0.02613   0.59623
 RFO step:  Lambda0=2.804243683D-02 Lambda=-1.10622792D-02.
 Linear search not attempted -- option 19 set.
 Maximum step size (   0.300) exceeded in Quadratic search.
    -- Step size scaled by   0.390
 Iteration  1 RMS(Cart)=  0.06998308 RMS(Int)=  0.02338180
 Iteration  2 RMS(Cart)=  0.02639149 RMS(Int)=  0.00005325
 Iteration  3 RMS(Cart)=  0.00007853 RMS(Int)=  0.00000000
 Iteration  4 RMS(Cart)=  0.00000000 RMS(Int)=  0.00000000
 Variable       Old X    -DE/DX   Delta X   Delta X   Delta X     New X
                                 (Linear)    (Quad)   (Total)
    R1        1.82128   0.00831   0.00000   0.00592   0.00592   1.82720
    R2        2.56031   0.02907   0.00000   0.01493   0.01493   2.57524
    R3        3.20011  -0.03274   0.00000   0.28129   0.28129   3.48140
    R4        1.85508   0.03338   0.00000   0.03796   0.03796   1.89303
    R5        2.38263  -0.02280   0.00000  -0.03245  -0.03245   2.35018
    A1        1.87309  -0.00448   0.00000  -0.01088  -0.01088   1.86220
    A2        1.86591  -0.00198   0.00000   0.00359   0.00359   1.86950
    A3        1.90091  -0.00379   0.00000  -0.03204  -0.03204   1.86887
    A4        3.13671   0.00027   0.00000  -0.00341  -0.00341   3.13330
    A5        3.13760   0.00048   0.00000  -0.07532  -0.07532   3.06228
    D1        1.63898   0.00360   0.00000  -0.01069  -0.01069   1.62830
    D2       -3.13114  -0.00037   0.00000  -0.03421  -0.03421   3.11783
         Item               Value     Threshold  Converged?
 Maximum Force            0.033380     0.000450     NO 
 RMS     Force            0.017492     0.000300     NO 
 Maximum Displacement     0.146857     0.001800     NO 
 RMS     Displacement     0.095131     0.001200     NO 
 Predicted change in Energy= 6.303930D-03
 GradGradGradGradGradGradGradGradGradGradGradGradGradGradGradGradGradGrad

                          Input orientation:                          
 ---------------------------------------------------------------------
 Center     Atomic      Atomic             Coordinates (Angstroms)
 Number     Number       Type             X           Y           Z
 ---------------------------------------------------------------------
      1          8           0       -0.640368    0.050050    0.013104
      2          1           0       -0.933878    0.023861   -0.907814
      3          8           0        0.721869    0.019622   -0.009119
      4          1           0        1.303754    1.767329    0.021024
      5          8           0        1.627254    2.714719   -0.015054
      6          8           0        2.870309    2.676761   -0.007077
 ---------------------------------------------------------------------
                    Distance matrix (angstroms):
                    1          2          3          4          5
     1  O    0.000000
     2  H    0.966915   0.000000
     3  O    1.362758   1.883924   0.000000
     4  H    2.593978   2.984865   1.842276   0.000000
     5  O    3.499052   3.820620   2.843116   1.001750   0.000000
     6  O    4.384618   4.724515   3.417044   1.811616   1.243660
                    6
     6  O    0.000000
 Stoichiometry    H2O4
 Framework group  C1[X(H2O4)]
 Deg. of freedom    12
 Full point group                 C1      NOp   1
 Largest Abelian subgroup         C1      NOp   1
 Largest concise Abelian subgroup C1      NOp   1
                         Standard orientation:                         
 ---------------------------------------------------------------------
 Center     Atomic      Atomic             Coordinates (Angstroms)
 Number     Number       Type             X           Y           Z
 ---------------------------------------------------------------------
      1          8           0       -2.129044   -0.325414   -0.097044
      2          1           0       -2.368320   -0.569500    0.807441
      3          8           0       -1.196439    0.663685   -0.001953
      4          1           0        0.458246   -0.144673   -0.052479
      5          8           0        1.360021   -0.580173   -0.027119
      6          8           0        2.204221    0.331173    0.031746
 ---------------------------------------------------------------------
 Rotational constants (GHZ):     29.6917391      2.4142620      2.2485631
 Standard basis: 6-31+G(d,p) (6D, 7F)
 There are    86 symmetry adapted basis functions of A   symmetry.
 Integral buffers will be    262144 words long.
 Raffenetti 2 integral format.
 Two-electron integral symmetry is turned on.
    86 basis functions,   142 primitive gaussians,    86 cartesian basis functions
    17 alpha electrons       17 beta electrons
       nuclear repulsion energy       110.6100913491 Hartrees.
 NAtoms=    6 NActive=    6 NUniq=    6 SFac= 7.50D-01 NAtFMM=   80 NAOKFM=F Big=F
 One-electron integrals computed using PRISM.
 NBasis=    86 RedAO= T  NBF=    86
 NBsUse=    86 1.00D-06 NBFU=    86
 Initial guess read from the read-write file.
 B after Tr=     0.000000    0.000000    0.000000
         Rot=    1.000000    0.000000    0.000000    0.000000 Ang=   0.00 deg.
 Initial guess orbital symmetries:
       Occupied  (A) (A) (A) (A) (A) (A) (A) (A) (A) (A) (A) (A)
                 (A) (A) (A) (A) (A)
       Virtual   (A) (A) (A) (A) (A) (A) (A) (A) (A) (A) (A) (A)
                 (A) (A) (A) (A) (A) (A) (A) (A) (A) (A) (A) (A)
                 (A) (A) (A) (A) (A) (A) (A) (A) (A) (A) (A) (A)
                 (A) (A) (A) (A) (A) (A) (A) (A) (A) (A) (A) (A)
                 (A) (A) (A) (A) (A) (A) (A) (A) (A) (A) (A) (A)
                 (A) (A) (A) (A) (A) (A) (A) (A) (A)
 Harris functional with IExCor= 1009 diagonalized for initial guess.
 ExpMin= 8.45D-02 ExpMax= 5.48D+03 ExpMxC= 8.25D+02 IAcc=2 IRadAn=         0 AccDes= 0.00D+00
 HarFok:  IExCor= 1009 AccDes= 0.00D+00 IRadAn=         0 IDoV= 1
 ScaDFX=  1.000000  1.000000  1.000000  1.000000
 FoFCou: FMM=F IPFlag=           0 FMFlag=      100000 FMFlg1=           0
         NFxFlg=           0 DoJE=T BraDBF=F KetDBF=T FulRan=T
         Omega=  0.000000  0.000000  1.000000  0.000000  0.000000 ICntrl=     500 IOpCl=  0
         NMat0=    1 NMatS0=    1 NMatT0=    0 NMatD0=    1 NMtDS0=    0 NMtDT0=    0
         I1Cent=           4 NGrid=           0.
 Petite list used in FoFCou.
 Requested convergence on RMS density matrix=1.00D-08 within 128 cycles.
 Requested convergence on MAX density matrix=1.00D-06.
 Requested convergence on             energy=1.00D-06.
 No special actions if energy rises.
 Keep R1 ints in memory in canonical form, NReq=7993047.
 Integral accuracy reduced to 1.0D-05 until final iterations.
 Rare condition: small coef for last iteration:  0.000D+00
 Rare condition: small coef for last iteration:  0.000D+00
 Problem detected with inexpensive integrals.
 Switching to full accuracy and repeating last cycle.
 Rare condition: small coef for last iteration:  0.000D+00
 Rare condition: small coef for last iteration:  0.000D+00
 SCF Done:  E(RM062X) =  -301.575465462     A.U. after   28 cycles
             Convg  =    0.1133D-08             -V/T =  2.0080
 Calling FoFJK, ICntrl=      2127 FMM=F ISym2X=0 I1Cent= 0 IOpClX= 0 NMat=1 NMatS=1 NMatT=0.
 ***** Axes restored to original set *****
 -------------------------------------------------------------------
 Center     Atomic                   Forces (Hartrees/Bohr)
 Number     Number              X              Y              Z
 -------------------------------------------------------------------
      1        8          -0.021899891    0.003388036    0.007396481
      2        1           0.000132841   -0.001850957   -0.005608453
      3        8           0.032305977    0.027839792   -0.002037973
      4        1          -0.015319231   -0.033549450    0.000138430
      5        8          -0.000891681    0.001829120    0.000053077
      6        8           0.005671985    0.002343460    0.000058438
 -------------------------------------------------------------------
 Cartesian Forces:  Max     0.033549450 RMS     0.014540456

 GradGradGradGradGradGradGradGradGradGradGradGradGradGradGradGradGradGrad
 Berny optimization.
 Internal  Forces:  Max     0.031231585 RMS     0.011551974
 Search for a saddle point.
 Step number   6 out of a maximum of  100
 All quantities printed in internal units (Hartrees-Bohrs-Radians)
 Update second derivatives using D2CorX and points    4    5    6
 The second derivative matrix:
                          R1        R2        R3        R4        R5
           R1           0.54384
           R2           0.01090   0.57064
           R3          -0.00290   0.00186  -0.02485
           R4           0.00586  -0.01264   0.07970   0.22400
           R5          -0.00600   0.01854  -0.06964   0.12367   0.36043
           A1          -0.00386   0.07390  -0.00034   0.00682  -0.00266
           A2          -0.00108   0.05244  -0.00656  -0.00061  -0.01087
           A3          -0.00006  -0.00031  -0.02015  -0.00689   0.02618
           A4          -0.00046   0.00452   0.00083  -0.00108  -0.00372
           A5           0.00010   0.00194   0.00491  -0.01059   0.01510
           D1          -0.00021   0.00280   0.00390  -0.00507   0.00081
           D2          -0.00013   0.00194   0.00070  -0.00461   0.00254
                          A1        A2        A3        A4        A5
           A1           0.23107
           A2           0.00478   0.17475
           A3           0.00133  -0.01438   0.07490
           A4           0.00036   0.01212  -0.00058   0.01306
           A5          -0.00028   0.00100   0.00491  -0.00084   0.00200
           D1           0.01052   0.01550  -0.00074  -0.00254  -0.00293
           D2          -0.00049   0.00001   0.00159  -0.00114   0.00110
                          D1        D2
           D1           0.01757
           D2           0.00163   0.00409
     Eigenvalues ---   -0.07748   0.00149   0.00456   0.01039   0.01856
     Eigenvalues ---    0.06796   0.16976   0.20107   0.22143   0.43568
     Eigenvalues ---    0.54254   0.59556
 Eigenvectors required to have negative eigenvalues:
                          R3        R4        R5        A5        A3
   1                    0.88824  -0.34051   0.24101  -0.15254   0.06967
                          D1        A2        D2        R2        A1
   1                   -0.06927   0.04609  -0.03183  -0.02095   0.01690
 QST in optimization variable space.
                        Tangent   TS vect  // Eig F  Eigenval
   1         R1         0.04149   0.01023  -0.02862  -0.07748
   2         R2         0.25652  -0.02095  -0.00354   0.00149
   3         R3        -0.67013   0.88824  -0.00385   0.00456
   4         R4         0.33432  -0.34051   0.00129   0.01039
   5         R5        -0.45799   0.24101   0.00139   0.01856
   6         A1        -0.15535   0.01690   0.00497   0.06796
   7         A2        -0.13059   0.04609  -0.00196   0.16976
   8         A3        -0.13258   0.06967  -0.00769   0.20107
   9         A4        -0.02632  -0.01075  -0.01105   0.22143
  10         A5        -0.25181  -0.15254   0.00862   0.43568
  11         D1         0.18255  -0.06927   0.00154   0.54254
  12         D2        -0.07544  -0.03183   0.02157   0.59556
 RFO step:  Lambda0=9.422470660D-03 Lambda=-5.55343805D-03.
 Linear search not attempted -- option 19 set.
 Maximum step size (   0.300) exceeded in Quadratic search.
    -- Step size scaled by   0.414
 Iteration  1 RMS(Cart)=  0.05122058 RMS(Int)=  0.02172600
 Iteration  2 RMS(Cart)=  0.01822929 RMS(Int)=  0.00044671
 Iteration  3 RMS(Cart)=  0.00054844 RMS(Int)=  0.00000023
 Iteration  4 RMS(Cart)=  0.00000020 RMS(Int)=  0.00000000
 Variable       Old X    -DE/DX   Delta X   Delta X   Delta X     New X
                                 (Linear)    (Quad)   (Total)
    R1        1.82720   0.00529   0.00000   0.00512   0.00512   1.83232
    R2        2.57524   0.02191   0.00000   0.01456   0.01456   2.58980
    R3        3.48140  -0.03123   0.00000   0.06710   0.06710   3.54850
    R4        1.89303   0.00547   0.00000  -0.05257  -0.05257   1.84047
[...]
     3  O    0.039630  -0.025676   8.226323   0.084141  -0.048978   0.035365
     4  H   -0.015967   0.001116   0.084141   0.364625   0.184166  -0.052460
     5  O   -0.019801  -0.001535  -0.048978   0.184166   7.830079   0.255204
     6  O   -0.002235   0.000277   0.035365  -0.052460   0.255204   7.766918
 Mulliken atomic charges:
              1
     1  O   -0.306098
     2  H    0.384729
     3  O   -0.310806
     4  H    0.434379
     5  O   -0.199136
     6  O   -0.003069
 Sum of Mulliken atomic charges =   0.00000
 Mulliken charges with hydrogens summed into heavy atoms:
              1
     1  O    0.078632
     3  O   -0.310806
     5  O    0.235243
     6  O   -0.003069
 Sum of Mulliken charges with hydrogens summed into heavy atoms =   0.00000
 APT atomic charges:
              1
     1  O   -0.705702
     2  H    0.321708
     3  O    0.198301
     4  H    0.158217
     5  O   -0.150866
     6  O    0.178341
 Sum of APT charges=   0.00000
 APT Atomic charges with hydrogens summed into heavy atoms:
              1
     1  O   -0.383994
     2  H    0.000000
     3  O    0.198301
     4  H    0.000000
     5  O    0.007352
     6  O    0.178341
 Sum of APT charges=   0.00000
 Electronic spatial extent (au):  <R**2>=            318.3781
 Charge=              0.0000 electrons
 Dipole moment (field-independent basis, Debye):
    X=             -1.7633    Y=             -1.0206    Z=              0.5505  Tot=              2.1104
 Quadrupole moment (field-independent basis, Debye-Ang):
   XX=            -18.9844   YY=            -22.2995   ZZ=            -22.3407
   XY=             -0.7308   XZ=             -4.5362   YZ=              0.9295
 Traceless Quadrupole moment (field-independent basis, Debye-Ang):
   XX=              2.2238   YY=             -1.0913   ZZ=             -1.1325
   XY=             -0.7308   XZ=             -4.5362   YZ=              0.9295
 Octapole moment (field-independent basis, Debye-Ang**2):
  XXX=            -16.9251  YYY=             -1.4415  ZZZ=              0.3691  XYY=             -0.0789
  XXY=              1.6168  XXZ=              8.5829  XZZ=             -1.9253  YZZ=             -0.2630
  YYZ=             -0.6009  XYZ=             -0.1984
 Hexadecapole moment (field-independent basis, Debye-Ang**3):
 XXXX=           -238.6643 YYYY=            -43.5853 ZZZZ=            -21.7599 XXXY=             -1.5029
 XXXZ=            -26.5395 YYYX=             -0.9702 YYYZ=              0.8783 ZZZX=             -3.5750
 ZZZY=              0.6749 XXYY=            -57.4932 XXZZ=            -46.8533 YYZZ=            -11.7317
 XXYZ=              0.6796 YYXZ=             -1.6529 ZZXY=             -0.4569
 N-N= 1.245120527593D+02 E-N=-9.608341227856D+02  KE= 2.992472718704D+02
  Exact polarizability:  70.952   1.586  21.481  -2.409   0.214  16.194
 Approx polarizability: 113.070   6.638  29.692  -2.865   0.071  18.086
 Calling FoFJK, ICntrl=    100127 FMM=F ISym2X=0 I1Cent= 0 IOpClX= 0 NMat=1 NMatS=1 NMatT=0.
 Full mass-weighted force constant matrix:
 Low frequencies --- -843.5926   -0.0004    0.0011    0.0015    8.0096   35.9433
 Low frequencies ---   82.5596  124.4522  283.0891
 ******    1 imaginary frequencies (negative Signs) ****** 
 Diagonal vibrational polarizability:
       37.6607414      33.6867597       8.4059068
 Harmonic frequencies (cm**-1), IR intensities (KM/Mole), Raman scattering
 activities (A**4/AMU), depolarization ratios for plane and unpolarized
 incident light, reduced masses (AMU), force constants (mDyne/A),
 and normal coordinates:
                     1                      2                      3
                     A                      A                      A
 Frequencies --  -843.5877               124.1586               282.9223
 Red. masses --     1.1572                 7.0871                 6.3360
 Frc consts  --     0.4852                 0.0644                 0.2988
 IR Inten    --    92.9152                19.7183                19.1508
  Atom  AN      X      Y      Z        X      Y      Z        X      Y      Z
     1   8     0.01   0.03   0.02    -0.23  -0.15   0.19     0.08   0.11   0.16
     2   1    -0.02   0.15   0.00     0.10  -0.40   0.41     0.47  -0.03   0.39
     3   8    -0.03  -0.01  -0.01    -0.06   0.16  -0.37     0.24  -0.06  -0.35
     4   1     0.81  -0.35  -0.44     0.29   0.05  -0.41    -0.41  -0.04   0.32
     5   8     0.03  -0.03   0.02    -0.06  -0.01   0.10     0.01   0.00   0.11
     6   8    -0.07   0.02  -0.01     0.33   0.02   0.07    -0.34  -0.04   0.03
                     4                      5                      6
                     A                      A                      A
 Frequencies --   443.3843               535.5086               644.6687
 Red. masses --     9.9812                 1.1964                 6.1622
 Frc consts  --     1.1561                 0.2021                 1.5089
 IR Inten    --    22.3139               157.5370                16.5920
  Atom  AN      X      Y      Z        X      Y      Z        X      Y      Z
     1   8    -0.26   0.33   0.02    -0.05  -0.06   0.01    -0.15  -0.05  -0.03
     2   1    -0.12  -0.28   0.15     0.08   0.98   0.01    -0.19  -0.51  -0.02
     3   8    -0.20  -0.45  -0.07    -0.01  -0.01  -0.03    -0.06   0.32   0.02
     4   1    -0.07  -0.04   0.53    -0.07   0.03   0.10     0.05  -0.21   0.55
     5   8     0.35   0.12   0.11     0.05   0.00  -0.03     0.38  -0.11  -0.09
     6   8     0.12   0.02  -0.11     0.00   0.00   0.05    -0.17  -0.12   0.06
                     7                      8                      9
                     A                      A                      A
 Frequencies --  1101.1488              1314.6526              1372.4232
 Red. masses --     5.3656                 7.8383                 1.3514
 Frc consts  --     3.8332                 7.9816                 1.4997
 IR Inten    --   501.2270               188.2479                83.6441
  Atom  AN      X      Y      Z        X      Y      Z        X      Y      Z
     1   8     0.34  -0.02   0.12    -0.16   0.01  -0.07     0.03   0.00   0.01
     2   1    -0.10   0.00  -0.12     0.15  -0.09   0.13     0.13   0.01   0.06
     3   8    -0.35   0.01  -0.13     0.17  -0.04   0.04    -0.06   0.00   0.00
     4   1    -0.11  -0.31   0.76    -0.05  -0.31   0.63    -0.16   0.81  -0.52
     5   8     0.00  -0.08  -0.04    -0.04  -0.41  -0.02     0.07  -0.09   0.05
     6   8     0.03   0.11   0.02     0.02   0.47   0.00    -0.04   0.04  -0.03
                    10                     11                     12
                     A                      A                      A
 Frequencies --  1442.3328              2406.2975              3771.2409
 Red. masses --     1.1352                 1.0629                 1.0682
 Frc consts  --     1.3915                 3.6263                 8.9506
 IR Inten    --    57.5896                38.9540               152.6776
  Atom  AN      X      Y      Z        X      Y      Z        X      Y      Z
     1   8     0.00   0.00  -0.06    -0.01   0.00   0.00     0.03   0.00  -0.05
     2   1     0.88  -0.06   0.45    -0.01  -0.02   0.00    -0.50   0.06   0.86
     3   8    -0.05   0.01   0.03     0.02  -0.01  -0.01     0.00   0.00   0.00
     4   1     0.07  -0.11   0.07     0.60   0.59   0.54    -0.01   0.00   0.00
     5   8    -0.01   0.02  -0.01    -0.04   0.00  -0.02     0.00   0.00   0.00
     6   8     0.00  -0.01   0.00     0.00  -0.03   0.00     0.00   0.00   0.00

 -------------------
 - Thermochemistry -
 -------------------
 Temperature   298.150 Kelvin.  Pressure   1.00000 Atm.
 Atom     1 has atomic number  8 and mass  15.99491
 Atom     2 has atomic number  1 and mass   1.00783
 Atom     3 has atomic number  8 and mass  15.99491
 Atom     4 has atomic number  1 and mass   1.00783
 Atom     5 has atomic number  8 and mass  15.99491
 Atom     6 has atomic number  8 and mass  15.99491
 Molecular mass:    65.99531 amu.
 Principal axes and moments of inertia in atomic units:
                           1         2         3
     Eigenvalues --    55.15804 467.51484 510.13979
           X            0.99990  -0.00445  -0.01329
           Y            0.00484   0.99955   0.02960
           Z            0.01315  -0.02966   0.99947
 This molecule is an asymmetric top.
 Rotational symmetry number  1.
 Rotational temperatures (Kelvin)      1.57028     0.18526     0.16978
 Rotational constants (GHZ):          32.71946     3.86029     3.53774
    1 imaginary frequencies ignored.
 Zero-point vibrational energy      80381.5 (Joules/Mol)
                                   19.21164 (Kcal/Mol)
 Warning -- explicit consideration of   4 degrees of freedom as
           vibrations may cause significant error
 Vibrational temperatures:    178.64   407.06   637.93   770.48   927.53
          (Kelvin)           1584.31  1891.49  1974.61  2075.19  3462.12
                             5425.97
 
 Zero-point correction=                           0.030616 (Hartree/Particle)
 Thermal correction to Energy=                    0.035235
 Thermal correction to Enthalpy=                  0.036179
 Thermal correction to Gibbs Free Energy=         0.003389
 Sum of electronic and zero-point Energies=           -301.596074
 Sum of electronic and thermal Energies=              -301.591455
 Sum of electronic and thermal Enthalpies=            -301.590510
 Sum of electronic and thermal Free Energies=         -301.623301
 
                     E (Thermal)             CV                S
                      KCal/Mol        Cal/Mol-Kelvin    Cal/Mol-Kelvin
 Total                   22.110             13.712             69.013
 Electronic               0.000              0.000              0.000
 Translational            0.889              2.981             38.479
 Rotational               0.889              2.981             24.090
 Vibrational             20.333              7.750              6.444
 Vibration     1          0.610              1.929              3.035
 Vibration     2          0.682              1.705              1.516
 Vibration     3          0.803              1.375              0.816
 Vibration     4          0.891              1.171              0.575
                       Q            Log10(Q)             Ln(Q)
 Total Bot       0.276167D-01         -1.558828         -3.589335
 Total V=0       0.333722D+13         12.523385         28.836160
 Vib (Bot)       0.319193D-13        -13.495946        -31.075565
 Vib (Bot)    1  0.164433D+01          0.215988          0.497332
 Vib (Bot)    2  0.678505D+00         -0.168447         -0.387863
 Vib (Bot)    3  0.388838D+00         -0.410231         -0.944593
 Vib (Bot)    4  0.297114D+00         -0.527077         -1.213640
 Vib (V=0)       0.385716D+01          0.586267          1.349930
 Vib (V=0)    1  0.221867D+01          0.346092          0.796906
 Vib (V=0)    2  0.134283D+01          0.128022          0.294782
 Vib (V=0)    3  0.113340D+01          0.054383          0.125221
 Vib (V=0)    4  0.108162D+01          0.034073          0.078456
 Electronic      0.100000D+01          0.000000          0.000000
 Translational   0.210729D+08          7.323725         16.863500
 Rotational      0.410576D+05          4.613393         10.622730
 ***** Axes restored to original set *****
 -------------------------------------------------------------------
 Center     Atomic                   Forces (Hartrees/Bohr)
 Number     Number              X              Y              Z
 -------------------------------------------------------------------
      1        8           0.000041759    0.000060740   -0.000054480
      2        1           0.000043514    0.000011208   -0.000060978
      3        8          -0.000022349   -0.000091994    0.000000375
      4        1          -0.000130158   -0.000062326    0.000079775
      5        8           0.000226616   -0.000034879   -0.000189758
      6        8          -0.000159381    0.000117251    0.000225067
 -------------------------------------------------------------------
 Cartesian Forces:  Max     0.000226616 RMS     0.000112713

 GradGradGradGradGradGradGradGradGradGradGradGradGradGradGradGradGradGrad
 Berny optimization.
 Internal  Forces:  Max     0.000236470 RMS     0.000105833
 Search for a saddle point.
 Step number   1 out of a maximum of    2
 All quantities printed in internal units (Hartrees-Bohrs-Radians)
 Swaping is turned off.
 Second derivative matrix not updated -- analytic derivatives used.
 The second derivative matrix:
                          R1        R2        R3        R4        R5
           R1           0.51005
           R2           0.01056   0.41157
           R3          -0.00117   0.02026   0.09630
           R4           0.00293  -0.01061   0.12446   0.23793
           R5          -0.00659   0.04098  -0.03389   0.09914   0.55076
           A1          -0.00362   0.07762   0.00006   0.00852  -0.00285
           A2           0.00017   0.02080  -0.01490   0.06668  -0.01784
           A3           0.00150   0.00107  -0.02145   0.01583   0.23549
           A4           0.00228   0.00829   0.09646   0.02860   0.10280
           A5          -0.00099   0.01233   0.05399   0.00273  -0.03211
           D1          -0.00009  -0.00048  -0.00652   0.01721  -0.00484
           D2           0.00020  -0.00157   0.01030  -0.00787  -0.00087
                          A1        A2        A3        A4        A5
           A1           0.23659
           A2           0.00976   0.08343
           A3           0.00011   0.08580   0.31664
           A4           0.00785   0.07643  -0.00723   0.08621
           A5           0.00151  -0.00957  -0.02676   0.02473   0.09843
           D1           0.00059   0.01246   0.02916   0.00662   0.00513
           D2           0.00062   0.00080  -0.04708  -0.02710   0.01380
                          D1        D2
           D1           0.02887
           D2           0.01084   0.01320
     Eigenvalues ---   -0.11622   0.00447   0.02224   0.05085   0.09958
     Eigenvalues ---    0.13451   0.20353   0.23364   0.34586   0.44146
     Eigenvalues ---    0.51139   0.73869
 Eigenvectors required to have negative eigenvalues:
                          A4        R3        A2        R4        D2
   1                    0.52995  -0.47819  -0.45499   0.28321   0.26277
                          R5        A3        D1        R2        A1
   1                   -0.24732   0.23645  -0.11567   0.05602  -0.02076
 Angle between quadratic step and forces=  71.16 degrees.
 Linear search not attempted -- option 19 set.
 Iteration  1 RMS(Cart)=  0.00168648 RMS(Int)=  0.00000582
 Iteration  2 RMS(Cart)=  0.00000573 RMS(Int)=  0.00000000
 Iteration  3 RMS(Cart)=  0.00000000 RMS(Int)=  0.00000000
 Variable       Old X    -DE/DX   Delta X   Delta X   Delta X     New X
                                 (Linear)    (Quad)   (Total)
    R1        1.83580   0.00000   0.00000  -0.00001  -0.00001   1.83579
    R2        2.55046  -0.00010   0.00000  -0.00020  -0.00020   2.55027
    R3        2.70003   0.00001   0.00000   0.00098   0.00098   2.70101
    R4        2.02968   0.00013   0.00000   0.00034   0.00034   2.03002
    R5        2.40514  -0.00024   0.00000  -0.00048  -0.00048   2.40466
    A1        1.81609  -0.00004   0.00000  -0.00016  -0.00016   1.81593
    A2        2.25490   0.00006   0.00000   0.00126   0.00126   2.25615
    A3        1.70876  -0.00015   0.00000   0.00028   0.00028   1.70905
    A4        2.17382  -0.00009   0.00000  -0.00077  -0.00077   2.17305
    A5        2.46577  -0.00011   0.00000  -0.00178  -0.00178   2.46399
    D1        2.47851  -0.00004   0.00000  -0.00328  -0.00328   2.47523
    D2        1.93733   0.00001   0.00000   0.00372   0.00372   1.94105
         Item               Value     Threshold  Converged?
 Maximum Force            0.000236     0.000450     YES
 RMS     Force            0.000106     0.000300     YES
 Maximum Displacement     0.002903     0.001800     NO 
 RMS     Displacement     0.001689     0.001200     NO 
 Predicted change in Energy=-3.318899D-07
 GradGradGradGradGradGradGradGradGradGradGradGradGradGradGradGradGradGrad

 1|1|UNPC-DESKTOP-319GPER|Freq|RM062X|6-31+G(d,p)|H2O4|SAGAD|08-Feb-202
 1|0||#N Geom=AllCheck Guess=TCheck SCRF=Check GenChk RM062X/6-31+G(d,p
 ) Freq||products||0,1|O,-0.2026994091,-0.0571487123,-0.0382349639|H,-0
 .6686512403,-0.2354722593,-0.8717986309|O,0.5997645449,0.9884778812,-0
 .3285181245|H,0.9434022301,2.1148705973,0.4805605053|O,1.7599404936,2.
 7011641019,0.102233283|O,2.5171830609,1.7404506712,-0.2491778991||Vers
 ion=IA32W-G09RevA.02|State=1-A|HF=-301.6266899|RMSD=2.731e-010|RMSF=1.
 127e-004|ZeroPoint=0.0306157|Thermal=0.0352353|Dipole=-0.8075344,-0.15
 47554,-0.115517|DipoleDeriv=-1.02631,-0.74182,-0.0054982,-0.8930382,-1
 .0357307,-0.0711135,0.1658816,0.0534537,-0.0550645,0.3759601,-0.022999
 1,-0.0165966,-0.0152475,0.3454571,0.0436804,0.0955152,0.148668,0.24370
 59,0.3654927,0.4889017,-0.0911838,0.9448188,0.5656296,-0.0022337,-0.22
 18597,-0.2104828,-0.3362193,0.0888503,-0.1030704,0.0426452,-0.3215527,
 0.0550021,0.0075409,0.0593494,0.1263957,0.3307996,0.8297172,0.846271,0
 .1103313,-0.752131,-1.0716,-0.2473113,-0.4768019,-0.5966058,-0.210714,
 -0.6337102,-0.4672832,-0.0396979,1.0371505,1.1412418,0.2694371,0.37791
 54,0.4785712,0.0274924|Polar=49.0495673,24.7967205,42.4965309,1.951643
 3,4.101289,17.0811192|PG=C01 [X(H2O4)]|NImag=1||0.25811912,0.20392955,
 0.26651105,0.16583638,-0.00233172,0.47985359,-0.11538161,-0.04493274,-
 0.17538634,0.13852018,-0.03204689,-0.03418954,-0.02729870,0.06573510,0
 .05995701,-0.20564907,-0.06559500,-0.41101633,0.19253282,0.05787967,0.
 39099154,-0.14528835,-0.14177505,0.02202485,-0.02509440,-0.02854766,0.
 01382964,0.23090557,-0.14921046,-0.22391737,0.02755386,-0.01879063,-0.
 02737139,0.00558945,0.17939632,0.33364258,0.04632055,0.06417512,-0.080
 56579,-0.01610678,-0.03430346,0.01943823,-0.04000044,-0.00504415,0.095
 26602,-0.01600530,-0.01093914,0.00383135,-0.00168566,0.00250016,0.0018
 7350,0.01204858,0.03233989,0.02129950,0.12454838,-0.01970074,-0.017288
 16,0.01581969,-0.00047114,0.00629322,0.00232028,0.02858148,0.02535628,
 0.00476510,-0.00843825,0.03057047,0.00175087,0.01011238,0.00800584,0.0
 0122276,0.00079970,-0.00099058,-0.00596640,-0.02126091,-0.03943730,-0.
 09587356,-0.04440939,0.09495789,0.02012774,0.02511608,-0.01596036,-0.0
 0011784,-0.00721374,-0.00435053,-0.03798391,-0.11245845,-0.02344169,-0
 .05373194,-0.00995208,0.07080100,0.29233134,-0.02991486,-0.01079002,-0
 .00396753,-0.00366653,0.00149075,0.00588294,-0.02168160,-0.07600604,-0
 .03673096,-0.05923786,-0.09547488,0.06551557,-0.08825520,0.46306616,-0
 .02518020,-0.00987143,0.01002551,0.00180315,0.00130948,0.00213814,0.02
 637502,0.00048395,0.00673856,0.03118982,0.03325564,-0.06097051,-0.1056
 6473,0.04877973,0.09477805,-0.00157160,-0.03139870,-0.00034588,0.00375
 933,-0.00042696,0.00176363,-0.03458748,0.06872332,0.01192886,-0.065174
 05,0.00998074,0.02806533,-0.22062540,0.20275605,0.07147693,0.31819920,
 0.02694341,0.01967405,-0.00977560,0.00212593,-0.00618006,-0.00607734,-
 0.01597349,-0.03170406,0.00713834,0.04377521,0.05054307,-0.01075735,0.
 19276339,-0.28228596,-0.07395737,-0.24963446,0.24995297,0.01692146,0.0
 0351064,-0.00630283,-0.00406562,0.00161331,-0.00056101,-0.01626267,-0.
 00732219,-0.00143972,0.03767939,-0.01175133,-0.00156535,0.07861631,-0.
 07947975,-0.05270975,-0.11288887,0.09342931,0.06257866||-0.00004176,-0
 .00006074,0.00005448,-0.00004351,-0.00001121,0.00006098,0.00002235,0.0
 0009199,-0.00000037,0.00013016,0.00006233,-0.00007977,-0.00022662,0.00
 003488,0.00018976,0.00015938,-0.00011725,-0.00022507|||@


 NATURE WILL TELL YOU A DIRECT LIE IF SHE CAN.

                                -- CHARLES DARWIN
 Job cpu time:  0 days  0 hours  0 minutes 24.0 seconds.
 File lengths (MBytes):  RWF=      9 Int=      0 D2E=      0 Chk=      1 Scr=      1
 Normal termination of Gaussian 09 at Mon Feb 08 21:51:35 2021.
