 Entering Link 1 = C:\G09W\l1.exe PID=     13932.
  
 Copyright (c) 1988,1990,1992,1993,1995,1998,2003,2009, Gaussian, Inc.
                  All Rights Reserved.
  
 This is part of the Gaussian(R) 09 program.  It is based on
 the Gaussian(R) 03 system (copyright 2003, Gaussian, Inc.),
 the Gaussian(R) 98 system (copyright 1998, Gaussian, Inc.),
 the Gaussian(R) 94 system (copyright 1995, Gaussian, Inc.),
 the Gaussian 92(TM) system (copyright 1992, Gaussian, Inc.),
 the Gaussian 90(TM) system (copyright 1990, Gaussian, Inc.),
 the Gaussian 88(TM) system (copyright 1988, Gaussian, Inc.),
 the Gaussian 86(TM) system (copyright 1986, Carnegie Mellon
 University), and the Gaussian 82(TM) system (copyright 1983,
 Carnegie Mellon University). Gaussian is a federally registered
 trademark of Gaussian, Inc.
  
 This software contains proprietary and confidential information,
 including trade secrets, belonging to Gaussian, Inc.
  
 This software is provided under written license and may be
 used, copied, transmitted, or stored only in accord with that
 written license.
  
 The following legend is applicable only to US Government
 contracts under FAR:
  
                    RESTRICTED RIGHTS LEGEND
  
 Use, reproduction and disclosure by the US Government is
 subject to restrictions as set forth in subparagraphs (a)
 and (c) of the Commercial Computer Software - Restricted
 Rights clause in FAR 52.227-19.
  
 Gaussian, Inc.
 340 Quinnipiac St., Bldg. 40, Wallingford CT 06492
  
  
 ---------------------------------------------------------------
 Warning -- This program may not be used in any manner that
 competes with the business of Gaussian, Inc. or will provide
 assistance to any competitor of Gaussian, Inc.  The licensee
 of this program is prohibited from giving any competitor of
 Gaussian, Inc. access to this program.  By using this program,
 the user acknowledges that Gaussian, Inc. is engaged in the
 business of creating and licensing software in the field of
 computational chemistry and represents and warrants to the
 licensee that it is not a competitor of Gaussian, Inc. and that
 it will not use this program in any manner prohibited above.
 ---------------------------------------------------------------
  

 Cite this work as:
 Gaussian 09, Revision A.02,
 M. J. Frisch, G. W. Trucks, H. B. Schlegel, G. E. Scuseria, 
 M. A. Robb, J. R. Cheeseman, G. Scalmani, V. Barone, B. Mennucci, 
 G. A. Petersson, H. Nakatsuji, M. Caricato, X. Li, H. P. Hratchian, 
 A. F. Izmaylov, J. Bloino, G. Zheng, J. L. Sonnenberg, M. Hada, 
 M. Ehara, K. Toyota, R. Fukuda, J. Hasegawa, M. Ishida, T. Nakajima, 
 Y. Honda, O. Kitao, H. Nakai, T. Vreven, J. A. Montgomery, Jr., 
 J. E. Peralta, F. Ogliaro, M. Bearpark, J. J. Heyd, E. Brothers, 
 K. N. Kudin, V. N. Staroverov, R. Kobayashi, J. Normand, 
 K. Raghavachari, A. Rendell, J. C. Burant, S. S. Iyengar, J. Tomasi, 
 M. Cossi, N. Rega, J. M. Millam, M. Klene, J. E. Knox, J. B. Cross, 
 V. Bakken, C. Adamo, J. Jaramillo, R. Gomperts, R. E. Stratmann, 
 O. Yazyev, A. J. Austin, R. Cammi, C. Pomelli, J. W. Ochterski, 
 R. L. Martin, K. Morokuma, V. G. Zakrzewski, G. A. Voth, 
 P. Salvador, J. J. Dannenberg, S. Dapprich, A. D. Daniels, 
 O. Farkas, J. B. Foresman, J. V. Ortiz, J. Cioslowski, 
 and D. J. Fox, Gaussian, Inc., Wallingford CT, 2009.
 
 ******************************************
 Gaussian 09:  IA32W-G09RevA.02 11-Jun-2009
                07-Feb-2021 
 ******************************************
 %chk=D:\Documents\rayGit\FQ\quimicaComputacional\proyecto\decompositionHydrogenP
 eroxide\descompositionByRadicals\gasPhase\step3\ts\tsM062X.chk
 %mem=1500MB
 %nprocshared=4
 Will use up to    4 processors via shared memory.
 --------------------------------------------------------
 # opt=(calcfc,ts,noeigen) freq=noraman 6-31+g(d,p) m062x
 --------------------------------------------------------
 1/5=1,10=4,11=1,14=-1,18=20,26=3,38=1/1,3;
 2/9=110,12=2,17=6,18=5,40=1/2;
 3/5=1,6=6,7=111,11=2,16=1,25=1,30=1,71=2,74=-55/1,2,3;
 4//1;
 5/5=2,38=5/2;
 8/6=4,10=90,11=11/1;
 11/6=1,8=1,9=11,15=111,16=1/1,2,10;
 10/6=1,7=6,13=1/2;
 6/7=2,8=2,9=2,10=2,28=1/1;
 7/10=1,18=20,25=1/1,2,3,16;
 1/5=1,10=4,11=1,14=-1,18=20/3(2);
 2/9=110/2;
 99//99;
 2/9=110/2;
 3/5=1,6=6,7=111,11=2,16=1,25=1,30=1,71=1,74=-55/1,2,3;
 4/5=5,16=3/1;
 5/5=2,38=5/2;
 7//1,2,3,16;
 1/5=1,11=1,14=-1,18=20/3(-5);
 2/9=110/2;
 6/7=2,8=2,9=2,10=2,19=2,28=1/1;
 99/9=1/99;
 ---
 ts3
 ---
 Symbolic Z-matrix:
 Charge =  0 Multiplicity = 1
 O                    -0.65177  -0.0075    0. 
 H                    -0.97222  -0.0075   -0.90494 
 O                     0.66823  -0.0075    0. 
 H                     1.10157   1.21815   0. 
 O                     1.6349    2.72665   0. 
 O                     2.9549    2.72665   0. 
 

 GradGradGradGradGradGradGradGradGradGradGradGradGradGradGradGradGradGrad
 Berny optimization.
 Initialization pass.
                           ----------------------------
                           !    Initial Parameters    !
                           ! (Angstroms and Degrees)  !
 --------------------------                            --------------------------
 ! Name  Definition              Value          Derivative Info.                !
 --------------------------------------------------------------------------------
 ! R1    R(1,2)                  0.96           calculate D2E/DX2 analytically  !
 ! R2    R(1,3)                  1.32           calculate D2E/DX2 analytically  !
 ! R3    R(3,4)                  1.3            calculate D2E/DX2 analytically  !
 ! R4    R(4,5)                  1.6            calculate D2E/DX2 analytically  !
 ! R5    R(5,6)                  1.32           calculate D2E/DX2 analytically  !
 ! A1    A(2,1,3)              109.5            calculate D2E/DX2 analytically  !
 ! A2    A(1,3,4)              109.4712         calculate D2E/DX2 analytically  !
 ! A3    A(4,5,6)              109.4712         calculate D2E/DX2 analytically  !
 ! A4    L(3,4,5,1,-1)         180.0            calculate D2E/DX2 analytically  !
 ! A5    L(3,4,5,1,-2)         180.0            calculate D2E/DX2 analytically  !
 ! D1    D(2,1,3,4)             90.0            calculate D2E/DX2 analytically  !
 ! D2    D(1,3,5,6)            180.0            calculate D2E/DX2 analytically  !
 --------------------------------------------------------------------------------
 Trust Radius=3.00D-01 FncErr=1.00D-07 GrdErr=1.00D-06
 Number of steps in this run=  22 maximum allowed number of steps= 100.
 Search for a saddle point of order  1.
 GradGradGradGradGradGradGradGradGradGradGradGradGradGradGradGradGradGrad

                          Input orientation:                          
 ---------------------------------------------------------------------
 Center     Atomic      Atomic             Coordinates (Angstroms)
 Number     Number       Type             X           Y           Z
 ---------------------------------------------------------------------
      1          8           0       -0.651768   -0.007500    0.000000
      2          1           0       -0.972222   -0.007500   -0.904936
      3          8           0        0.668232   -0.007500    0.000000
      4          1           0        1.101566    1.218152    0.000000
      5          8           0        1.634899    2.726646    0.000000
      6          8           0        2.954899    2.726646    0.000000
 ---------------------------------------------------------------------
                    Distance matrix (angstroms):
                    1          2          3          4          5
     1  O    0.000000
     2  H    0.960000   0.000000
     3  O    1.320000   1.873499   0.000000
     4  H    2.139252   2.573272   1.300000   0.000000
     5  O    3.564323   3.884784   2.900000   1.600000   0.000000
     6  O    4.525881   4.869984   3.564323   2.389644   1.320000
                    6
     6  O    0.000000
 Stoichiometry    H2O4
 Framework group  C1[X(H2O4)]
 Deg. of freedom    12
 Full point group                 C1      NOp   1
 Largest Abelian subgroup         C1      NOp   1
 Largest concise Abelian subgroup C1      NOp   1
                         Standard orientation:                         
 ---------------------------------------------------------------------
 Center     Atomic      Atomic             Coordinates (Angstroms)
 Number     Number       Type             X           Y           Z
 ---------------------------------------------------------------------
      1          8           0       -2.162237   -0.304450   -0.088358
      2          1           0       -2.404525   -0.591788    0.795007
      3          8           0       -1.235513    0.632132   -0.008379
      4          1           0       -0.058796    0.079739   -0.022510
      5          8           0        1.389471   -0.600129   -0.039902
      6          8           0        2.316194    0.336453    0.040077
 ---------------------------------------------------------------------
 Rotational constants (GHZ):     30.4813507      2.2721264      2.1282790
 Standard basis: 6-31+G(d,p) (6D, 7F)
 There are    86 symmetry adapted basis functions of A   symmetry.
 Integral buffers will be    262144 words long.
 Raffenetti 2 integral format.
 Two-electron integral symmetry is turned on.
    86 basis functions,   142 primitive gaussians,    86 cartesian basis functions
    17 alpha electrons       17 beta electrons
       nuclear repulsion energy       107.9660735029 Hartrees.
 NAtoms=    6 NActive=    6 NUniq=    6 SFac= 7.50D-01 NAtFMM=   80 NAOKFM=F Big=F
 One-electron integrals computed using PRISM.
 NBasis=    86 RedAO= T  NBF=    86
 NBsUse=    86 1.00D-06 NBFU=    86
 Harris functional with IExCor= 1009 diagonalized for initial guess.
 ExpMin= 8.45D-02 ExpMax= 5.48D+03 ExpMxC= 8.25D+02 IAcc=2 IRadAn=         0 AccDes= 0.00D+00
 HarFok:  IExCor= 1009 AccDes= 0.00D+00 IRadAn=         0 IDoV= 1
 ScaDFX=  1.000000  1.000000  1.000000  1.000000
 FoFCou: FMM=F IPFlag=           0 FMFlag=      100000 FMFlg1=           0
         NFxFlg=           0 DoJE=T BraDBF=F KetDBF=T FulRan=T
         Omega=  0.000000  0.000000  1.000000  0.000000  0.000000 ICntrl=     500 IOpCl=  0
         NMat0=    1 NMatS0=    1 NMatT0=    0 NMatD0=    1 NMtDS0=    0 NMtDT0=    0
         I1Cent=           4 NGrid=           0.
 Petite list used in FoFCou.
 Initial guess orbital symmetries:
       Occupied  (A) (A) (A) (A) (A) (A) (A) (A) (A) (A) (A) (A)
                 (A) (A) (A) (A) (A)
       Virtual   (A) (A) (A) (A) (A) (A) (A) (A) (A) (A) (A) (A)
                 (A) (A) (A) (A) (A) (A) (A) (A) (A) (A) (A) (A)
                 (A) (A) (A) (A) (A) (A) (A) (A) (A) (A) (A) (A)
                 (A) (A) (A) (A) (A) (A) (A) (A) (A) (A) (A) (A)
                 (A) (A) (A) (A) (A) (A) (A) (A) (A) (A) (A) (A)
                 (A) (A) (A) (A) (A) (A) (A) (A) (A)
 The electronic state of the initial guess is 1-A.
 Requested convergence on RMS density matrix=1.00D-08 within 128 cycles.
 Requested convergence on MAX density matrix=1.00D-06.
 Requested convergence on             energy=1.00D-06.
 No special actions if energy rises.
 Keep R1 ints in memory in canonical form, NReq=7993047.
 Integral accuracy reduced to 1.0D-05 until final iterations.
 Problem detected with inexpensive integrals.
 Switching to full accuracy and repeating last cycle.
 SCF Done:  E(RM062X) =  -301.615093512     A.U. after   30 cycles
             Convg  =    0.3861D-08             -V/T =  2.0093
 Range of M.O.s used for correlation:     1    86
 NBasis=    86 NAE=    17 NBE=    17 NFC=     0 NFV=     0
 NROrb=     86 NOA=    17 NOB=    17 NVA=    69 NVB=    69

 **** Warning!!: The largest alpha MO coefficient is  0.16651669D+02

 Symmetrizing basis deriv contribution to polar:
 IMax=3 JMax=2 DiffMx= 0.00D+00
 G2DrvN: will do     7 centers at a time, making    1 passes doing MaxLOS=2.
 Calling FoFCou, ICntrl=  3107 FMM=F I1Cent=   0 AccDes= 0.00D+00.
 FoFDir/FoFCou used for L=0 through L=2.
 End of G2Drv Frequency-dependent properties file   721 does not exist.
 End of G2Drv Frequency-dependent properties file   722 does not exist.
          IDoAtm=111111
          Differentiating once with respect to nuclear coordinates.
          Keep R1 ints in memory in canonical form, NReq=7820771.
          There are    21 degrees of freedom in the 1st order CPHF.  IDoFFX=5.
     15 vectors produced by pass  0 Test12= 5.59D-11 4.76D-07 XBig12= 8.09D-02 1.35D-01.
 AX will form    15 AO Fock derivatives at one time.
     15 vectors produced by pass  1 Test12= 5.59D-11 4.76D-07 XBig12= 8.09D-03 5.24D-02.
     15 vectors produced by pass  2 Test12= 5.59D-11 4.76D-07 XBig12= 3.49D-04 5.34D-03.
     15 vectors produced by pass  3 Test12= 5.59D-11 4.76D-07 XBig12= 5.51D-06 5.10D-04.
     15 vectors produced by pass  4 Test12= 5.59D-11 4.76D-07 XBig12= 3.80D-08 4.64D-05.
     10 vectors produced by pass  5 Test12= 5.59D-11 4.76D-07 XBig12= 2.48D-10 4.42D-06.
 Inverted reduced A of dimension    85 with in-core refinement.
 End of Minotr Frequency-dependent properties file   721 does not exist.
 End of Minotr Frequency-dependent properties file   722 does not exist.

 **********************************************************************

            Population analysis using the SCF density.

 **********************************************************************

 Orbital symmetries:
       Occupied  (A) (A) (A) (A) (A) (A) (A) (A) (A) (A) (A) (A)
                 (A) (A) (A) (A) (A)
       Virtual   (A) (A) (A) (A) (A) (A) (A) (A) (A) (A) (A) (A)
                 (A) (A) (A) (A) (A) (A) (A) (A) (A) (A) (A) (A)
                 (A) (A) (A) (A) (A) (A) (A) (A) (A) (A) (A) (A)
                 (A) (A) (A) (A) (A) (A) (A) (A) (A) (A) (A) (A)
                 (A) (A) (A) (A) (A) (A) (A) (A) (A) (A) (A) (A)
                 (A) (A) (A) (A) (A) (A) (A) (A) (A)
 The electronic state is 1-A.
 Alpha  occ. eigenvalues --  -19.88822 -19.88482 -19.68322 -19.68205  -1.40059
 Alpha  occ. eigenvalues --   -1.27160  -1.01354  -0.93828  -0.67206  -0.64989
 Alpha  occ. eigenvalues --   -0.61088  -0.60661  -0.53456  -0.50183  -0.44157
 Alpha  occ. eigenvalues --   -0.33384  -0.32044
 Alpha virt. eigenvalues --   -0.21203   0.03724   0.05718   0.08636   0.11319
 Alpha virt. eigenvalues --    0.12050   0.16444   0.16809   0.17125   0.17715
 Alpha virt. eigenvalues --    0.19028   0.20974   0.22165   0.23454   0.24557
 Alpha virt. eigenvalues --    0.27359   0.27995   0.31952   0.32729   0.38597
 Alpha virt. eigenvalues --    0.41401   1.00575   1.02929   1.05652   1.06950
 Alpha virt. eigenvalues --    1.10177   1.10634   1.14639   1.15877   1.17988
 Alpha virt. eigenvalues --    1.20004   1.21668   1.23544   1.28123   1.30586
 Alpha virt. eigenvalues --    1.32428   1.38473   1.45671   1.46642   1.53157
 Alpha virt. eigenvalues --    1.54909   1.55464   1.59208   1.62695   1.68657
 Alpha virt. eigenvalues --    1.73570   1.76957   1.83219   1.88197   2.12633
 Alpha virt. eigenvalues --    2.19213   2.22113   2.27455   2.31625   2.33987
 Alpha virt. eigenvalues --    2.43869   2.47230   2.54759   2.68466   2.72993
 Alpha virt. eigenvalues --    2.98216   3.00853   3.09332   3.32105   3.46058
 Alpha virt. eigenvalues --    3.66791   3.92481   4.08860   4.30633
          Condensed to atoms (all electrons):
              1          2          3          4          5          6
     1  O    8.093713   0.254893   0.087369  -0.054178   0.016603  -0.004575
     2  H    0.254893   0.438913  -0.048511  -0.001220  -0.000337  -0.000112
     3  O    0.087369  -0.048511   8.149211   0.209589  -0.017181   0.010784
     4  H   -0.054178  -0.001220   0.209589   0.501140  -0.023138   0.006838
     5  O    0.016603  -0.000337  -0.017181  -0.023138   7.647907   0.363077
     6  O   -0.004575  -0.000112   0.010784   0.006838   0.363077   7.569313
 Mulliken atomic charges:
              1
     1  O   -0.393826
     2  H    0.356373
     3  O   -0.391261
     4  H    0.360969
     5  O    0.013069
     6  O    0.054676
 Sum of Mulliken atomic charges =   0.00000
 Mulliken charges with hydrogens summed into heavy atoms:
              1
     1  O   -0.037452
     3  O   -0.030293
     5  O    0.013069
     6  O    0.054676
 Sum of Mulliken charges with hydrogens summed into heavy atoms =   0.00000
 APT atomic charges:
              1
     1  O   -0.755268
     2  H    0.629379
     3  O   -0.327076
     4  H    0.390498
     5  O   -0.238141
     6  O    0.300607
 Sum of APT charges=   0.00000
 APT Atomic charges with hydrogens summed into heavy atoms:
              1
     1  O   -0.125889
     2  H    0.000000
     3  O    0.063423
     4  H    0.000000
     5  O   -0.238141
     6  O    0.300607
 Sum of APT charges=   0.00000
 Electronic spatial extent (au):  <R**2>=            488.0920
 Charge=              0.0000 electrons
 Dipole moment (field-independent basis, Debye):
    X=              2.8844    Y=             -1.5393    Z=              1.6623  Tot=              3.6678
 Quadrupole moment (field-independent basis, Debye-Ang):
   XX=            -22.6333   YY=            -24.1258   ZZ=            -21.0357
   XY=              3.1209   XZ=             -4.3040   YZ=             -1.2668
 Traceless Quadrupole moment (field-independent basis, Debye-Ang):
   XX=             -0.0350   YY=             -1.5276   ZZ=              1.5626
   XY=              3.1209   XZ=             -4.3040   YZ=             -1.2668
 Octapole moment (field-independent basis, Debye-Ang**2):
  XXX=              7.3407  YYY=             -1.9704  ZZZ=              1.7194  XYY=              1.9761
  XXY=             -2.8566  XXZ=             10.9698  XZZ=              0.8563  YZZ=             -1.5463
  YYZ=              0.9716  XYZ=              2.7106
 Hexadecapole moment (field-independent basis, Debye-Ang**3):
 XXXX=           -460.7862 YYYY=            -52.9680 ZZZZ=            -18.2231 XXXY=             18.2175
 XXXZ=            -28.1956 YYYX=              4.1384 YYYZ=             -1.1219 ZZZX=             -4.3624
 ZZZY=             -1.2466 XXYY=            -85.9146 XXZZ=            -71.0561 YYZZ=            -11.5677
 XXYZ=             -7.0505 YYXZ=             -2.2898 ZZXY=              2.6566
 N-N= 1.079660735029D+02 E-N=-9.273408573257D+02  KE= 2.988387415476D+02
  Exact polarizability:   0.000   0.000   0.000   0.000   0.000   0.000
 Approx polarizability:  46.141   8.824  29.235   0.098  -0.103  17.742
 Calling FoFJK, ICntrl=    100147 FMM=F ISym2X=0 I1Cent= 0 IOpClX= 0 NMat=1 NMatS=1 NMatT=0.
 ***** Axes restored to original set *****
 -------------------------------------------------------------------
 Center     Atomic                   Forces (Hartrees/Bohr)
 Number     Number              X              Y              Z
 -------------------------------------------------------------------
      1        8          -0.080516714    0.007445913    0.017139153
      2        1           0.005180955   -0.001763308   -0.010913670
      3        8           0.114951105    0.090079067   -0.007277547
      4        1          -0.040390165   -0.100569043    0.000794897
      5        8           0.147874012    0.005874597   -0.000058298
      6        8          -0.147099193   -0.001067226    0.000315464
 -------------------------------------------------------------------
 Cartesian Forces:  Max     0.147874012 RMS     0.068170102

 GradGradGradGradGradGradGradGradGradGradGradGradGradGradGradGradGradGrad
 Berny optimization.
 Internal  Forces:  Max     0.147102592 RMS     0.056681562
 Search for a saddle point.
 Step number   1 out of a maximum of   22
 All quantities printed in internal units (Hartrees-Bohrs-Radians)
 Swaping is turned off.
 Second derivative matrix not updated -- analytic derivatives used.
 The second derivative matrix:
                          R1        R2        R3        R4        R5
           R1           0.54507
           R2           0.00748   0.58839
           R3          -0.00080   0.01696   0.01199
           R4          -0.00056   0.01113   0.01658   0.00617
           R5          -0.00096   0.00360   0.00346   0.00480   0.36017
           A1          -0.00403   0.07126  -0.00022   0.00196   0.00028
           A2          -0.00093   0.05795  -0.01032   0.00142  -0.00468
           A3           0.00002  -0.00021   0.00040  -0.00206   0.00720
           A4           0.00048  -0.00389   0.00044   0.00131   0.00229
           A5           0.00027   0.00007   0.00006  -0.00064  -0.00008
           D1           0.00038   0.00307   0.00236   0.00196  -0.00041
           D2          -0.00027   0.00056   0.00009  -0.00002  -0.00269
                          A1        A2        A3        A4        A5
           A1           0.23921
           A2           0.00624   0.20584
           A3           0.00047  -0.01141   0.04076
           A4          -0.00075  -0.01077   0.00047   0.01069
           A5           0.00041  -0.00084   0.00055  -0.00136   0.00390
           D1           0.01112   0.01501  -0.00178   0.00243   0.00059
           D2          -0.00042   0.00015  -0.00025   0.00027  -0.00084
                          D1        D2
           D1           0.02131
           D2           0.00089   0.00293
     Eigenvalues ---   -0.00824   0.00229   0.00402   0.00960   0.01835
     Eigenvalues ---    0.02668   0.04013   0.19994   0.22637   0.36063
     Eigenvalues ---    0.54458   0.61208
 Eigenvectors required to have negative eigenvalues:
                          R4        R3        A4        A2        D1
   1                    0.75431  -0.64988  -0.06164  -0.04227   0.03188
                          A5        A3        A1        R2        D2
   1                    0.03090   0.02934  -0.00985   0.00915   0.00700
 RFO step:  Lambda0=6.892907839D-02 Lambda=-1.03271808D-01.
 Linear search not attempted -- option 19 set.
 Maximum step size (   0.300) exceeded in Quadratic search.
    -- Step size scaled by   0.255
 Iteration  1 RMS(Cart)=  0.06992966 RMS(Int)=  0.02367349
 Iteration  2 RMS(Cart)=  0.02590275 RMS(Int)=  0.00004999
 Iteration  3 RMS(Cart)=  0.00005949 RMS(Int)=  0.00000000
 Iteration  4 RMS(Cart)=  0.00000000 RMS(Int)=  0.00000000
 Variable       Old X    -DE/DX   Delta X   Delta X   Delta X     New X
                                 (Linear)    (Quad)   (Total)
    R1        1.81414   0.00842   0.00000   0.00253   0.00253   1.81666
    R2        2.49444   0.07543   0.00000   0.03368   0.03368   2.52812
    R3        2.45664  -0.10349   0.00000   0.04210   0.04210   2.49874
    R4        3.02356   0.00480   0.00000  -0.28190  -0.28190   2.74167
    R5        2.49444  -0.14710   0.00000  -0.07836  -0.07836   2.41608
    A1        1.91114  -0.01506   0.00000  -0.01503  -0.01503   1.89611
    A2        1.91063  -0.01332   0.00000  -0.00940  -0.00940   1.90124
    A3        1.91063  -0.00261   0.00000  -0.01401  -0.01401   1.89662
    A4        3.14159  -0.00006   0.00000   0.02706   0.02706   3.16865
    A5        3.14159  -0.00037   0.00000  -0.01430  -0.01430   3.12729
    D1        1.57080   0.00280   0.00000  -0.00049  -0.00049   1.57031
    D2        3.14159  -0.00028   0.00000  -0.00591  -0.00591   3.13568
         Item               Value     Threshold  Converged?
 Maximum Force            0.147103     0.000450     NO 
 RMS     Force            0.056682     0.000300     NO 
 Maximum Displacement     0.161210     0.001800     NO 
 RMS     Displacement     0.094237     0.001200     NO 
 Predicted change in Energy=-7.281839D-03
 GradGradGradGradGradGradGradGradGradGradGradGradGradGradGradGradGradGrad

                          Input orientation:                          
 ---------------------------------------------------------------------
 Center     Atomic      Atomic             Coordinates (Angstroms)
 Number     Number       Type             X           Y           Z
 ---------------------------------------------------------------------
      1          8           0       -0.628457    0.012209    0.007810
      2          1           0       -0.943316    0.007485   -0.900491
      3          8           0        0.709126    0.034923   -0.003438
      4          1           0        1.116841    1.292767   -0.006801
      5          8           0        1.601511    2.660224    0.000865
      6          8           0        2.879901    2.641338   -0.002881
 ---------------------------------------------------------------------
                    Distance matrix (angstroms):
                    1          2          3          4          5
     1  O    0.000000
     2  H    0.961337   0.000000
     3  O    1.337823   1.880431   0.000000
     4  H    2.164742   2.587446   1.322277   0.000000
     5  O    3.461905   3.784919   2.772828   1.450827   0.000000
     6  O    4.384177   4.728623   3.392000   2.219693   1.278535
                    6
     6  O    0.000000
 Stoichiometry    H2O4
 Framework group  C1[X(H2O4)]
 Deg. of freedom    12
 Full point group                 C1      NOp   1
 Largest Abelian subgroup         C1      NOp   1
 Largest concise Abelian subgroup C1      NOp   1
                         Standard orientation:                         
 ---------------------------------------------------------------------
 Center     Atomic      Atomic             Coordinates (Angstroms)
 Number     Number       Type             X           Y           Z
 ---------------------------------------------------------------------
      1          8           0       -2.113903   -0.296863   -0.091261
      2          1           0       -2.356524   -0.569661    0.798056
      3          8           0       -1.153742    0.630903   -0.006919
      4          1           0        0.024579    0.031009   -0.017066
      5          8           0        1.335039   -0.591238   -0.037112
      6          8           0        2.224099    0.324530    0.037669
 ---------------------------------------------------------------------
 Rotational constants (GHZ):     31.2724518      2.4447855      2.2834842
 Standard basis: 6-31+G(d,p) (6D, 7F)
 There are    86 symmetry adapted basis functions of A   symmetry.
 Integral buffers will be    262144 words long.
 Raffenetti 2 integral format.
 Two-electron integral symmetry is turned on.
    86 basis functions,   142 primitive gaussians,    86 cartesian basis functions
    17 alpha electrons       17 beta electrons
       nuclear repulsion energy       110.3663323638 Hartrees.
 NAtoms=    6 NActive=    6 NUniq=    6 SFac= 7.50D-01 NAtFMM=   80 NAOKFM=F Big=F
 One-electron integrals computed using PRISM.
 NBasis=    86 RedAO= T  NBF=    86
 NBsUse=    86 1.00D-06 NBFU=    86
 Initial guess read from the read-write file.
 B after Tr=     0.000000    0.000000    0.000000
         Rot=    1.000000    0.000000    0.000000    0.000000 Ang=   0.00 deg.
 Initial guess orbital symmetries:
       Occupied  (A) (A) (A) (A) (A) (A) (A) (A) (A) (A) (A) (A)
                 (A) (A) (A) (A) (A)
       Virtual   (A) (A) (A) (A) (A) (A) (A) (A) (A) (A) (A) (A)
                 (A) (A) (A) (A) (A) (A) (A) (A) (A) (A) (A) (A)
                 (A) (A) (A) (A) (A) (A) (A) (A) (A) (A) (A) (A)
                 (A) (A) (A) (A) (A) (A) (A) (A) (A) (A) (A) (A)
                 (A) (A) (A) (A) (A) (A) (A) (A) (A) (A) (A) (A)
                 (A) (A) (A) (A) (A) (A) (A) (A) (A)
 Harris functional with IExCor= 1009 diagonalized for initial guess.
 ExpMin= 8.45D-02 ExpMax= 5.48D+03 ExpMxC= 8.25D+02 IAcc=2 IRadAn=         0 AccDes= 0.00D+00
 HarFok:  IExCor= 1009 AccDes= 0.00D+00 IRadAn=         0 IDoV= 1
 ScaDFX=  1.000000  1.000000  1.000000  1.000000
 FoFCou: FMM=F IPFlag=           0 FMFlag=      100000 FMFlg1=           0
         NFxFlg=           0 DoJE=T BraDBF=F KetDBF=T FulRan=T
         Omega=  0.000000  0.000000  1.000000  0.000000  0.000000 ICntrl=     500 IOpCl=  0
         NMat0=    1 NMatS0=    1 NMatT0=    0 NMatD0=    1 NMtDS0=    0 NMtDT0=    0
         I1Cent=           4 NGrid=           0.
 Petite list used in FoFCou.
 Requested convergence on RMS density matrix=1.00D-08 within 128 cycles.
 Requested convergence on MAX density matrix=1.00D-06.
 Requested convergence on             energy=1.00D-06.
 No special actions if energy rises.
 Keep R1 ints in memory in canonical form, NReq=7993047.
 Integral accuracy reduced to 1.0D-05 until final iterations.
 Initial convergence to 1.0D-05 achieved.  Increase integral accuracy.
 SCF Done:  E(RM062X) =  -301.622147898     A.U. after   24 cycles
             Convg  =    0.6274D-08             -V/T =  2.0090
 Calling FoFJK, ICntrl=      2127 FMM=F ISym2X=0 I1Cent= 0 IOpClX= 0 NMat=1 NMatS=1 NMatT=0.
 ***** Axes restored to original set *****
 -------------------------------------------------------------------
 Center     Atomic                   Forces (Hartrees/Bohr)
 Number     Number              X              Y              Z
 -------------------------------------------------------------------
      1        8          -0.065462181    0.006378331    0.014904183
      2        1           0.004838282   -0.002064705   -0.008843479
      3        8           0.095601122    0.087328768   -0.007661272
      4        1          -0.036697427   -0.098364990    0.001274897
      5        8           0.113006091    0.005813082   -0.000358037
      6        8          -0.111285886    0.000909514    0.000683708
 -------------------------------------------------------------------
 Cartesian Forces:  Max     0.113006091 RMS     0.056614051

 GradGradGradGradGradGradGradGradGradGradGradGradGradGradGradGradGradGrad
 Berny optimization.
 Internal  Forces:  Max     0.111289281 RMS     0.046639167
 Search for a saddle point.
 Step number   2 out of a maximum of   22
 All quantities printed in internal units (Hartrees-Bohrs-Radians)
 Swaping is turned off.
 Update second derivatives using D2CorX and points    1    2
 The second derivative matrix:
                          R1        R2        R3        R4        R5
           R1           0.54507
           R2           0.00742   0.58794
           R3          -0.00087   0.01621   0.01095
           R4          -0.00011   0.01345   0.02220   0.00607
           R5          -0.00084   0.00293   0.00437   0.02292   0.37695
           A1          -0.00401   0.07138   0.00008   0.00192   0.00122
           A2          -0.00092   0.05800  -0.01014   0.00180  -0.00383
           A3           0.00004  -0.00018   0.00064  -0.00094   0.00882
           A4           0.00043  -0.00410  -0.00009   0.00107   0.00039
           A5           0.00030   0.00017   0.00034  -0.00050   0.00093
           D1           0.00038   0.00304   0.00235   0.00235  -0.00012
           D2          -0.00026   0.00058   0.00020   0.00025  -0.00214
                          A1        A2        A3        A4        A5
           A1           0.23920
           A2           0.00626   0.20587
           A3           0.00053  -0.01134   0.04089
           A4          -0.00075  -0.01082   0.00035   0.01074
           A5           0.00041  -0.00082   0.00062  -0.00139   0.00391
           D1           0.01114   0.01503  -0.00175   0.00239   0.00061
           D2          -0.00041   0.00017  -0.00020   0.00024  -0.00082
                          D1        D2
           D1           0.02131
           D2           0.00090   0.00295
     Eigenvalues ---   -0.01478   0.00232   0.00402   0.00964   0.01906
     Eigenvalues ---    0.03009   0.04011   0.19997   0.22630   0.37876
     Eigenvalues ---    0.54458   0.61180
 Eigenvectors required to have negative eigenvalues:
                          R4        R3        A4        A2        R5
   1                    0.74658  -0.66000  -0.04983  -0.04089  -0.03720
                          A5        A3        D1        A1        D2
   1                    0.02721   0.01832   0.01674  -0.00681  -0.00610
 RFO step:  Lambda0=6.789467744D-02 Lambda=-7.65087405D-02.
 Linear search not attempted -- option 19 set.
 Maximum step size (   0.300) exceeded in Quadratic search.
    -- Step size scaled by   0.263
 Iteration  1 RMS(Cart)=  0.06542206 RMS(Int)=  0.02613393
 Iteration  2 RMS(Cart)=  0.02854172 RMS(Int)=  0.00007044
 Iteration  3 RMS(Cart)=  0.00007767 RMS(Int)=  0.00000001
 Iteration  4 RMS(Cart)=  0.00000001 RMS(Int)=  0.00000000
 Variable       Old X    -DE/DX   Delta X   Delta X   Delta X     New X
                                 (Linear)    (Quad)   (Total)
    R1        1.81666   0.00665   0.00000   0.00230   0.00230   1.81896
    R2        2.52812   0.06069   0.00000   0.03162   0.03162   2.55974
    R3        2.49874  -0.09797   0.00000   0.03400   0.03400   2.53274
    R4        2.74167   0.00692   0.00000  -0.29036  -0.29036   2.45130
    R5        2.41608  -0.11129   0.00000  -0.04741  -0.04741   2.36867
    A1        1.89611  -0.01313   0.00000  -0.01547  -0.01547   1.88063
    A2        1.90124  -0.01248   0.00000  -0.01047  -0.01047   1.89076
    A3        1.89662  -0.00173   0.00000  -0.00891  -0.00891   1.88771
    A4        3.16865  -0.00001   0.00000   0.02297   0.02297   3.19162
    A5        3.12729  -0.00036   0.00000  -0.01397  -0.01397   3.11332
    D1        1.57031   0.00349   0.00000   0.01136   0.01136   1.58167
    D2        3.13568  -0.00041   0.00000   0.00016   0.00016   3.13584
         Item               Value     Threshold  Converged?
 Maximum Force            0.111289     0.000450     NO 
 RMS     Force            0.046639     0.000300     NO 
 Maximum Displacement     0.152374     0.001800     NO 
 RMS     Displacement     0.092864     0.001200     NO 
 Predicted change in Energy=-1.311556D-03
 GradGradGradGradGradGradGradGradGradGradGradGradGradGradGradGradGradGrad

                          Input orientation:                          
 ---------------------------------------------------------------------
 Center     Atomic      Atomic             Coordinates (Angstroms)
 Number     Number       Type             X           Y           Z
 ---------------------------------------------------------------------
      1          8           0       -0.604918    0.036707    0.014774
      2          1           0       -0.913056    0.019600   -0.896964
      3          8           0        0.748775    0.079566   -0.007507
      4          1           0        1.129870    1.364507   -0.010809
      5          8           0        1.560933    2.587860    0.004992
      6          8           0        2.814002    2.560705   -0.009421
 ---------------------------------------------------------------------
                    Distance matrix (angstroms):
                    1          2          3          4          5
     1  O    0.000000
     2  H    0.962553   0.000000
     3  O    1.354555   1.885845   0.000000
     4  H    2.184765   2.601459   1.340268   0.000000
     5  O    3.346549   3.678329   2.636532   1.297174   0.000000
     6  O    4.249725   4.597380   3.228191   2.065718   1.253446
                    6
     6  O    0.000000
 Stoichiometry    H2O4
 Framework group  C1[X(H2O4)]
 Deg. of freedom    12
 Full point group                 C1      NOp   1
 Largest Abelian subgroup         C1      NOp   1
 Largest concise Abelian subgroup C1      NOp   1
                         Standard orientation:                         
 ---------------------------------------------------------------------
 Center     Atomic      Atomic             Coordinates (Angstroms)
 Number     Number       Type             X           Y           Z
 ---------------------------------------------------------------------
      1          8           0       -2.063729   -0.287806   -0.091991
      2          1           0       -2.311560   -0.534771    0.804723
      3          8           0       -1.070761    0.629698   -0.008199
      4          1           0        0.102858   -0.017528   -0.014202
      5          8           0        1.269122   -0.585000   -0.035691
      6          8           0        2.141455    0.312146    0.037066
 ---------------------------------------------------------------------
 Rotational constants (GHZ):     32.0292548      2.6361193      2.4543436
 Standard basis: 6-31+G(d,p) (6D, 7F)
 There are    86 symmetry adapted basis functions of A   symmetry.
 Integral buffers will be    262144 words long.
 Raffenetti 2 integral format.
 Two-electron integral symmetry is turned on.
    86 basis functions,   142 primitive gaussians,    86 cartesian basis functions
    17 alpha electrons       17 beta electrons
       nuclear repulsion energy       112.7752394450 Hartrees.
 NAtoms=    6 NActive=    6 NUniq=    6 SFac= 7.50D-01 NAtFMM=   80 NAOKFM=F Big=F
 One-electron integrals computed using PRISM.
 NBasis=    86 RedAO= T  NBF=    86
 NBsUse=    86 1.00D-06 NBFU=    86
 Initial guess read from the read-write file.
 B after Tr=     0.000000    0.000000    0.000000
         Rot=    1.000000    0.000000    0.000000    0.000000 Ang=   0.00 deg.
 Initial guess orbital symmetries:
       Occupied  (A) (A) (A) (A) (A) (A) (A) (A) (A) (A) (A) (A)
                 (A) (A) (A) (A) (A)
       Virtual   (A) (A) (A) (A) (A) (A) (A) (A) (A) (A) (A) (A)
                 (A) (A) (A) (A) (A) (A) (A) (A) (A) (A) (A) (A)
                 (A) (A) (A) (A) (A) (A) (A) (A) (A) (A) (A) (A)
                 (A) (A) (A) (A) (A) (A) (A) (A) (A) (A) (A) (A)
                 (A) (A) (A) (A) (A) (A) (A) (A) (A) (A) (A) (A)
                 (A) (A) (A) (A) (A) (A) (A) (A) (A)
 Harris functional with IExCor= 1009 diagonalized for initial guess.
 ExpMin= 8.45D-02 ExpMax= 5.48D+03 ExpMxC= 8.25D+02 IAcc=2 IRadAn=         0 AccDes= 0.00D+00
 HarFok:  IExCor= 1009 AccDes= 0.00D+00 IRadAn=         0 IDoV= 1
 ScaDFX=  1.000000  1.000000  1.000000  1.000000
 FoFCou: FMM=F IPFlag=           0 FMFlag=      100000 FMFlg1=           0
         NFxFlg=           0 DoJE=T BraDBF=F KetDBF=T FulRan=T
         Omega=  0.000000  0.000000  1.000000  0.000000  0.000000 ICntrl=     500 IOpCl=  0
         NMat0=    1 NMatS0=    1 NMatT0=    0 NMatD0=    1 NMtDS0=    0 NMtDT0=    0
         I1Cent=           4 NGrid=           0.
 Petite list used in FoFCou.
 Requested convergence on RMS density matrix=1.00D-08 within 128 cycles.
 Requested convergence on MAX density matrix=1.00D-06.
 Requested convergence on             energy=1.00D-06.
 No special actions if energy rises.
 Keep R1 ints in memory in canonical form, NReq=7992901.
 Integral accuracy reduced to 1.0D-05 until final iterations.
 Initial convergence to 1.0D-05 achieved.  Increase integral accuracy.
 SCF Done:  E(RM062X) =  -301.623130597     A.U. after   27 cycles
             Convg  =    0.5486D-08             -V/T =  2.0087
 Calling FoFJK, ICntrl=      2127 FMM=F ISym2X=0 I1Cent= 0 IOpClX= 0 NMat=1 NMatS=1 NMatT=0.
 ***** Axes restored to original set *****
 -------------------------------------------------------------------
 Center     Atomic                   Forces (Hartrees/Bohr)
 Number     Number              X              Y              Z
 -------------------------------------------------------------------
      1        8          -0.050142510    0.005644718    0.012805608
      2        1           0.003976687   -0.002467969   -0.007288075
      3        8           0.074206537    0.077325336   -0.007436274
      4        1          -0.031243578   -0.089981980    0.001681212
      5        8           0.078310833    0.007795591   -0.000959466
      6        8          -0.075107970    0.001684304    0.001196995
 -------------------------------------------------------------------
 Cartesian Forces:  Max     0.089981980 RMS     0.044247884

 GradGradGradGradGradGradGradGradGradGradGradGradGradGradGradGradGradGrad
 Berny optimization.
 Internal  Forces:  Max     0.085173577 RMS     0.035835564
 Search for a saddle point.
 Step number   3 out of a maximum of   22
 All quantities printed in internal units (Hartrees-Bohrs-Radians)
 Swaping is turned off.
 Update second derivatives using D2CorX and points    1    2    3
 The second derivative matrix:
                          R1        R2        R3        R4        R5
           R1           0.54506
           R2           0.00722   0.58870
           R3          -0.00105   0.01365   0.00810
           R4           0.00166   0.01025   0.04514   0.00702
           R5          -0.00045  -0.00234   0.00878   0.05938   0.39801
           A1          -0.00391   0.07109   0.00130   0.00297   0.00356
           A2          -0.00085   0.05757  -0.00933   0.00424  -0.00160
           A3           0.00011  -0.00087   0.00145   0.00362   0.01187
           A4           0.00029  -0.00367  -0.00200  -0.00028  -0.00314
           A5           0.00038  -0.00005   0.00146   0.00010   0.00292
           D1           0.00033   0.00305   0.00168   0.00302  -0.00092
           D2          -0.00025   0.00057   0.00031   0.00026  -0.00197
                          A1        A2        A3        A4        A5
           A1           0.23932
           A2           0.00644   0.20608
           A3           0.00083  -0.01104   0.04132
           A4          -0.00092  -0.01108  -0.00011   0.01096
           A5           0.00049  -0.00067   0.00087  -0.00151   0.00397
           D1           0.01115   0.01499  -0.00184   0.00237   0.00063
           D2          -0.00041   0.00018  -0.00018   0.00023  -0.00082
                          D1        D2
           D1           0.02128
           D2           0.00090   0.00295
     Eigenvalues ---   -0.04123   0.00233   0.00403   0.00965   0.02016
     Eigenvalues ---    0.03994   0.04659   0.20028   0.22637   0.40800
     Eigenvalues ---    0.54459   0.61205
 Eigenvectors required to have negative eigenvalues:
                          R4        R3        R5        A2        A4
   1                    0.73578  -0.66887  -0.08624  -0.04141  -0.03418
                          A5        A3        D1        R2        A1
   1                    0.02426  -0.01400  -0.00777   0.00631  -0.00409
 RFO step:  Lambda0=5.383929440D-02 Lambda=-4.44532676D-02.
 Linear search not attempted -- option 19 set.
 Maximum step size (   0.300) exceeded in Quadratic search.
    -- Step size scaled by   0.313
 Iteration  1 RMS(Cart)=  0.05353281 RMS(Int)=  0.02675181
 Iteration  2 RMS(Cart)=  0.02903404 RMS(Int)=  0.00008333
 Iteration  3 RMS(Cart)=  0.00008351 RMS(Int)=  0.00000001
 Iteration  4 RMS(Cart)=  0.00000001 RMS(Int)=  0.00000000
 Variable       Old X    -DE/DX   Delta X   Delta X   Delta X     New X
                                 (Linear)    (Quad)   (Total)
    R1        1.81896   0.00560   0.00000   0.00346   0.00346   1.82242
    R2        2.55974   0.04620   0.00000   0.02936   0.02936   2.58910
    R3        2.53274  -0.08517   0.00000   0.03046   0.03046   2.56320
    R4        2.45130   0.01000   0.00000  -0.29253  -0.29253   2.15877
    R5        2.36867  -0.07513   0.00000  -0.00992  -0.00992   2.35876
    A1        1.88063  -0.01070   0.00000  -0.01703  -0.01703   1.86361
    A2        1.89076  -0.01059   0.00000  -0.01093  -0.01093   1.87983
    A3        1.88771   0.00016   0.00000   0.01760   0.01760   1.90531
    A4        3.19162  -0.00048   0.00000   0.00804   0.00804   3.19966
    A5        3.11332  -0.00016   0.00000  -0.01292  -0.01292   3.10040
    D1        1.58167   0.00420   0.00000   0.03960   0.03960   1.62127
    D2        3.13584  -0.00049   0.00000  -0.00228  -0.00228   3.13356
         Item               Value     Threshold  Converged?
 Maximum Force            0.085174     0.000450     NO 
 RMS     Force            0.035836     0.000300     NO 
 Maximum Displacement     0.156937     0.001800     NO 
 RMS     Displacement     0.081352     0.001200     NO 
 Predicted change in Energy= 3.193361D-03
 GradGradGradGradGradGradGradGradGradGradGradGradGradGradGradGradGradGrad

                          Input orientation:                          
 ---------------------------------------------------------------------
 Center     Atomic      Atomic             Coordinates (Angstroms)
 Number     Number       Type             X           Y           Z
 ---------------------------------------------------------------------
      1          8           0       -0.588295    0.070138    0.021368
      2          1           0       -0.889643    0.021373   -0.893427
      3          8           0        0.780431    0.119201   -0.015221
      4          1           0        1.146591    1.425227   -0.014132
      5          8           0        1.519284    2.504813    0.010528
      6          8           0        2.767237    2.508192   -0.014052
 ---------------------------------------------------------------------
                    Distance matrix (angstroms):
                    1          2          3          4          5
     1  O    0.000000
     2  H    0.964385   0.000000
     3  O    1.370094   1.889435   0.000000
     4  H    2.201672   2.624922   1.356385   0.000000
     5  O    3.220194   3.575967   2.497542   1.142372   0.000000
     6  O    4.147886   4.508918   3.107198   1.949181   1.248200
                    6
     6  O    0.000000
 Stoichiometry    H2O4
 Framework group  C1[X(H2O4)]
 Deg. of freedom    12
 Full point group                 C1      NOp   1
 Largest Abelian subgroup         C1      NOp   1
 Largest concise Abelian subgroup C1      NOp   1
                         Standard orientation:                         
 ---------------------------------------------------------------------
 Center     Atomic      Atomic             Coordinates (Angstroms)
 Number     Number       Type             X           Y           Z
 ---------------------------------------------------------------------
      1          8           0       -2.016727   -0.281694   -0.093040
      2          1           0       -2.284110   -0.483894    0.811206
      3          8           0       -0.998529    0.631249   -0.009587
      4          1           0        0.171650   -0.054651   -0.010505
      5          8           0        1.189755   -0.572328   -0.032585
      6          8           0        2.089560    0.290092    0.035125
 ---------------------------------------------------------------------
 Rotational constants (GHZ):     33.1042155      2.8150408      2.6158754
 Standard basis: 6-31+G(d,p) (6D, 7F)
 There are    86 symmetry adapted basis functions of A   symmetry.
 Integral buffers will be    262144 words long.
 Raffenetti 2 integral format.
 Two-electron integral symmetry is turned on.
    86 basis functions,   142 primitive gaussians,    86 cartesian basis functions
    17 alpha electrons       17 beta electrons
       nuclear repulsion energy       114.8703125144 Hartrees.
 NAtoms=    6 NActive=    6 NUniq=    6 SFac= 7.50D-01 NAtFMM=   80 NAOKFM=F Big=F
 One-electron integrals computed using PRISM.
 NBasis=    86 RedAO= T  NBF=    86
 NBsUse=    86 1.00D-06 NBFU=    86
 Initial guess read from the read-write file.
 B after Tr=     0.000000    0.000000    0.000000
         Rot=    1.000000    0.000000    0.000000    0.000000 Ang=   0.00 deg.
 Initial guess orbital symmetries:
       Occupied  (A) (A) (A) (A) (A) (A) (A) (A) (A) (A) (A) (A)
                 (A) (A) (A) (A) (A)
       Virtual   (A) (A) (A) (A) (A) (A) (A) (A) (A) (A) (A) (A)
                 (A) (A) (A) (A) (A) (A) (A) (A) (A) (A) (A) (A)
                 (A) (A) (A) (A) (A) (A) (A) (A) (A) (A) (A) (A)
                 (A) (A) (A) (A) (A) (A) (A) (A) (A) (A) (A) (A)
                 (A) (A) (A) (A) (A) (A) (A) (A) (A) (A) (A) (A)
                 (A) (A) (A) (A) (A) (A) (A) (A) (A)
 Harris functional with IExCor= 1009 diagonalized for initial guess.
 ExpMin= 8.45D-02 ExpMax= 5.48D+03 ExpMxC= 8.25D+02 IAcc=2 IRadAn=         0 AccDes= 0.00D+00
 HarFok:  IExCor= 1009 AccDes= 0.00D+00 IRadAn=         0 IDoV= 1
 ScaDFX=  1.000000  1.000000  1.000000  1.000000
 FoFCou: FMM=F IPFlag=           0 FMFlag=      100000 FMFlg1=           0
         NFxFlg=           0 DoJE=T BraDBF=F KetDBF=T FulRan=T
         Omega=  0.000000  0.000000  1.000000  0.000000  0.000000 ICntrl=     500 IOpCl=  0
         NMat0=    1 NMatS0=    1 NMatT0=    0 NMatD0=    1 NMtDS0=    0 NMtDT0=    0
         I1Cent=           4 NGrid=           0.
 Petite list used in FoFCou.
 Requested convergence on RMS density matrix=1.00D-08 within 128 cycles.
 Requested convergence on MAX density matrix=1.00D-06.
 Requested convergence on             energy=1.00D-06.
 No special actions if energy rises.
 Keep R1 ints in memory in canonical form, NReq=7992901.
 Integral accuracy reduced to 1.0D-05 until final iterations.
 Initial convergence to 1.0D-05 achieved.  Increase integral accuracy.
 SCF Done:  E(RM062X) =  -301.619288970     A.U. after   28 cycles
             Convg  =    0.1927D-08             -V/T =  2.0084
 Calling FoFJK, ICntrl=      2127 FMM=F ISym2X=0 I1Cent= 0 IOpClX= 0 NMat=1 NMatS=1 NMatT=0.
 ***** Axes restored to original set *****
 -------------------------------------------------------------------
 Center     Atomic                   Forces (Hartrees/Bohr)
 Number     Number              X              Y              Z
 -------------------------------------------------------------------
      1        8          -0.033058811    0.005392625    0.010252932
      2        1           0.002846523   -0.002939680   -0.005684983
      3        8           0.048337808    0.053962614   -0.006370231
      4        1          -0.023654727   -0.075784347    0.001014933
      5        8           0.056011487    0.020110155   -0.000491713
      6        8          -0.050482279   -0.000741366    0.001279062
 -------------------------------------------------------------------
 Cartesian Forces:  Max     0.075784347 RMS     0.032456531

 GradGradGradGradGradGradGradGradGradGradGradGradGradGradGradGradGradGrad
 Berny optimization.
 Internal  Forces:  Max     0.059173680 RMS     0.025064326
 Search for a saddle point.
 Step number   4 out of a maximum of   22
 All quantities printed in internal units (Hartrees-Bohrs-Radians)
 Swaping is turned off.
 Update second derivatives using D2CorX and points    2    3    4
 The second derivative matrix:
                          R1        R2        R3        R4        R5
           R1           0.54506
           R2           0.00692   0.59086
           R3          -0.00078   0.00699   0.01760
           R4           0.00388  -0.00018   0.09033   0.04148
           R5          -0.00019  -0.00461   0.01469   0.07159   0.40026
           A1          -0.00379   0.07063   0.00363   0.00409   0.00413
           A2          -0.00073   0.05660  -0.00657   0.00923  -0.00060
           A3          -0.00002   0.00033  -0.00175  -0.00279   0.01064
           A4           0.00019  -0.00317  -0.00396  -0.00214  -0.00369
           A5           0.00046  -0.00019   0.00288  -0.00045   0.00316
           D1           0.00013   0.00344  -0.00193   0.00401  -0.00158
           D2          -0.00024   0.00053   0.00052   0.00032  -0.00192
                          A1        A2        A3        A4        A5
           A1           0.23934
           A2           0.00666   0.20651
           A3           0.00053  -0.01157   0.04196
           A4          -0.00099  -0.01131   0.00019   0.01106
           A5           0.00044  -0.00059   0.00075  -0.00150   0.00389
           D1           0.01127   0.01476  -0.00152   0.00237   0.00083
           D2          -0.00041   0.00020  -0.00020   0.00023  -0.00082
                          D1        D2
           D1           0.02081
           D2           0.00092   0.00295
     Eigenvalues ---   -0.06540   0.00230   0.00401   0.00968   0.02037
     Eigenvalues ---    0.04050   0.10756   0.20120   0.22652   0.41710
     Eigenvalues ---    0.54466   0.61327
 Eigenvectors required to have negative eigenvalues:
                          R3        R4        R5        D1        A2
   1                    0.72861  -0.67572   0.08165   0.04216   0.04141
                          A5        A4        R2        A3        R1
   1                   -0.03799   0.02638  -0.01106  -0.00849   0.00544
 RFO step:  Lambda0=3.675670286D-02 Lambda=-1.27614400D-02.
 Linear search not attempted -- option 19 set.
 Maximum step size (   0.300) exceeded in Quadratic search.
    -- Step size scaled by   0.420
 Iteration  1 RMS(Cart)=  0.06861262 RMS(Int)=  0.00638157
 Iteration  2 RMS(Cart)=  0.00630010 RMS(Int)=  0.00001394
 Iteration  3 RMS(Cart)=  0.00001601 RMS(Int)=  0.00000000
 Iteration  4 RMS(Cart)=  0.00000000 RMS(Int)=  0.00000000
 Variable       Old X    -DE/DX   Delta X   Delta X   Delta X     New X
                                 (Linear)    (Quad)   (Total)
    R1        1.82242   0.00459   0.00000   0.00485   0.00485   1.82728
    R2        2.58910   0.03022   0.00000   0.02211   0.02211   2.61121
    R3        2.56320  -0.05917   0.00000   0.13748   0.13748   2.70068
    R4        2.15877   0.02016   0.00000  -0.21640  -0.21640   1.94237
    R5        2.35876  -0.05053   0.00000  -0.01481  -0.01481   2.34394
    A1        1.86361  -0.00793   0.00000  -0.02280  -0.02280   1.84081
    A2        1.87983  -0.00728   0.00000  -0.01422  -0.01422   1.86561
    A3        1.90531  -0.00129   0.00000  -0.01405  -0.01405   1.89126
    A4        3.19966  -0.00128   0.00000  -0.02906  -0.02906   3.17060
    A5        3.10040  -0.00032   0.00000  -0.07282  -0.07282   3.02758
    D1        1.62127   0.00487   0.00000   0.12518   0.12518   1.74645
    D2        3.13356  -0.00049   0.00000  -0.02832  -0.02832   3.10524
         Item               Value     Threshold  Converged?
 Maximum Force            0.059174     0.000450     NO 
 RMS     Force            0.025064     0.000300     NO 
 Maximum Displacement     0.139060     0.001800     NO 
 RMS     Displacement     0.071704     0.001200     NO 
 Predicted change in Energy= 8.954877D-03
 GradGradGradGradGradGradGradGradGradGradGradGradGradGradGradGradGradGrad

                          Input orientation:                          
 ---------------------------------------------------------------------
 Center     Atomic      Atomic             Coordinates (Angstroms)
 Number     Number       Type             X           Y           Z
 ---------------------------------------------------------------------
      1          8           0       -0.593870    0.110762    0.027254
      2          1           0       -0.898901   -0.036385   -0.878450
      3          8           0        0.785856    0.126871   -0.046532
      4          1           0        1.186059    1.498815   -0.040070
      5          8           0        1.508167    2.472503    0.028266
      6          8           0        2.748296    2.476378    0.004596
 ---------------------------------------------------------------------
                    Distance matrix (angstroms):
                    1          2          3          4          5
     1  O    0.000000
     2  H    0.966952   0.000000
     3  O    1.381792   1.886040   0.000000
     4  H    2.258179   2.721540   1.429138   0.000000
     5  O    3.161706   3.593137   2.455468   1.027859   0.000000
     6  O    4.094719   4.516170   3.061694   1.843423   1.240361
                    6
     6  O    0.000000
 Stoichiometry    H2O4
 Framework group  C1[X(H2O4)]
 Deg. of freedom    12
 Full point group                 C1      NOp   1
 Largest Abelian subgroup         C1      NOp   1
 Largest concise Abelian subgroup C1      NOp   1
                         Standard orientation:                         
 ---------------------------------------------------------------------
 Center     Atomic      Atomic             Coordinates (Angstroms)
 Number     Number       Type             X           Y           Z
 ---------------------------------------------------------------------
      1          8           0       -1.988059   -0.296823   -0.099304
      2          1           0       -2.334002   -0.390395    0.798785
      3          8           0       -0.976866    0.640555   -0.008973
      4          1           0        0.256400   -0.080848    0.023687
      5          8           0        1.160964   -0.567315   -0.016412
      6          8           0        2.063661    0.282488    0.021879
 ---------------------------------------------------------------------
 Rotational constants (GHZ):     32.9611227      2.8969619      2.6848904
 Standard basis: 6-31+G(d,p) (6D, 7F)
 There are    86 symmetry adapted basis functions of A   symmetry.
 Integral buffers will be    262144 words long.
 Raffenetti 2 integral format.
 Two-electron integral symmetry is turned on.
    86 basis functions,   142 primitive gaussians,    86 cartesian basis functions
    17 alpha electrons       17 beta electrons
       nuclear repulsion energy       115.8359691702 Hartrees.
 NAtoms=    6 NActive=    6 NUniq=    6 SFac= 7.50D-01 NAtFMM=   80 NAOKFM=F Big=F
 One-electron integrals computed using PRISM.
 NBasis=    86 RedAO= T  NBF=    86
 NBsUse=    86 1.00D-06 NBFU=    86
 Initial guess read from the read-write file.
 B after Tr=     0.000000    0.000000    0.000000
         Rot=    1.000000    0.000000    0.000000    0.000000 Ang=   0.00 deg.
 Initial guess orbital symmetries:
       Occupied  (A) (A) (A) (A) (A) (A) (A) (A) (A) (A) (A) (A)
                 (A) (A) (A) (A) (A)
       Virtual   (A) (A) (A) (A) (A) (A) (A) (A) (A) (A) (A) (A)
                 (A) (A) (A) (A) (A) (A) (A) (A) (A) (A) (A) (A)
                 (A) (A) (A) (A) (A) (A) (A) (A) (A) (A) (A) (A)
                 (A) (A) (A) (A) (A) (A) (A) (A) (A) (A) (A) (A)
                 (A) (A) (A) (A) (A) (A) (A) (A) (A) (A) (A) (A)
                 (A) (A) (A) (A) (A) (A) (A) (A) (A)
 Harris functional with IExCor= 1009 diagonalized for initial guess.
 ExpMin= 8.45D-02 ExpMax= 5.48D+03 ExpMxC= 8.25D+02 IAcc=2 IRadAn=         0 AccDes= 0.00D+00
 HarFok:  IExCor= 1009 AccDes= 0.00D+00 IRadAn=         0 IDoV= 1
 ScaDFX=  1.000000  1.000000  1.000000  1.000000
 FoFCou: FMM=F IPFlag=           0 FMFlag=      100000 FMFlg1=           0
         NFxFlg=           0 DoJE=T BraDBF=F KetDBF=T FulRan=T
         Omega=  0.000000  0.000000  1.000000  0.000000  0.000000 ICntrl=     500 IOpCl=  0
         NMat0=    1 NMatS0=    1 NMatT0=    0 NMatD0=    1 NMtDS0=    0 NMtDT0=    0
         I1Cent=           4 NGrid=           0.
 Petite list used in FoFCou.
 Requested convergence on RMS density matrix=1.00D-08 within 128 cycles.
 Requested convergence on MAX density matrix=1.00D-06.
 Requested convergence on             energy=1.00D-06.
 No special actions if energy rises.
 Keep R1 ints in memory in canonical form, NReq=7992901.
 Integral accuracy reduced to 1.0D-05 until final iterations.
 Initial convergence to 1.0D-05 achieved.  Increase integral accuracy.
 Rare condition: small coef for last iteration:  0.000D+00
 Rare condition: small coef for last iteration:  0.000D+00
 Rare condition: small coef for last iteration:  0.000D+00
 Rare condition: small coef for last iteration:  0.000D+00
 Rare condition: small coef for last iteration:  0.000D+00
 Rare condition: small coef for last iteration:  0.000D+00
 Rare condition: small coef for last iteration:  0.000D+00
 Rare condition: small coef for last iteration:  0.000D+00
 Rare condition: small coef for last iteration:  0.000D+00
 SCF Done:  E(RM062X) =  -301.608075309     A.U. after   50 cycles
             Convg  =    0.6665D-08             -V/T =  2.0080
 Calling FoFJK, ICntrl=      2127 FMM=F ISym2X=0 I1Cent= 0 IOpClX= 0 NMat=1 NMatS=1 NMatT=0.
 ***** Axes restored to original set *****
 -------------------------------------------------------------------
 Center     Atomic                   Forces (Hartrees/Bohr)
 Number     Number              X              Y              Z
 -------------------------------------------------------------------
      1        8          -0.019546780    0.006301421    0.006222334
      2        1           0.001686954   -0.003253916   -0.003045247
      3        8           0.030938723    0.035008673   -0.004209428
      4        1          -0.028239418   -0.081686517   -0.003154828
      5        8           0.037283939    0.042935226    0.003753815
      6        8          -0.022123418    0.000695113    0.000433355
 -------------------------------------------------------------------
 Cartesian Forces:  Max     0.081686517 RMS     0.027790465

 GradGradGradGradGradGradGradGradGradGradGradGradGradGradGradGradGradGrad
 Berny optimization.
 Internal  Forces:  Max     0.046394970 RMS     0.019754374
 Search for a saddle point.
 Step number   5 out of a maximum of   22
 All quantities printed in internal units (Hartrees-Bohrs-Radians)
 Swaping is turned off.
 Update second derivatives using D2CorX and points    3    4    5
 The second derivative matrix:
                          R1        R2        R3        R4        R5
           R1           0.54505
           R2           0.00686   0.59065
           R3          -0.00108   0.00578   0.01062
           R4           0.00402  -0.00165   0.08764   0.16682
           R5          -0.00028  -0.00551   0.01127   0.10422   0.40758
           A1          -0.00374   0.07081   0.00471   0.00599   0.00507
           A2          -0.00068   0.05690  -0.00512   0.00449  -0.00128
           A3          -0.00004   0.00006  -0.00262   0.00815   0.01316
           A4           0.00024  -0.00304  -0.00296   0.00105  -0.00249
           A5           0.00061   0.00041   0.00643   0.00190   0.00515
           D1          -0.00014   0.00237  -0.00820   0.00010  -0.00507
           D2          -0.00020   0.00063   0.00135   0.00525  -0.00029
                          A1        A2        A3        A4        A5
           A1           0.23919
           A2           0.00637   0.20642
           A3           0.00081  -0.01184   0.04280
           A4          -0.00110  -0.01163   0.00054   0.01096
           A5          -0.00009  -0.00136   0.00127  -0.00199   0.00209
           D1           0.01222   0.01613  -0.00245   0.00323   0.00400
           D2          -0.00048  -0.00016   0.00029   0.00020  -0.00121
                          D1        D2
           D1           0.01519
           D2           0.00161   0.00301
     Eigenvalues ---   -0.03430  -0.00045   0.00369   0.00948   0.01774
     Eigenvalues ---    0.04178   0.16568   0.20098   0.22656   0.45136
     Eigenvalues ---    0.54467   0.61319
 Eigenvectors required to have negative eigenvalues:
                          R3        R4        D1        A5        R5
   1                    0.86884  -0.42229   0.16092  -0.15854   0.07943
                          A3        A4        A2        D2        A1
   1                    0.07166   0.05676   0.02397   0.01575  -0.01240
 RFO step:  Lambda0=4.089999662D-02 Lambda=-1.97362348D-02.
 Linear search not attempted -- option 19 set.
 Maximum step size (   0.300) exceeded in Quadratic search.
    -- Step size scaled by   0.261
 Iteration  1 RMS(Cart)=  0.10217651 RMS(Int)=  0.00810970
 Iteration  2 RMS(Cart)=  0.00845472 RMS(Int)=  0.00003530
 Iteration  3 RMS(Cart)=  0.00005997 RMS(Int)=  0.00000000
 Iteration  4 RMS(Cart)=  0.00000000 RMS(Int)=  0.00000000
 Variable       Old X    -DE/DX   Delta X   Delta X   Delta X     New X
                                 (Linear)    (Quad)   (Total)
    R1        1.82728   0.00278   0.00000   0.00182   0.00182   1.82910
    R2        2.61121   0.01798   0.00000   0.00902   0.00902   2.62022
    R3        2.70068  -0.04018   0.00000   0.14306   0.14306   2.84373
    R4        1.94237   0.04639   0.00000  -0.02293  -0.02293   1.91944
    R5        2.34394  -0.02215   0.00000  -0.00627  -0.00627   2.33767
    A1        1.84081  -0.00478   0.00000  -0.01767  -0.01767   1.82314
    A2        1.86561  -0.00642   0.00000  -0.01631  -0.01631   1.84930
    A3        1.89126   0.00190   0.00000   0.03961   0.03961   1.93088
    A4        3.17060  -0.00102   0.00000  -0.01505  -0.01505   3.15555
    A5        3.02758  -0.00118   0.00000  -0.19328  -0.19328   2.83430
    D1        1.74645   0.00489   0.00000   0.16853   0.16853   1.91498
    D2        3.10524   0.00023   0.00000  -0.02740  -0.02740   3.07784
         Item               Value     Threshold  Converged?
 Maximum Force            0.046395     0.000450     NO 
 RMS     Force            0.019754     0.000300     NO 
 Maximum Displacement     0.212877     0.001800     NO 
 RMS     Displacement     0.102229     0.001200     NO 
 Predicted change in Energy= 4.792079D-03
 GradGradGradGradGradGradGradGradGradGradGradGradGradGradGradGradGradGrad

                          Input orientation:                          
 ---------------------------------------------------------------------
 Center     Atomic      Atomic             Coordinates (Angstroms)
 Number     Number       Type             X           Y           Z
 ---------------------------------------------------------------------
      1          8           0       -0.624750    0.144278    0.019551
      2          1           0       -0.943663   -0.149034   -0.845969
      3          8           0        0.756985    0.111303   -0.091245
      4          1           0        1.205784    1.547638   -0.099173
      5          8           0        1.552254    2.488077    0.065846
      6          8           0        2.788996    2.506683    0.046054
 ---------------------------------------------------------------------
                    Distance matrix (angstroms):
                    1          2          3          4          5
     1  O    0.000000
     2  H    0.967917   0.000000
     3  O    1.386562   1.878720   0.000000
     4  H    2.309626   2.838402   1.504839   0.000000
     5  O    3.199201   3.743710   2.511212   1.015726   0.000000
     6  O    4.151545   4.667042   3.144164   1.856722   1.237040
                    6
     6  O    0.000000
 Stoichiometry    H2O4
 Framework group  C1[X(H2O4)]
 Deg. of freedom    12
 Full point group                 C1      NOp   1
 Largest Abelian subgroup         C1      NOp   1
 Largest concise Abelian subgroup C1      NOp   1
                         Standard orientation:                         
 ---------------------------------------------------------------------
 Center     Atomic      Atomic             Coordinates (Angstroms)
 Number     Number       Type             X           Y           Z
 ---------------------------------------------------------------------
      1          8           0       -2.001663   -0.325479   -0.100827
      2          1           0       -2.470697   -0.273385    0.744252
      3          8           0       -1.017746    0.647369   -0.011218
      4          1           0        0.287546   -0.093292    0.099126
      5          8           0        1.187790   -0.553318    0.000965
      6          8           0        2.104513    0.277263    0.005657
 ---------------------------------------------------------------------
 Rotational constants (GHZ):     33.0139807      2.7929613      2.5936276
 Standard basis: 6-31+G(d,p) (6D, 7F)
 There are    86 symmetry adapted basis functions of A   symmetry.
 Integral buffers will be    262144 words long.
 Raffenetti 2 integral format.
 Two-electron integral symmetry is turned on.
    86 basis functions,   142 primitive gaussians,    86 cartesian basis functions
    17 alpha electrons       17 beta electrons
       nuclear repulsion energy       114.7505139902 Hartrees.
 NAtoms=    6 NActive=    6 NUniq=    6 SFac= 7.50D-01 NAtFMM=   80 NAOKFM=F Big=F
 One-electron integrals computed using PRISM.
 NBasis=    86 RedAO= T  NBF=    86
 NBsUse=    86 1.00D-06 NBFU=    86
 Initial guess read from the read-write file.
 B after Tr=     0.000000    0.000000    0.000000
         Rot=    1.000000    0.000000    0.000000    0.000000 Ang=   0.00 deg.
 Initial guess orbital symmetries:
       Occupied  (A) (A) (A) (A) (A) (A) (A) (A) (A) (A) (A) (A)
                 (A) (A) (A) (A) (A)
       Virtual   (A) (A) (A) (A) (A) (A) (A) (A) (A) (A) (A) (A)
                 (A) (A) (A) (A) (A) (A) (A) (A) (A) (A) (A) (A)
                 (A) (A) (A) (A) (A) (A) (A) (A) (A) (A) (A) (A)
                 (A) (A) (A) (A) (A) (A) (A) (A) (A) (A) (A) (A)
                 (A) (A) (A) (A) (A) (A) (A) (A) (A) (A) (A) (A)
                 (A) (A) (A) (A) (A) (A) (A) (A) (A)
 Harris functional with IExCor= 1009 diagonalized for initial guess.
 ExpMin= 8.45D-02 ExpMax= 5.48D+03 ExpMxC= 8.25D+02 IAcc=2 IRadAn=         0 AccDes= 0.00D+00
 HarFok:  IExCor= 1009 AccDes= 0.00D+00 IRadAn=         0 IDoV= 1
 ScaDFX=  1.000000  1.000000  1.000000  1.000000
 FoFCou: FMM=F IPFlag=           0 FMFlag=      100000 FMFlg1=           0
         NFxFlg=           0 DoJE=T BraDBF=F KetDBF=T FulRan=T
         Omega=  0.000000  0.000000  1.000000  0.000000  0.000000 ICntrl=     500 IOpCl=  0
         NMat0=    1 NMatS0=    1 NMatT0=    0 NMatD0=    1 NMtDS0=    0 NMtDT0=    0
         I1Cent=           4 NGrid=           0.
 Petite list used in FoFCou.
 Requested convergence on RMS density matrix=1.00D-08 within 128 cycles.
 Requested convergence on MAX density matrix=1.00D-06.
 Requested convergence on             energy=1.00D-06.
 No special actions if energy rises.
 Keep R1 ints in memory in canonical form, NReq=7992901.
 Integral accuracy reduced to 1.0D-05 until final iterations.
 Rare condition: small coef for last iteration:  0.000D+00
 Rare condition: small coef for last iteration:  0.000D+00
 Problem detected with inexpensive integrals.
 Switching to full accuracy and repeating last cycle.
 Rare condition: small coef for last iteration:  0.000D+00
 EnCoef did   100 forward-backward iterations
 Rare condition: small coef for last iteration:  0.000D+00
 Rare condition: small coef for last iteration:  0.000D+00
 EnCoef did   100 forward-backward iterations
 EnCoef did   100 forward-backward iterations
 EnCoef did   100 forward-backward iterations
 Rare condition: small coef for last iteration: -0.301D-15
 EnCoef did   100 forward-backward iterations
 Rare condition: small coef for last iteration:  0.000D+00
 Rare condition: small coef for last iteration:  0.000D+00
 EnCoef did   100 forward-backward iterations
 Rare condition: small coef for last iteration:  0.000D+00
 EnCoef did   100 forward-backward iterations
 EnCoef did   100 forward-backward iterations
 Rare condition: small coef for last iteration:  0.000D+00
 Rare condition: small coef for last iteration:  0.000D+00
 Rare condition: small coef for last iteration:  0.000D+00
 Rare condition: small coef for last iteration:  0.000D+00
 Rare condition: small coef for last iteration:  0.000D+00
 Rare condition: small coef for last iteration:  0.000D+00
 Rare condition: small coef for last iteration:  0.000D+00
 SCF Done:  E(RM062X) =  -301.602740671     A.U. after   61 cycles
             Convg  =    0.1575D-08             -V/T =  2.0080
 Calling FoFJK, ICntrl=      2127 FMM=F ISym2X=0 I1Cent= 0 IOpClX= 0 NMat=1 NMatS=1 NMatT=0.
 ***** Axes restored to original set *****
 -------------------------------------------------------------------
 Center     Atomic                   Forces (Hartrees/Bohr)
 Number     Number              X              Y              Z
 -------------------------------------------------------------------
      1        8          -0.014648952    0.006992181    0.003670795
      2        1           0.000848437   -0.003583914   -0.001413002
      3        8           0.027537221    0.035724692   -0.003232426
      4        1          -0.023766499   -0.076173300   -0.007618817
      5        8           0.024500950    0.039707448    0.009242269
      6        8          -0.014471156   -0.002667107   -0.000648819
 -------------------------------------------------------------------
 Cartesian Forces:  Max     0.076173300 RMS     0.024991254

 GradGradGradGradGradGradGradGradGradGradGradGradGradGradGradGradGradGrad
 Berny optimization.
 Internal  Forces:  Max     0.041536041 RMS     0.017765901
 Search for a saddle point.
 Step number   6 out of a maximum of   22
 All quantities printed in internal units (Hartrees-Bohrs-Radians)
 Swaping is turned off.
 Update second derivatives using D2CorX and points    4    5    6
 The second derivative matrix:
                          R1        R2        R3        R4        R5
           R1           0.54504
           R2           0.00684   0.59052
           R3          -0.00103   0.00501   0.02431
           R4           0.00405  -0.00109   0.08456   0.16651
           R5          -0.00035  -0.00563   0.00502   0.10661   0.40915
           A1          -0.00376   0.07090   0.00245   0.00656   0.00600
           A2          -0.00065   0.05707  -0.00401   0.00376  -0.00116
           A3           0.00013   0.00033   0.01293   0.00217   0.00918
           A4           0.00026  -0.00286  -0.00237   0.00046  -0.00218
           A5           0.00068   0.00157   0.00055   0.00155   0.01013
           D1          -0.00023   0.00117  -0.00427   0.00126  -0.00953
           D2          -0.00022   0.00075  -0.00226   0.00624   0.00113
                          A1        A2        A3        A4        A5
           A1           0.23955
           A2           0.00624   0.20621
           A3          -0.00151  -0.01209   0.05288
           A4          -0.00115  -0.01186  -0.00019   0.01073
           A5           0.00105  -0.00295  -0.01091  -0.00325   0.00047
           D1           0.01137   0.01774   0.00846   0.00458   0.00708
           D2           0.00010  -0.00034  -0.00327   0.00015   0.00074
                          D1        D2
           D1           0.01078
           D2           0.00011   0.00393
     Eigenvalues ---   -0.02388  -0.00823   0.00409   0.00946   0.01618
     Eigenvalues ---    0.05684   0.16706   0.20094   0.22669   0.45316
     Eigenvalues ---    0.54467   0.61310
 Eigenvectors required to have negative eigenvalues:
                          R3        R4        D1        A5        A3
   1                    0.81425  -0.42455   0.23346  -0.19010  -0.18596
                          D2        R5        A4        A1        A2
   1                    0.13929   0.10836   0.01512  -0.00831  -0.00609
 RFO step:  Lambda0=3.872107274D-02 Lambda=-3.03666649D-02.
 Linear search not attempted -- option 19 set.
 Maximum step size (   0.300) exceeded in Quadratic search.
    -- Step size scaled by   0.260
 Iteration  1 RMS(Cart)=  0.09756484 RMS(Int)=  0.00987483
 Iteration  2 RMS(Cart)=  0.00723166 RMS(Int)=  0.00003277
 Iteration  3 RMS(Cart)=  0.00005157 RMS(Int)=  0.00000000
 Iteration  4 RMS(Cart)=  0.00000000 RMS(Int)=  0.00000000
 Variable       Old X    -DE/DX   Delta X   Delta X   Delta X     New X
                                 (Linear)    (Quad)   (Total)
    R1        1.82910   0.00204   0.00000   0.00157   0.00157   1.83067
    R2        2.62022   0.01412   0.00000   0.00891   0.00891   2.62913
    R3        2.84373  -0.04154   0.00000   0.10670   0.10670   2.95043
    R4        1.91944   0.03914   0.00000  -0.03157  -0.03157   1.88788
    R5        2.33767  -0.01452   0.00000   0.01104   0.01104   2.34870
    A1        1.82314  -0.00291   0.00000  -0.01297  -0.01297   1.81017
    A2        1.84930  -0.00608   0.00000  -0.02842  -0.02842   1.82089
    A3        1.93088  -0.00579   0.00000  -0.10481  -0.10481   1.82607
    A4        3.15555  -0.00210   0.00000  -0.03202  -0.03202   3.12353
    A5        2.83430  -0.00190   0.00000  -0.16141  -0.16141   2.67289
    D1        1.91498   0.00524   0.00000   0.18099   0.18099   2.09597
    D2        3.07784   0.00106   0.00000   0.07498   0.07498  -3.13037
         Item               Value     Threshold  Converged?
 Maximum Force            0.041536     0.000450     NO 
 RMS     Force            0.017766     0.000300     NO 
 Maximum Displacement     0.189586     0.001800     NO 
 RMS     Displacement     0.097866     0.001200     NO 
 Predicted change in Energy= 2.970309D-03
 GradGradGradGradGradGradGradGradGradGradGradGradGradGradGradGradGradGrad

                          Input orientation:                          
 ---------------------------------------------------------------------
 Center     Atomic      Atomic             Coordinates (Angstroms)
 Number     Number       Type             X           Y           Z
 ---------------------------------------------------------------------
      1          8           0       -0.632059    0.195923   -0.013428
      2          1           0       -0.944564   -0.249359   -0.815014
      3          8           0        0.753656    0.125941   -0.116131
      4          1           0        1.216364    1.617083   -0.123684
      5          8           0        1.553396    2.521093    0.135584
      6          8           0        2.788814    2.438263    0.027738
 ---------------------------------------------------------------------
                    Distance matrix (angstroms):
                    1          2          3          4          5
     1  O    0.000000
     2  H    0.968749   0.000000
     3  O    1.391277   1.874363   0.000000
     4  H    2.334206   2.937882   1.561301   0.000000
     5  O    3.194500   3.849525   2.537655   0.999021   0.000000
     6  O    4.090496   4.676714   3.083731   1.780411   1.242880
                    6
     6  O    0.000000
 Stoichiometry    H2O4
 Framework group  C1[X(H2O4)]
 Deg. of freedom    12
 Full point group                 C1      NOp   1
 Largest Abelian subgroup         C1      NOp   1
 Largest concise Abelian subgroup C1      NOp   1
                         Standard orientation:                         
 ---------------------------------------------------------------------
 Center     Atomic      Atomic             Coordinates (Angstroms)
 Number     Number       Type             X           Y           Z
 ---------------------------------------------------------------------
      1          8           0       -1.978605   -0.345056   -0.069755
      2          1           0       -2.551972   -0.127980    0.680312
      3          8           0       -1.007558    0.650904   -0.041743
      4          1           0        0.335683   -0.124047    0.139404
      5          8           0        1.206043   -0.589633   -0.014695
      6          8           0        2.057156    0.315288    0.023729
 ---------------------------------------------------------------------
 Rotational constants (GHZ):     30.7403830      2.8551273      2.6281592
 Standard basis: 6-31+G(d,p) (6D, 7F)
 There are    86 symmetry adapted basis functions of A   symmetry.
 Integral buffers will be    262144 words long.
 Raffenetti 2 integral format.
 Two-electron integral symmetry is turned on.
    86 basis functions,   142 primitive gaussians,    86 cartesian basis functions
    17 alpha electrons       17 beta electrons
       nuclear repulsion energy       114.7555816606 Hartrees.
 NAtoms=    6 NActive=    6 NUniq=    6 SFac= 7.50D-01 NAtFMM=   80 NAOKFM=F Big=F
 One-electron integrals computed using PRISM.
 NBasis=    86 RedAO= T  NBF=    86
 NBsUse=    86 1.00D-06 NBFU=    86
 Initial guess read from the read-write file.
 B after Tr=     0.000000    0.000000    0.000000
         Rot=    1.000000    0.000000    0.000000    0.000000 Ang=   0.00 deg.
 Initial guess orbital symmetries:
       Occupied  (A) (A) (A) (A) (A) (A) (A) (A) (A) (A) (A) (A)
                 (A) (A) (A) (A) (A)
       Virtual   (A) (A) (A) (A) (A) (A) (A) (A) (A) (A) (A) (A)
                 (A) (A) (A) (A) (A) (A) (A) (A) (A) (A) (A) (A)
                 (A) (A) (A) (A) (A) (A) (A) (A) (A) (A) (A) (A)
                 (A) (A) (A) (A) (A) (A) (A) (A) (A) (A) (A) (A)
                 (A) (A) (A) (A) (A) (A) (A) (A) (A) (A) (A) (A)
                 (A) (A) (A) (A) (A) (A) (A) (A) (A)
 Harris functional with IExCor= 1009 diagonalized for initial guess.
 ExpMin= 8.45D-02 ExpMax= 5.48D+03 ExpMxC= 8.25D+02 IAcc=2 IRadAn=         0 AccDes= 0.00D+00
 HarFok:  IExCor= 1009 AccDes= 0.00D+00 IRadAn=         0 IDoV= 1
 ScaDFX=  1.000000  1.000000  1.000000  1.000000
[...]
    A3        1.84957   0.00654   0.00000   0.01399   0.01399   1.86356
    A4        3.17567  -0.00894   0.00000  -0.03716  -0.03716   3.13850
    A5        1.23784  -0.00281   0.00000  -0.01095  -0.01095   1.22689
    D1       -2.63595   0.00798   0.00000   0.11745   0.11745  -2.51850
    D2       -2.55627  -0.00080   0.00000  -0.02023  -0.02023  -2.57650
         Item               Value     Threshold  Converged?
 Maximum Force            0.028358     0.000450     NO 
 RMS     Force            0.010046     0.000300     NO 
 Maximum Displacement     0.198717     0.001800     NO 
 RMS     Displacement     0.120432     0.001200     NO 
 Predicted change in Energy=-9.414902D-03
 GradGradGradGradGradGradGradGradGradGradGradGradGradGradGradGradGradGrad

                          Input orientation:                          
 ---------------------------------------------------------------------
 Center     Atomic      Atomic             Coordinates (Angstroms)
 Number     Number       Type             X           Y           Z
 ---------------------------------------------------------------------
      1          8           0       -0.541858    0.359186   -0.614388
      2          1           0       -0.860389   -0.434248   -0.155107
      3          8           0        0.797400    0.375900   -0.371241
      4          1           0        0.987849    1.848844   -0.260051
      5          8           0        1.599088    2.215882    0.487108
      6          8           0        2.753515    2.283380    0.008743
 ---------------------------------------------------------------------
                    Distance matrix (angstroms):
                    1          2          3          4          5
     1  O    0.000000
     2  H    0.970535   0.000000
     3  O    1.361253   1.857773   0.000000
     4  H    2.164402   2.939304   1.489361   0.000000
     5  O    3.040438   3.672147   2.182888   1.032753   0.000000
     6  O    3.866561   4.524672   2.758487   1.838110   1.251436
                    6
     6  O    0.000000
 Stoichiometry    H2O4
 Framework group  C1[X(H2O4)]
 Deg. of freedom    12
 Full point group                 C1      NOp   1
 Largest Abelian subgroup         C1      NOp   1
 Largest concise Abelian subgroup C1      NOp   1
                         Standard orientation:                         
 ---------------------------------------------------------------------
 Center     Atomic      Atomic             Coordinates (Angstroms)
 Number     Number       Type             X           Y           Z
 ---------------------------------------------------------------------
      1          8           0       -1.908501    0.208696   -0.207669
      2          1           0       -2.536214    0.085764    0.522265
      3          8           0       -0.813688   -0.510264    0.163132
      4          1           0        0.240916    0.381734   -0.393955
      5          8           0        1.087768    0.561851    0.169052
      6          8           0        1.921333   -0.318721   -0.140554
 ---------------------------------------------------------------------
 Rotational constants (GHZ):     36.1177410      3.2478904      3.0631967
 Standard basis: 6-31+G(d,p) (6D, 7F)
 There are    86 symmetry adapted basis functions of A   symmetry.
 Integral buffers will be    262144 words long.
 Raffenetti 2 integral format.
 Two-electron integral symmetry is turned on.
    86 basis functions,   142 primitive gaussians,    86 cartesian basis functions
    17 alpha electrons       17 beta electrons
       nuclear repulsion energy       119.7426211842 Hartrees.
 NAtoms=    6 NActive=    6 NUniq=    6 SFac= 7.50D-01 NAtFMM=   80 NAOKFM=F Big=F
 One-electron integrals computed using PRISM.
 NBasis=    86 RedAO= T  NBF=    86
 NBsUse=    86 1.00D-06 NBFU=    86
 Initial guess read from the read-write file.
 B after Tr=     0.000000    0.000000    0.000000
         Rot=    1.000000    0.000000    0.000000    0.000000 Ang=   0.00 deg.
 Initial guess orbital symmetries:
       Occupied  (A) (A) (A) (A) (A) (A) (A) (A) (A) (A) (A) (A)
                 (A) (A) (A) (A) (A)
       Virtual   (A) (A) (A) (A) (A) (A) (A) (A) (A) (A) (A) (A)
                 (A) (A) (A) (A) (A) (A) (A) (A) (A) (A) (A) (A)
                 (A) (A) (A) (A) (A) (A) (A) (A) (A) (A) (A) (A)
                 (A) (A) (A) (A) (A) (A) (A) (A) (A) (A) (A) (A)
                 (A) (A) (A) (A) (A) (A) (A) (A) (A) (A) (A) (A)
                 (A) (A) (A) (A) (A) (A) (A) (A) (A)
 Harris functional with IExCor= 1009 diagonalized for initial guess.
 ExpMin= 8.45D-02 ExpMax= 5.48D+03 ExpMxC= 8.25D+02 IAcc=2 IRadAn=         0 AccDes= 0.00D+00
 HarFok:  IExCor= 1009 AccDes= 0.00D+00 IRadAn=         0 IDoV= 1
 ScaDFX=  1.000000  1.000000  1.000000  1.000000
 FoFCou: FMM=F IPFlag=           0 FMFlag=      100000 FMFlg1=           0
         NFxFlg=           0 DoJE=T BraDBF=F KetDBF=T FulRan=T
         Omega=  0.000000  0.000000  1.000000  0.000000  0.000000 ICntrl=     500 IOpCl=  0
         NMat0=    1 NMatS0=    1 NMatT0=    0 NMatD0=    1 NMtDS0=    0 NMtDT0=    0
         I1Cent=           4 NGrid=           0.
 Petite list used in FoFCou.
 Requested convergence on RMS density matrix=1.00D-08 within 128 cycles.
 Requested convergence on MAX density matrix=1.00D-06.
 Requested convergence on             energy=1.00D-06.
 No special actions if energy rises.
 Keep R1 ints in memory in canonical form, NReq=7992755.
 Integral accuracy reduced to 1.0D-05 until final iterations.
 Initial convergence to 1.0D-05 achieved.  Increase integral accuracy.
 SCF Done:  E(RM062X) =  -301.626358516     A.U. after   26 cycles
             Convg  =    0.3774D-08             -V/T =  2.0080
 Calling FoFJK, ICntrl=      2127 FMM=F ISym2X=0 I1Cent= 0 IOpClX= 0 NMat=1 NMatS=1 NMatT=0.
 ***** Axes restored to original set *****
 -------------------------------------------------------------------
 Center     Atomic                   Forces (Hartrees/Bohr)
 Number     Number              X              Y              Z
 -------------------------------------------------------------------
      1        8          -0.008137127   -0.004320380   -0.003094552
      2        1          -0.000090176    0.002003601    0.003527966
      3        8           0.009662011    0.021102849   -0.002344294
      4        1          -0.005165489   -0.021739123   -0.002633833
      5        8           0.005694265    0.003985660    0.000716867
      6        8          -0.001963485   -0.001032606    0.003827847
 -------------------------------------------------------------------
 Cartesian Forces:  Max     0.021739123 RMS     0.008265427

 GradGradGradGradGradGradGradGradGradGradGradGradGradGradGradGradGradGrad
 Berny optimization.
 Internal  Forces:  Max     0.018357491 RMS     0.006774592
 Search for a saddle point.
 Step number  22 out of a maximum of   22
 All quantities printed in internal units (Hartrees-Bohrs-Radians)
 Swaping is turned off.
 Update second derivatives using D2CorX and points   20   21   22
 The second derivative matrix:
                          R1        R2        R3        R4        R5
           R1           0.54507
           R2           0.00723   0.62235
           R3          -0.00184   0.01462   0.04104
           R4           0.00435  -0.04826   0.08053   0.33422
           R5          -0.00036   0.00423  -0.01578   0.06890   0.44497
           A1          -0.00388   0.06868   0.00084   0.00835   0.00600
           A2          -0.00073   0.04308   0.03429   0.00197  -0.00395
           A3           0.00068   0.04781  -0.02212  -0.03266   0.03369
           A4          -0.00009  -0.00726   0.03623  -0.02576   0.01078
           A5           0.00050  -0.00711   0.01484  -0.01322   0.00905
           D1          -0.00076  -0.01826   0.00993   0.01611   0.00372
           D2          -0.00035   0.02275  -0.01752  -0.00295  -0.00694
                          A1        A2        A3        A4        A5
           A1           0.24080
           A2           0.00892   0.21494
           A3          -0.00001  -0.03455   0.20975
           A4          -0.00072  -0.01323  -0.00641   0.01301
           A5           0.00390  -0.01048  -0.00245  -0.01811   0.00123
           D1           0.00447   0.01903  -0.03404   0.01193  -0.00009
           D2          -0.00091  -0.00292   0.02174  -0.00848   0.00538
                          D1        D2
           D1           0.03745
           D2          -0.00691   0.02691
     Eigenvalues ---   -0.04921   0.01339   0.01894   0.02821   0.06399
     Eigenvalues ---    0.16811   0.22731   0.23744   0.34596   0.47963
     Eigenvalues ---    0.54499   0.65299
 Eigenvectors required to have negative eigenvalues:
                          A4        R3        A5        R4        A2
   1                    0.59719  -0.56998   0.49023   0.19654   0.12183
                          D2        D1        R5        R2        A1
   1                   -0.11427  -0.07207  -0.06875   0.03362  -0.01871
 RFO step:  Lambda0=3.485399814D-03 Lambda=-8.84459910D-03.
 Linear search not attempted -- option 19 set.
 Maximum step size (   0.300) exceeded in Quadratic search.
    -- Step size scaled by   0.516
 Iteration  1 RMS(Cart)=  0.14419707 RMS(Int)=  0.01541848
 Iteration  2 RMS(Cart)=  0.02330244 RMS(Int)=  0.00026360
 Iteration  3 RMS(Cart)=  0.00044016 RMS(Int)=  0.00000019
 Iteration  4 RMS(Cart)=  0.00000022 RMS(Int)=  0.00000000
 Variable       Old X    -DE/DX   Delta X   Delta X   Delta X     New X
                                 (Linear)    (Quad)   (Total)
    R1        1.83405   0.00007   0.00000  -0.00018  -0.00018   1.83387
    R2        2.57240   0.00779   0.00000   0.01252   0.01252   2.58492
    R3        2.81448  -0.01836   0.00000  -0.06664  -0.06664   2.74784
    R4        1.95162   0.00644   0.00000   0.00306   0.00306   1.95468
    R5        2.36487  -0.00328   0.00000  -0.00400  -0.00400   2.36087
    A1        1.82183  -0.00116   0.00000  -0.00630  -0.00630   1.81553
    A2        1.72266   0.00425   0.00000  -0.01062  -0.01062   1.71204
    A3        1.86356   0.00200   0.00000   0.02203   0.02203   1.88559
    A4        3.13850   0.00025   0.00000  -0.16712  -0.16712   2.97139
    A5        1.22689   0.00112   0.00000  -0.15008  -0.15008   1.07680
    D1       -2.51850   0.00708   0.00000   0.14712   0.14712  -2.37138
    D2       -2.57650  -0.00509   0.00000  -0.11244  -0.11244  -2.68894
         Item               Value     Threshold  Converged?
 Maximum Force            0.018357     0.000450     NO 
 RMS     Force            0.006775     0.000300     NO 
 Maximum Displacement     0.194679     0.001800     NO 
 RMS     Displacement     0.150007     0.001200     NO 
 Predicted change in Energy=-2.341319D-03
 Optimization stopped.
    -- Number of steps exceeded,  NStep=  22
    -- Flag reset to prevent archiving.
                           ----------------------------
                           ! Non-Optimized Parameters !
                           ! (Angstroms and Degrees)  !
 --------------------------                            --------------------------
 ! Name  Definition              Value          Derivative Info.                !
 --------------------------------------------------------------------------------
 ! R1    R(1,2)                  0.9704         -DE/DX =    0.0001              !
 ! R2    R(1,3)                  1.3679         -DE/DX =    0.0078              !
 ! R3    R(3,4)                  1.4541         -DE/DX =   -0.0184              !
 ! R4    R(4,5)                  1.0344         -DE/DX =    0.0064              !
 ! R5    R(5,6)                  1.2493         -DE/DX =   -0.0033              !
 ! A1    A(2,1,3)              104.0224         -DE/DX =   -0.0012              !
 ! A2    A(1,3,4)               98.0929         -DE/DX =    0.0043              !
 ! A3    A(4,5,6)              108.0363         -DE/DX =    0.002               !
 ! A4    L(3,4,5,1,-1)         170.2481         -DE/DX =    0.0002              !
 ! A5    L(3,4,5,1,-2)          61.6962         -DE/DX =    0.0011              !
 ! D1    D(2,1,3,4)           -135.8703         -DE/DX =    0.0071              !
 ! D2    D(1,3,5,6)           -154.0648         -DE/DX =   -0.0051              !
 --------------------------------------------------------------------------------
 GradGradGradGradGradGradGradGradGradGradGradGradGradGradGradGradGradGrad

                          Input orientation:                          
 ---------------------------------------------------------------------
 Center     Atomic      Atomic             Coordinates (Angstroms)
 Number     Number       Type             X           Y           Z
 ---------------------------------------------------------------------
      1          8           0       -0.541858    0.359186   -0.614388
      2          1           0       -0.860389   -0.434248   -0.155107
      3          8           0        0.797400    0.375900   -0.371241
      4          1           0        0.987849    1.848844   -0.260051
      5          8           0        1.599088    2.215882    0.487108
      6          8           0        2.753515    2.283380    0.008743
 ---------------------------------------------------------------------
                    Distance matrix (angstroms):
                    1          2          3          4          5
     1  O    0.000000
     2  H    0.970535   0.000000
     3  O    1.361253   1.857773   0.000000
     4  H    2.164402   2.939304   1.489361   0.000000
     5  O    3.040438   3.672147   2.182888   1.032753   0.000000
     6  O    3.866561   4.524672   2.758487   1.838110   1.251436
                    6
     6  O    0.000000
 Stoichiometry    H2O4
 Framework group  C1[X(H2O4)]
 Deg. of freedom    12
 Full point group                 C1      NOp   1
 Largest Abelian subgroup         C1      NOp   1
 Largest concise Abelian subgroup C1      NOp   1
                         Standard orientation:                         
 ---------------------------------------------------------------------
 Center     Atomic      Atomic             Coordinates (Angstroms)
 Number     Number       Type             X           Y           Z
 ---------------------------------------------------------------------
      1          8           0       -1.908501    0.208696   -0.207669
      2          1           0       -2.536214    0.085764    0.522265
      3          8           0       -0.813688   -0.510264    0.163132
      4          1           0        0.240916    0.381734   -0.393955
      5          8           0        1.087768    0.561851    0.169052
      6          8           0        1.921333   -0.318721   -0.140554
 ---------------------------------------------------------------------
 Rotational constants (GHZ):     36.1177410      3.2478904      3.0631967

 **********************************************************************

            Population analysis using the SCF density.

 **********************************************************************

 Orbital symmetries:
       Occupied  (A) (A) (A) (A) (A) (A) (A) (A) (A) (A) (A) (A)
                 (A) (A) (A) (A) (A)
       Virtual   (A) (A) (A) (A) (A) (A) (A) (A) (A) (A) (A) (A)
                 (A) (A) (A) (A) (A) (A) (A) (A) (A) (A) (A) (A)
                 (A) (A) (A) (A) (A) (A) (A) (A) (A) (A) (A) (A)
                 (A) (A) (A) (A) (A) (A) (A) (A) (A) (A) (A) (A)
                 (A) (A) (A) (A) (A) (A) (A) (A) (A) (A) (A) (A)
                 (A) (A) (A) (A) (A) (A) (A) (A) (A)
 The electronic state is 1-A.
 Alpha  occ. eigenvalues --  -19.84972 -19.78496 -19.74345 -19.72482  -1.41959
 Alpha  occ. eigenvalues --   -1.29284  -1.01025  -0.95884  -0.70655  -0.63490
 Alpha  occ. eigenvalues --   -0.62494  -0.60724  -0.53673  -0.52061  -0.41516
 Alpha  occ. eigenvalues --   -0.37301  -0.31279
 Alpha virt. eigenvalues --   -0.16012   0.05663   0.08075   0.10275   0.11178
 Alpha virt. eigenvalues --    0.13053   0.16862   0.17341   0.19843   0.20363
 Alpha virt. eigenvalues --    0.21342   0.23001   0.23330   0.24954   0.25722
 Alpha virt. eigenvalues --    0.28125   0.29240   0.33846   0.34039   0.37413
 Alpha virt. eigenvalues --    0.38924   0.85308   0.99004   1.01245   1.04437
 Alpha virt. eigenvalues --    1.11536   1.12947   1.15587   1.15723   1.16936
 Alpha virt. eigenvalues --    1.18230   1.19272   1.23831   1.27151   1.29795
 Alpha virt. eigenvalues --    1.31849   1.40927   1.46359   1.50451   1.53122
 Alpha virt. eigenvalues --    1.55890   1.57975   1.63056   1.64491   1.75592
 Alpha virt. eigenvalues --    1.78519   1.82688   1.89727   2.12214   2.15381
 Alpha virt. eigenvalues --    2.19055   2.24791   2.31928   2.44974   2.47825
 Alpha virt. eigenvalues --    2.52228   2.58554   2.64129   2.87359   2.90893
 Alpha virt. eigenvalues --    2.94722   3.00138   3.10753   3.39573   3.53969
 Alpha virt. eigenvalues --    3.74644   3.89497   4.19946   4.25026
          Condensed to atoms (all electrons):
              1          2          3          4          5          6
     1  O    8.043065   0.248186   0.054784  -0.016671   0.034862  -0.008886
     2  H    0.248186   0.394747  -0.026999   0.002624  -0.004590   0.000525
     3  O    0.054784  -0.026999   8.254541   0.092644  -0.099175   0.051197
     4  H   -0.016671   0.002624   0.092644   0.353118   0.174899  -0.039693
     5  O    0.034862  -0.004590  -0.099175   0.174899   7.661354   0.251470
     6  O   -0.008886   0.000525   0.051197  -0.039693   0.251470   7.862819
 Mulliken atomic charges:
              1
     1  O   -0.355339
     2  H    0.385506
     3  O   -0.326994
     4  H    0.433079
     5  O   -0.018820
     6  O   -0.117432
 Sum of Mulliken atomic charges =   0.00000
 Mulliken charges with hydrogens summed into heavy atoms:
              1
     1  O    0.030167
     3  O   -0.326994
     5  O    0.414259
     6  O   -0.117432
 Sum of Mulliken charges with hydrogens summed into heavy atoms =   0.00000
 Electronic spatial extent (au):  <R**2>=            359.7346
 Charge=              0.0000 electrons
 Dipole moment (field-independent basis, Debye):
    X=             -1.3740    Y=              1.3241    Z=              0.3998  Tot=              1.9496
 Quadrupole moment (field-independent basis, Debye-Ang):
   XX=            -18.9017   YY=            -23.4393   ZZ=            -22.5824
   XY=              0.5538   XZ=             -3.7847   YZ=             -0.4236
 Traceless Quadrupole moment (field-independent basis, Debye-Ang):
   XX=              2.7394   YY=             -1.7981   ZZ=             -0.9413
   XY=              0.5538   XZ=             -3.7847   YZ=             -0.4236
 Octapole moment (field-independent basis, Debye-Ang**2):
  XXX=            -22.4499  YYY=              1.2444  ZZZ=              0.3551  XYY=              1.4736
  XXY=              1.2559  XXZ=              8.7947  XZZ=             -0.7651  YZZ=              0.8210
  YYZ=             -0.1156  XYZ=             -1.0560
 Hexadecapole moment (field-independent basis, Debye-Ang**3):
 XXXX=           -278.1926 YYYY=            -42.5642 ZZZZ=            -23.2296 XXXY=              2.8759
 XXXZ=            -27.1203 YYYX=              0.1859 YYYZ=             -0.1956 ZZZX=             -2.4179
 ZZZY=             -0.2017 XXYY=            -62.7159 XXZZ=            -57.2892 YYZZ=            -11.2240
 XXYZ=              0.4964 YYXZ=             -0.6524 ZZXY=              0.1788
 N-N= 1.197426211842D+02 E-N=-9.510691515009D+02  KE= 2.992212580438D+02


 THE BEST WAY TO CONVINCE A FOOL THAT HE IS WRONG 
 IS TO LET HIM HAVE HIS OWN WAY.

                                         JOSH BILLINGS
 Error termination request processed by link 9999.
 Error termination via Lnk1e in C:\G09W\l9999.exe at Sun Feb 07 01:37:40 2021.
 Job cpu time:  0 days  0 hours  4 minutes 10.0 seconds.
 File lengths (MBytes):  RWF=      9 Int=      0 D2E=      0 Chk=      1 Scr=      1
