 Entering Link 1 = C:\G09W\l1.exe PID=     10028.
  
 Copyright (c) 1988,1990,1992,1993,1995,1998,2003,2009, Gaussian, Inc.
                  All Rights Reserved.
  
 This is part of the Gaussian(R) 09 program.  It is based on
 the Gaussian(R) 03 system (copyright 2003, Gaussian, Inc.),
 the Gaussian(R) 98 system (copyright 1998, Gaussian, Inc.),
 the Gaussian(R) 94 system (copyright 1995, Gaussian, Inc.),
 the Gaussian 92(TM) system (copyright 1992, Gaussian, Inc.),
 the Gaussian 90(TM) system (copyright 1990, Gaussian, Inc.),
 the Gaussian 88(TM) system (copyright 1988, Gaussian, Inc.),
 the Gaussian 86(TM) system (copyright 1986, Carnegie Mellon
 University), and the Gaussian 82(TM) system (copyright 1983,
 Carnegie Mellon University). Gaussian is a federally registered
 trademark of Gaussian, Inc.
  
 This software contains proprietary and confidential information,
 including trade secrets, belonging to Gaussian, Inc.
  
 This software is provided under written license and may be
 used, copied, transmitted, or stored only in accord with that
 written license.
  
 The following legend is applicable only to US Government
 contracts under FAR:
  
                    RESTRICTED RIGHTS LEGEND
  
 Use, reproduction and disclosure by the US Government is
 subject to restrictions as set forth in subparagraphs (a)
 and (c) of the Commercial Computer Software - Restricted
 Rights clause in FAR 52.227-19.
  
 Gaussian, Inc.
 340 Quinnipiac St., Bldg. 40, Wallingford CT 06492
  
  
 ---------------------------------------------------------------
 Warning -- This program may not be used in any manner that
 competes with the business of Gaussian, Inc. or will provide
 assistance to any competitor of Gaussian, Inc.  The licensee
 of this program is prohibited from giving any competitor of
 Gaussian, Inc. access to this program.  By using this program,
 the user acknowledges that Gaussian, Inc. is engaged in the
 business of creating and licensing software in the field of
 computational chemistry and represents and warrants to the
 licensee that it is not a competitor of Gaussian, Inc. and that
 it will not use this program in any manner prohibited above.
 ---------------------------------------------------------------
  

 Cite this work as:
 Gaussian 09, Revision A.02,
 M. J. Frisch, G. W. Trucks, H. B. Schlegel, G. E. Scuseria, 
 M. A. Robb, J. R. Cheeseman, G. Scalmani, V. Barone, B. Mennucci, 
 G. A. Petersson, H. Nakatsuji, M. Caricato, X. Li, H. P. Hratchian, 
 A. F. Izmaylov, J. Bloino, G. Zheng, J. L. Sonnenberg, M. Hada, 
 M. Ehara, K. Toyota, R. Fukuda, J. Hasegawa, M. Ishida, T. Nakajima, 
 Y. Honda, O. Kitao, H. Nakai, T. Vreven, J. A. Montgomery, Jr., 
 J. E. Peralta, F. Ogliaro, M. Bearpark, J. J. Heyd, E. Brothers, 
 K. N. Kudin, V. N. Staroverov, R. Kobayashi, J. Normand, 
 K. Raghavachari, A. Rendell, J. C. Burant, S. S. Iyengar, J. Tomasi, 
 M. Cossi, N. Rega, J. M. Millam, M. Klene, J. E. Knox, J. B. Cross, 
 V. Bakken, C. Adamo, J. Jaramillo, R. Gomperts, R. E. Stratmann, 
 O. Yazyev, A. J. Austin, R. Cammi, C. Pomelli, J. W. Ochterski, 
 R. L. Martin, K. Morokuma, V. G. Zakrzewski, G. A. Voth, 
 P. Salvador, J. J. Dannenberg, S. Dapprich, A. D. Daniels, 
 O. Farkas, J. B. Foresman, J. V. Ortiz, J. Cioslowski, 
 and D. J. Fox, Gaussian, Inc., Wallingford CT, 2009.
 
 ******************************************
 Gaussian 09:  IA32W-G09RevA.02 11-Jun-2009
                31-Jan-2021 
 ******************************************
 %mem=1500MB
 %nprocshared=4
 Will use up to    4 processors via shared memory.
 -------------------------------------
 # opt freq 6-31+g(d,p) scrf=smd m062x
 -------------------------------------
 1/14=-1,18=20,19=15,26=3,38=1/1,3;
 2/9=110,12=2,17=6,18=5,40=1/2;
 3/5=1,6=6,7=111,11=2,16=1,25=1,30=1,70=32201,71=1,72=1,74=-55/1,2,3;
 4//1;
 5/5=2,38=5/2;
 6/7=2,8=2,9=2,10=2,28=1/1;
 7//1,2,3,16;
 1/14=-1,18=20,19=15/3(2);
 2/9=110/2;
 99//99;
 2/9=110/2;
 3/5=1,6=6,7=111,11=2,16=1,25=1,30=1,70=32205,71=1,74=-55/1,2,3;
 4/5=5,16=3/1;
 5/5=2,38=5/2;
 7//1,2,3,16;
 1/14=-1,18=20,19=15/3(-5);
 2/9=110/2;
 6/7=2,8=2,9=2,10=2,19=2,28=1/1;
 99/9=1/99;
 -----------
 fenol m062x
 -----------
 Symbolic Z-matrix:
 Charge =  0 Multiplicity = 2
 C                    -1.10093   1.20076   0.00002 
 C                     0.29126   1.20742  -0.00006 
 C                     1.0461    0.00002  -0.00005 
 C                     0.29126  -1.2074   -0.00004 
 C                    -1.10091  -1.20079   0.00002 
 C                    -1.81848  0.         0.00002 
 H                    -1.63617   2.14753   0.00003 
 H                     0.83453   2.14967   0.00003 
 H                     0.83459  -2.14962   0. 
 H                    -1.63616  -2.14754  0. 
 H                    -2.90353  -0.00002   0.00003 
 O                     2.35712  -0.00001   0.00006 
 

 GradGradGradGradGradGradGradGradGradGradGradGradGradGradGradGradGradGrad
 Berny optimization.
 Initialization pass.
                           ----------------------------
                           !    Initial Parameters    !
                           ! (Angstroms and Degrees)  !
 --------------------------                            --------------------------
 ! Name  Definition              Value          Derivative Info.                !
 --------------------------------------------------------------------------------
 ! R1    R(1,2)                  1.3922         estimate D2E/DX2                !
 ! R2    R(1,6)                  1.3988         estimate D2E/DX2                !
 ! R3    R(1,7)                  1.0876         estimate D2E/DX2                !
 ! R4    R(2,3)                  1.4239         estimate D2E/DX2                !
 ! R5    R(2,8)                  1.0877         estimate D2E/DX2                !
 ! R6    R(3,4)                  1.424          estimate D2E/DX2                !
 ! R7    R(3,12)                 1.311          estimate D2E/DX2                !
 ! R8    R(4,5)                  1.3922         estimate D2E/DX2                !
 ! R9    R(4,9)                  1.0877         estimate D2E/DX2                !
 ! R10   R(5,6)                  1.3989         estimate D2E/DX2                !
 ! R11   R(5,10)                 1.0876         estimate D2E/DX2                !
 ! R12   R(6,11)                 1.0851         estimate D2E/DX2                !
 ! A1    A(2,1,6)              121.1352         estimate D2E/DX2                !
 ! A2    A(2,1,7)              119.2072         estimate D2E/DX2                !
 ! A3    A(6,1,7)              119.6576         estimate D2E/DX2                !
 ! A4    A(1,2,3)              121.7389         estimate D2E/DX2                !
 ! A5    A(1,2,8)              120.2402         estimate D2E/DX2                !
 ! A6    A(3,2,8)              118.0209         estimate D2E/DX2                !
 ! A7    A(2,3,4)              115.9752         estimate D2E/DX2                !
 ! A8    A(2,3,12)             122.014          estimate D2E/DX2                !
 ! A9    A(4,3,12)             122.0108         estimate D2E/DX2                !
 ! A10   A(3,4,5)              121.7399         estimate D2E/DX2                !
 ! A11   A(3,4,9)              118.0181         estimate D2E/DX2                !
 ! A12   A(5,4,9)              120.2421         estimate D2E/DX2                !
 ! A13   A(4,5,6)              121.134          estimate D2E/DX2                !
 ! A14   A(4,5,10)             119.2096         estimate D2E/DX2                !
 ! A15   A(6,5,10)             119.6564         estimate D2E/DX2                !
 ! A16   A(1,6,5)              118.2768         estimate D2E/DX2                !
 ! A17   A(1,6,11)             120.8625         estimate D2E/DX2                !
 ! A18   A(5,6,11)             120.8607         estimate D2E/DX2                !
 ! D1    D(6,1,2,3)             -0.0038         estimate D2E/DX2                !
 ! D2    D(6,1,2,8)           -179.9949         estimate D2E/DX2                !
 ! D3    D(7,1,2,3)            179.9988         estimate D2E/DX2                !
 ! D4    D(7,1,2,8)              0.0076         estimate D2E/DX2                !
 ! D5    D(2,1,6,5)              0.003          estimate D2E/DX2                !
 ! D6    D(2,1,6,11)          -179.9972         estimate D2E/DX2                !
 ! D7    D(7,1,6,5)           -179.9995         estimate D2E/DX2                !
 ! D8    D(7,1,6,11)             0.0002         estimate D2E/DX2                !
 ! D9    D(1,2,3,4)              0.0034         estimate D2E/DX2                !
 ! D10   D(1,2,3,12)          -179.9911         estimate D2E/DX2                !
 ! D11   D(8,2,3,4)            179.9948         estimate D2E/DX2                !
 ! D12   D(8,2,3,12)             0.0003         estimate D2E/DX2                !
 ! D13   D(2,3,4,5)             -0.0027         estimate D2E/DX2                !
 ! D14   D(2,3,4,9)           -179.9979         estimate D2E/DX2                !
 ! D15   D(12,3,4,5)           179.9918         estimate D2E/DX2                !
 ! D16   D(12,3,4,9)            -0.0034         estimate D2E/DX2                !
 ! D17   D(3,4,5,6)              0.0022         estimate D2E/DX2                !
 ! D18   D(3,4,5,10)           179.9985         estimate D2E/DX2                !
 ! D19   D(9,4,5,6)            179.9973         estimate D2E/DX2                !
 ! D20   D(9,4,5,10)            -0.0064         estimate D2E/DX2                !
 ! D21   D(4,5,6,1)             -0.0023         estimate D2E/DX2                !
 ! D22   D(4,5,6,11)           179.998          estimate D2E/DX2                !
 ! D23   D(10,5,6,1)          -179.9986         estimate D2E/DX2                !
 ! D24   D(10,5,6,11)            0.0017         estimate D2E/DX2                !
 --------------------------------------------------------------------------------
 Trust Radius=3.00D-01 FncErr=1.00D-07 GrdErr=1.00D-06
 Number of steps in this run=  64 maximum allowed number of steps= 100.
 GradGradGradGradGradGradGradGradGradGradGradGradGradGradGradGradGradGrad

                          Input orientation:                          
 ---------------------------------------------------------------------
 Center     Atomic      Atomic             Coordinates (Angstroms)
 Number     Number       Type             X           Y           Z
 ---------------------------------------------------------------------
      1          6           0       -1.100929    1.200764    0.000017
      2          6           0        0.291260    1.207416   -0.000056
      3          6           0        1.046096    0.000021   -0.000049
      4          6           0        0.291258   -1.207403   -0.000040
      5          6           0       -1.100908   -1.200787    0.000017
      6          6           0       -1.818475   -0.000002    0.000022
      7          1           0       -1.636168    2.147530    0.000029
      8          1           0        0.834534    2.149669    0.000025
      9          1           0        0.834588   -2.149625    0.000001
     10          1           0       -1.636160   -2.147541   -0.000003
     11          1           0       -2.903533   -0.000023    0.000034
     12          8           0        2.357115   -0.000009    0.000056
 ---------------------------------------------------------------------
                    Distance matrix (angstroms):
                    1          2          3          4          5
     1  C    0.000000
     2  C    1.392205   0.000000
     3  C    2.459980   1.423931   0.000000
     4  C    2.781628   2.414819   1.423957   0.000000
     5  C    2.401551   2.781649   2.459993   1.392182   0.000000
     6  C    1.398825   2.430811   2.864571   2.430800   1.398852
     7  H    1.087588   2.144480   3.436035   3.869179   3.390830
     8  H    2.155560   1.087652   2.160034   3.400747   3.869301
     9  H    3.869281   3.400725   2.160026   1.087653   2.155560
    10  H    3.390814   3.869197   3.436062   2.144481   1.087583
    11  H    2.165934   3.415349   3.949629   3.415327   2.165939
    12  O    3.660591   2.392829   1.311019   2.392815   3.660572
                    6          7          8          9         10
     6  C    0.000000
     7  H    2.155256   0.000000
     8  H    3.414607   2.470703   0.000000
     9  H    3.414619   4.956831   4.299294   0.000000
    10  H    2.155264   4.295071   4.956848   2.470749   0.000000
    11  H    1.085058   2.493631   4.312113   4.312115   2.493605
    12  O    4.175590   4.534119   2.634268   2.634186   4.534108
                   11         12
    11  H    0.000000
    12  O    5.260648   0.000000
 Stoichiometry    C6H5O(2)
 Framework group  C1[X(C6H5O)]
 Deg. of freedom    30
 Full point group                 C1      NOp   1
 Largest Abelian subgroup         C1      NOp   1
 Largest concise Abelian subgroup C1      NOp   1
                         Standard orientation:                         
 ---------------------------------------------------------------------
 Center     Atomic      Atomic             Coordinates (Angstroms)
 Number     Number       Type             X           Y           Z
 ---------------------------------------------------------------------
      1          6           0       -1.100929    1.200764    0.000017
      2          6           0        0.291260    1.207416   -0.000056
      3          6           0        1.046096    0.000021   -0.000049
      4          6           0        0.291258   -1.207403   -0.000040
      5          6           0       -1.100908   -1.200787    0.000017
      6          6           0       -1.818475   -0.000001    0.000022
      7          1           0       -1.636167    2.147531    0.000029
      8          1           0        0.834535    2.149669    0.000025
      9          1           0        0.834588   -2.149625    0.000000
     10          1           0       -1.636160   -2.147540   -0.000003
     11          1           0       -2.903533   -0.000022    0.000034
     12          8           0        2.357115   -0.000009    0.000056
 ---------------------------------------------------------------------
 Rotational constants (GHZ):      5.7297215      2.6897792      1.8304750
 Standard basis: 6-31+G(d,p) (6D, 7F)
 There are   158 symmetry adapted basis functions of A   symmetry.
 Integral buffers will be    262144 words long.
 Raffenetti 2 integral format.
 Two-electron integral symmetry is turned on.
   158 basis functions,   259 primitive gaussians,   158 cartesian basis functions
    25 alpha electrons       24 beta electrons
       nuclear repulsion energy       259.4255889685 Hartrees.
 NAtoms=   12 NActive=   12 NUniq=   12 SFac= 7.50D-01 NAtFMM=   80 NAOKFM=F Big=F
 ------------------------------------------------------------------------------
 Polarizable Continuum Model (PCM)
 =================================
 Model                : PCM.
 Atomic radii         : SMD-Coulomb.
 Polarization charges : Total charges.
 Charge compensation  : None.
 Solution method      : Matrix inversion.
 Cavity type          : VdW (van der Waals Surface) (Alpha=1.000).
 Cavity algorithm     : GePol (No added spheres)
                        Default sphere list used, NSphG=   12.
                        Lebedev-Laikov grids with approx.  5.0 points / Ang**2.
                        Smoothing algorithm: Karplus/York (Gamma=1.0000).
                        Polarization charges: spherical gaussians, with
                                              point-specific exponents (IZeta= 3).
                        Self-potential: point-specific (ISelfS= 7).
                        Self-field    : sphere-specific E.n sum rule (ISelfD= 2).
 1st derivatives      : Analytical E(r).r(x)/FMM algorithm (CHGder, D1EAlg=3).
                        Cavity 1st derivative terms included.
 Solvent              : Water, Eps=  78.355300 Eps(inf)=   1.777849
 ------------------------------------------------------------------------------
 Spheres list:
 ISph  on   Nord    Re0     Alpha      Xe            Ye            Ze
    1   C      1    1.850   1.000     -1.100929      1.200764      0.000017
    2   C      2    1.850   1.000      0.291260      1.207416     -0.000056
    3   C      3    1.850   1.000      1.046096      0.000021     -0.000049
    4   C      4    1.850   1.000      0.291258     -1.207403     -0.000040
    5   C      5    1.850   1.000     -1.100908     -1.200787      0.000017
    6   C      6    1.850   1.000     -1.818475     -0.000001      0.000022
    7   H      7    1.200   1.000     -1.636167      2.147531      0.000029
    8   H      8    1.200   1.000      0.834535      2.149669      0.000025
    9   H      9    1.200   1.000      0.834588     -2.149625      0.000000
   10   H     10    1.200   1.000     -1.636160     -2.147540     -0.000003
   11   H     11    1.200   1.000     -2.903533     -0.000022      0.000034
   12   O     12    1.520   1.000      2.357115     -0.000009      0.000056
 ------------------------------------------------------------------------------
 ------------------------------------------------------------------------------
 Atomic radii for non-electrostatic terms: SMD-CDS.
 ------------------------------------------------------------------------------
 Nuclear repulsion after PCM non-electrostatic terms =      259.4308395110 Hartrees.
 One-electron integrals computed using PRISM.
 NBasis=   158 RedAO= T  NBF=   158
 NBsUse=   158 1.00D-06 NBFU=   158
 Harris functional with IExCor= 1009 diagonalized for initial guess.
 ExpMin= 4.38D-02 ExpMax= 5.48D+03 ExpMxC= 8.25D+02 IAcc=2 IRadAn=         0 AccDes= 0.00D+00
 HarFok:  IExCor= 1009 AccDes= 0.00D+00 IRadAn=         0 IDoV= 1
 ScaDFX=  1.000000  1.000000  1.000000  1.000000
 FoFCou: FMM=F IPFlag=           0 FMFlag=      100000 FMFlg1=           0
         NFxFlg=           0 DoJE=T BraDBF=F KetDBF=T FulRan=T
         Omega=  0.000000  0.000000  1.000000  0.000000  0.000000 ICntrl=     500 IOpCl=  0
         NMat0=    1 NMatS0=    1 NMatT0=    0 NMatD0=    1 NMtDS0=    0 NMtDT0=    0
         I1Cent=           4 NGrid=           0.
 Petite list used in FoFCou.
 Initial guess orbital symmetries:
 Alpha Orbitals:
       Occupied  (A) (A) (A) (A) (A) (A) (A) (A) (A) (A) (A) (A)
                 (A) (A) (A) (A) (A) (A) (A) (A) (A) (A) (A) (A)
                 (A)
       Virtual   (A) (A) (A) (A) (A) (A) (A) (A) (A) (A) (A) (A)
                 (A) (A) (A) (A) (A) (A) (A) (A) (A) (A) (A) (A)
                 (A) (A) (A) (A) (A) (A) (A) (A) (A) (A) (A) (A)
                 (A) (A) (A) (A) (A) (A) (A) (A) (A) (A) (A) (A)
                 (A) (A) (A) (A) (A) (A) (A) (A) (A) (A) (A) (A)
                 (A) (A) (A) (A) (A) (A) (A) (A) (A) (A) (A) (A)
                 (A) (A) (A) (A) (A) (A) (A) (A) (A) (A) (A) (A)
                 (A) (A) (A) (A) (A) (A) (A) (A) (A) (A) (A) (A)
                 (A) (A) (A) (A) (A) (A) (A) (A) (A) (A) (A) (A)
                 (A) (A) (A) (A) (A) (A) (A) (A) (A) (A) (A) (A)
                 (A) (A) (A) (A) (A) (A) (A) (A) (A) (A) (A) (A)
                 (A)
 Beta  Orbitals:
       Occupied  (A) (A) (A) (A) (A) (A) (A) (A) (A) (A) (A) (A)
                 (A) (A) (A) (A) (A) (A) (A) (A) (A) (A) (A) (A)
       Virtual   (A) (A) (A) (A) (A) (A) (A) (A) (A) (A) (A) (A)
                 (A) (A) (A) (A) (A) (A) (A) (A) (A) (A) (A) (A)
                 (A) (A) (A) (A) (A) (A) (A) (A) (A) (A) (A) (A)
                 (A) (A) (A) (A) (A) (A) (A) (A) (A) (A) (A) (A)
                 (A) (A) (A) (A) (A) (A) (A) (A) (A) (A) (A) (A)
                 (A) (A) (A) (A) (A) (A) (A) (A) (A) (A) (A) (A)
                 (A) (A) (A) (A) (A) (A) (A) (A) (A) (A) (A) (A)
                 (A) (A) (A) (A) (A) (A) (A) (A) (A) (A) (A) (A)
                 (A) (A) (A) (A) (A) (A) (A) (A) (A) (A) (A) (A)
                 (A) (A) (A) (A) (A) (A) (A) (A) (A) (A) (A) (A)
                 (A) (A) (A) (A) (A) (A) (A) (A) (A) (A) (A) (A)
                 (A) (A)
 The electronic state of the initial guess is 2-A.
 Initial guess <Sx>= 0.0000 <Sy>= 0.0000 <Sz>= 0.5000 <S**2>= 0.7500 S= 0.5000
 Requested convergence on RMS density matrix=1.00D-08 within 128 cycles.
 Requested convergence on MAX density matrix=1.00D-06.
 Requested convergence on             energy=1.00D-06.
 No special actions if energy rises.
 Keep R1 and R2 ints in memory in canonical form, NReq=162156289.
 Error on total polarization charges =  0.04472
 SCF Done:  E(UM062X) =  -306.710093388     A.U. after   17 cycles
             Convg  =    0.3824D-08             -V/T =  2.0090
 <Sx>= 0.0000 <Sy>= 0.0000 <Sz>= 0.5000 <S**2>= 0.7851 S= 0.5174
 <L.S>= 0.000000000000E+00
 SMD-CDS (non-electrostatic) energy             (kcal/mol) =       3.29
 (included in total energy above)
 Annihilation of the first spin contaminant:
 S**2 before annihilation     0.7851,   after     0.7508

 **********************************************************************

            Population analysis using the SCF density.

 **********************************************************************

 Orbital symmetries:
 Alpha Orbitals:
       Occupied  (A) (A) (A) (A) (A) (A) (A) (A) (A) (A) (A) (A)
                 (A) (A) (A) (A) (A) (A) (A) (A) (A) (A) (A) (A)
                 (A)
       Virtual   (A) (A) (A) (A) (A) (A) (A) (A) (A) (A) (A) (A)
                 (A) (A) (A) (A) (A) (A) (A) (A) (A) (A) (A) (A)
                 (A) (A) (A) (A) (A) (A) (A) (A) (A) (A) (A) (A)
                 (A) (A) (A) (A) (A) (A) (A) (A) (A) (A) (A) (A)
                 (A) (A) (A) (A) (A) (A) (A) (A) (A) (A) (A) (A)
                 (A) (A) (A) (A) (A) (A) (A) (A) (A) (A) (A) (A)
                 (A) (A) (A) (A) (A) (A) (A) (A) (A) (A) (A) (A)
                 (A) (A) (A) (A) (A) (A) (A) (A) (A) (A) (A) (A)
                 (A) (A) (A) (A) (A) (A) (A) (A) (A) (A) (A) (A)
                 (A) (A) (A) (A) (A) (A) (A) (A) (A) (A) (A) (A)
                 (A) (A) (A) (A) (A) (A) (A) (A) (A) (A) (A) (A)
                 (A)
 Beta  Orbitals:
       Occupied  (A) (A) (A) (A) (A) (A) (A) (A) (A) (A) (A) (A)
                 (A) (A) (A) (A) (A) (A) (A) (A) (A) (A) (A) (A)
       Virtual   (A) (A) (A) (A) (A) (A) (A) (A) (A) (A) (A) (A)
                 (A) (A) (A) (A) (A) (A) (A) (A) (A) (A) (A) (A)
                 (A) (A) (A) (A) (A) (A) (A) (A) (A) (A) (A) (A)
                 (A) (A) (A) (A) (A) (A) (A) (A) (A) (A) (A) (A)
                 (A) (A) (A) (A) (A) (A) (A) (A) (A) (A) (A) (A)
                 (A) (A) (A) (A) (A) (A) (A) (A) (A) (A) (A) (A)
                 (A) (A) (A) (A) (A) (A) (A) (A) (A) (A) (A) (A)
                 (A) (A) (A) (A) (A) (A) (A) (A) (A) (A) (A) (A)
                 (A) (A) (A) (A) (A) (A) (A) (A) (A) (A) (A) (A)
                 (A) (A) (A) (A) (A) (A) (A) (A) (A) (A) (A) (A)
                 (A) (A) (A) (A) (A) (A) (A) (A) (A) (A) (A) (A)
                 (A) (A)
 The electronic state is 2-A.
 Alpha  occ. eigenvalues --  -19.66431 -10.63384 -10.58614 -10.57710 -10.57709
 Alpha  occ. eigenvalues --  -10.57064 -10.57062  -1.15153  -0.97257  -0.86132
 Alpha  occ. eigenvalues --   -0.84556  -0.70894  -0.68712  -0.60319  -0.55231
 Alpha  occ. eigenvalues --   -0.54762  -0.51063  -0.50781  -0.49762  -0.43965
 Alpha  occ. eigenvalues --   -0.43120  -0.42915  -0.36029  -0.33036  -0.29743
 Alpha virt. eigenvalues --    0.00357   0.01724   0.03091   0.03984   0.04343
 Alpha virt. eigenvalues --    0.05704   0.06216   0.07334   0.08851   0.09641
 Alpha virt. eigenvalues --    0.09908   0.10065   0.11266   0.14103   0.14863
 Alpha virt. eigenvalues --    0.15048   0.15207   0.15471   0.16288   0.17027
 Alpha virt. eigenvalues --    0.19877   0.20139   0.21092   0.21807   0.22734
 Alpha virt. eigenvalues --    0.22956   0.25767   0.25927   0.27162   0.27576
 Alpha virt. eigenvalues --    0.28593   0.29763   0.31315   0.32429   0.32961
 Alpha virt. eigenvalues --    0.35137   0.36843   0.38166   0.40825   0.41355
 Alpha virt. eigenvalues --    0.46070   0.61716   0.63494   0.64250   0.67864
 Alpha virt. eigenvalues --    0.69588   0.74199   0.74624   0.75424   0.77836
 Alpha virt. eigenvalues --    0.78326   0.78365   0.81936   0.84786   0.85203
 Alpha virt. eigenvalues --    0.92919   0.95249   0.97663   0.98047   1.00141
 Alpha virt. eigenvalues --    1.04681   1.05399   1.07976   1.09836   1.13416
 Alpha virt. eigenvalues --    1.16393   1.18390   1.25799   1.26971   1.27208
 Alpha virt. eigenvalues --    1.29625   1.35174   1.36019   1.38879   1.43418
 Alpha virt. eigenvalues --    1.43424   1.43865   1.45197   1.46313   1.48157
 Alpha virt. eigenvalues --    1.67298   1.79210   1.82226   1.82517   1.87274
 Alpha virt. eigenvalues --    1.90200   1.94618   1.96583   2.00511   2.00666
 Alpha virt. eigenvalues --    2.00710   2.02513   2.04102   2.04745   2.08070
 Alpha virt. eigenvalues --    2.11857   2.28988   2.30079   2.31461   2.38613
 Alpha virt. eigenvalues --    2.40804   2.41715   2.42336   2.42642   2.48630
 Alpha virt. eigenvalues --    2.49370   2.52712   2.56069   2.59857   2.59974
 Alpha virt. eigenvalues --    2.63829   2.65917   2.67169   2.76613   2.81118
 Alpha virt. eigenvalues --    2.82329   3.03817   3.04092   3.11707   3.17828
 Alpha virt. eigenvalues --    3.25367   3.27123   3.36737   3.41517   3.51486
 Alpha virt. eigenvalues --    3.85632   4.20328   4.28177   4.29212   4.38093
 Alpha virt. eigenvalues --    4.48665   4.57089   4.88535
  Beta  occ. eigenvalues --  -19.65536 -10.63437 -10.58403 -10.57556 -10.57554
  Beta  occ. eigenvalues --  -10.57153 -10.57150  -1.12760  -0.96558  -0.85861
  Beta  occ. eigenvalues --   -0.83321  -0.70540  -0.68191  -0.59688  -0.54762
  Beta  occ. eigenvalues --   -0.53975  -0.50275  -0.49594  -0.46794  -0.43543
  Beta  occ. eigenvalues --   -0.42638  -0.37695  -0.34614  -0.32136
  Beta virt. eigenvalues --   -0.12469   0.01688   0.03088   0.04103   0.04411
  Beta virt. eigenvalues --    0.04448   0.05796   0.06343   0.06994   0.08910
  Beta virt. eigenvalues --    0.09385   0.10012   0.10041   0.11372   0.14304
  Beta virt. eigenvalues --    0.15074   0.15198   0.15549   0.15658   0.15890
  Beta virt. eigenvalues --    0.16765   0.19917   0.20243   0.21049   0.22638
  Beta virt. eigenvalues --    0.22731   0.22747   0.25743   0.26018   0.27333
  Beta virt. eigenvalues --    0.27885   0.29474   0.29982   0.31519   0.32551
  Beta virt. eigenvalues --    0.33146   0.35355   0.37095   0.38566   0.41138
  Beta virt. eigenvalues --    0.41765   0.46664   0.61988   0.64044   0.65017
  Beta virt. eigenvalues --    0.68745   0.69951   0.75307   0.75361   0.75795
  Beta virt. eigenvalues --    0.78535   0.78664   0.78839   0.82384   0.85251
  Beta virt. eigenvalues --    0.85391   0.93354   0.95588   0.98280   0.98433
  Beta virt. eigenvalues --    1.00460   1.04986   1.05585   1.08918   1.10308
  Beta virt. eigenvalues --    1.13753   1.17256   1.18580   1.26361   1.28505
  Beta virt. eigenvalues --    1.30042   1.31194   1.36137   1.36792   1.39427
  Beta virt. eigenvalues --    1.44049   1.44840   1.45046   1.45953   1.47692
  Beta virt. eigenvalues --    1.48657   1.67558   1.79829   1.83258   1.84497
  Beta virt. eigenvalues --    1.88360   1.91225   1.95954   1.97124   2.01390
  Beta virt. eigenvalues --    2.01560   2.01618   2.03566   2.04664   2.05264
  Beta virt. eigenvalues --    2.08666   2.12906   2.30377   2.30993   2.32394
  Beta virt. eigenvalues --    2.39194   2.41755   2.42228   2.42672   2.43652
  Beta virt. eigenvalues --    2.49317   2.50134   2.53664   2.56752   2.60353
  Beta virt. eigenvalues --    2.61037   2.64961   2.66985   2.67732   2.77420
  Beta virt. eigenvalues --    2.81870   2.82802   3.04724   3.05374   3.12373
  Beta virt. eigenvalues --    3.18452   3.25824   3.27477   3.38169   3.42657
  Beta virt. eigenvalues --    3.52143   3.86666   4.21153   4.29158   4.29819
  Beta virt. eigenvalues --    4.40043   4.49351   4.57772   4.89330
          Condensed to atoms (all electrons):
              1          2          3          4          5          6
     1  C    5.049884   0.333384   0.176822  -0.005019   0.000264   0.442125
     2  C    0.333384   5.975833   0.177210  -0.787526  -0.004979  -0.044068
     3  C    0.176822   0.177210   5.146386   0.177243   0.176832  -0.115911
     4  C   -0.005019  -0.787526   0.177243   5.975934   0.333328  -0.044082
     5  C    0.000264  -0.004979   0.176832   0.333328   5.049902   0.442104
     6  C    0.442125  -0.044068  -0.115911  -0.044082   0.442104   5.021112
     7  H    0.305831   0.014495  -0.010798  -0.003216  -0.000160   0.025926
     8  H    0.015881   0.320513  -0.016759   0.010110  -0.002606   0.005055
     9  H   -0.002606   0.010108  -0.016765   0.320515   0.015885   0.005056
    10  H   -0.000159  -0.003217  -0.010800   0.014495   0.305834   0.025926
    11  H    0.017251  -0.000767   0.001899  -0.000766   0.017249   0.295502
    12  O   -0.006921  -0.169798   0.450545  -0.169807  -0.006917  -0.012432
              7          8          9         10         11         12
     1  C    0.305831   0.015881  -0.002606  -0.000159   0.017251  -0.006921
     2  C    0.014495   0.320513   0.010108  -0.003217  -0.000767  -0.169798
     3  C   -0.010798  -0.016759  -0.016765  -0.010800   0.001899   0.450545
     4  C   -0.003216   0.010110   0.320515   0.014495  -0.000766  -0.169807
     5  C   -0.000160  -0.002606   0.015885   0.305834   0.017249  -0.006917
     6  C    0.025926   0.005055   0.005056   0.025926   0.295502  -0.012432
     7  H    0.463405  -0.003952   0.000008  -0.000115  -0.003438  -0.000479
     8  H   -0.003952   0.463345  -0.000084   0.000008  -0.000089  -0.003779
     9  H    0.000008  -0.000084   0.463351  -0.003951  -0.000089  -0.003780
    10  H   -0.000115   0.000008  -0.003951   0.463404  -0.003439  -0.000479
    11  H   -0.003438  -0.000089  -0.000089  -0.003439   0.452178   0.000055
    12  O   -0.000479  -0.003779  -0.003780  -0.000479   0.000055   8.519857
 Mulliken atomic charges:
              1
     1  C   -0.326736
     2  C    0.178812
     3  C   -0.135904
     4  C    0.178792
     5  C   -0.326737
     6  C   -0.046314
     7  H    0.212493
     8  H    0.212358
     9  H    0.212353
    10  H    0.212494
    11  H    0.224455
    12  O   -0.596065
 Sum of Mulliken atomic charges =   0.00000
 Mulliken charges with hydrogens summed into heavy atoms:
              1
     1  C   -0.114243
     2  C    0.391170
     3  C   -0.135904
     4  C    0.391145
     5  C   -0.114243
     6  C    0.178141
    12  O   -0.596065
 Sum of Mulliken charges with hydrogens summed into heavy atoms =   0.00000
          Atomic-Atomic Spin Densities.
              1          2          3          4          5          6
     1  C   -0.179506   0.001205  -0.026535   0.010718  -0.017082   0.033598
     2  C    0.001205   0.297434   0.066408  -0.012382   0.010714  -0.035781
     3  C   -0.026535   0.066408  -0.099136   0.066411  -0.026533   0.010601
     4  C    0.010718  -0.012382   0.066411   0.297368   0.001215  -0.035782
     5  C   -0.017082   0.010714  -0.026533   0.001215  -0.179497   0.033594
     6  C    0.033598  -0.035781   0.010601  -0.035782   0.033594   0.412875
     7  H   -0.000219  -0.000714   0.000781  -0.000031   0.000043   0.000054
     8  H    0.000730   0.001342  -0.003732   0.000166  -0.000786   0.001332
     9  H   -0.000786   0.000165  -0.003732   0.001342   0.000731   0.001332
    10  H    0.000043  -0.000032   0.000781  -0.000713  -0.000218   0.000053
    11  H    0.001201  -0.001088   0.000067  -0.001088   0.001201  -0.002062
    12  O    0.002224  -0.037417  -0.042664  -0.037420   0.002222  -0.002058
              7          8          9         10         11         12
     1  C   -0.000219   0.000730  -0.000786   0.000043   0.001201   0.002224
     2  C   -0.000714   0.001342   0.000165  -0.000032  -0.001088  -0.037417
     3  C    0.000781  -0.003732  -0.003732   0.000781   0.000067  -0.042664
     4  C   -0.000031   0.000166   0.001342  -0.000713  -0.001088  -0.037420
     5  C    0.000043  -0.000786   0.000731  -0.000218   0.001201   0.002222
     6  C    0.000054   0.001332   0.001332   0.000053  -0.002062  -0.002058
     7  H    0.004206  -0.000034   0.000000  -0.000001  -0.000056  -0.000001
     8  H   -0.000034  -0.012118   0.000001   0.000000   0.000004  -0.000062
     9  H    0.000000   0.000001  -0.012116  -0.000034   0.000004  -0.000062
    10  H   -0.000001   0.000000  -0.000034   0.004206  -0.000056  -0.000001
    11  H   -0.000056   0.000004   0.000004  -0.000056  -0.014829   0.000000
    12  O   -0.000001  -0.000062  -0.000062  -0.000001   0.000000   0.558871
 Mulliken atomic spin densities:
              1
     1  C   -0.174408
     2  C    0.289855
     3  C   -0.057284
     4  C    0.289804
     5  C   -0.174395
     6  C    0.417756
     7  H    0.004028
     8  H   -0.013157
     9  H   -0.013155
    10  H    0.004027
    11  H   -0.016704
    12  O    0.443634
 Sum of Mulliken atomic spin densities =   1.00000
 Electronic spatial extent (au):  <R**2>=            644.4925
 Charge=              0.0000 electrons
 Dipole moment (field-independent basis, Debye):
    X=             -6.6793    Y=              0.0001    Z=             -0.0001  Tot=              6.6793
 Quadrupole moment (field-independent basis, Debye-Ang):
   XX=            -46.9086   YY=            -32.8069   ZZ=            -43.3395
   XY=              0.0002   XZ=             -0.0005   YZ=              0.0002
 Traceless Quadrupole moment (field-independent basis, Debye-Ang):
   XX=             -5.8903   YY=              8.2114   ZZ=             -2.3212
   XY=              0.0002   XZ=             -0.0005   YZ=              0.0002
 Octapole moment (field-independent basis, Debye-Ang**2):
  XXX=            -51.4506  YYY=              0.0009  ZZZ=              0.0003  XYY=             -2.2432
  XXY=             -0.0004  XXZ=             -0.0007  XZZ=              3.8559  YZZ=              0.0001
  YYZ=              0.0005  XYZ=              0.0000
 Hexadecapole moment (field-independent basis, Debye-Ang**3):
 XXXX=           -559.6482 YYYY=           -248.9070 ZZZZ=            -49.4059 XXXY=              0.0009
 XXXZ=             -0.0027 YYYX=              0.0004 YYYZ=              0.0010 ZZZX=              0.0005
 ZZZY=              0.0002 XXYY=           -122.1574 XXZZ=            -98.8305 YYZZ=            -64.0232
 XXYZ=              0.0004 YYXZ=              0.0003 ZZXY=              0.0001
 N-N= 2.594308395110D+02 E-N=-1.839575481070D+03  KE= 4.549128691927D+02
                          Isotropic Fermi Contact Couplings
        Atom                 a.u.       MegaHertz       Gauss      10(-4) cm-1
     1  C(13)             -0.03134     -35.22699     -12.56987     -11.75046
     2  C(13)              0.04103      46.12256      16.45767      15.38483
     3  C(13)             -0.02788     -31.33890     -11.18250     -10.45353
     4  C(13)              0.04102      46.11311      16.45430      15.38168
     5  C(13)             -0.03133     -35.22476     -12.56907     -11.74971
     6  C(13)              0.06461      72.63785      25.91899      24.22938
     7  H(1)               0.00122       5.45542       1.94663       1.81973
     8  H(1)              -0.00440     -19.66811      -7.01807      -6.56058
     9  H(1)              -0.00440     -19.66479      -7.01689      -6.55947
    10  H(1)               0.00122       5.45509       1.94651       1.81962
    11  H(1)              -0.00566     -25.29596      -9.02623      -8.43782
    12  O(17)              0.10332     -62.63502     -22.34973     -20.89279
 --------------------------------------------------------
       Center         ----  Spin Dipole Couplings  ----
                      3XX-RR        3YY-RR        3ZZ-RR
 --------------------------------------------------------
     1   Atom        0.047245      0.042602     -0.089847
     2   Atom       -0.121180     -0.112258      0.233439
     3   Atom        0.028621     -0.011422     -0.017199
     4   Atom       -0.121158     -0.112235      0.233393
     5   Atom        0.047244      0.042600     -0.089844
     6   Atom       -0.158700     -0.172289      0.330989
     7   Atom        0.002517      0.002211     -0.004728
     8   Atom       -0.010822      0.016888     -0.006066
     9   Atom       -0.010818      0.016884     -0.006066
    10   Atom        0.002517      0.002212     -0.004728
    11   Atom        0.027733     -0.024507     -0.003226
    12   Atom       -0.861429     -0.819923      1.681352
 --------------------------------------------------------
                        XY            XZ            YZ
 --------------------------------------------------------
     1   Atom        0.003467     -0.000006      0.000000
     2   Atom       -0.000234      0.000017     -0.000022
     3   Atom       -0.000003     -0.000003      0.000003
     4   Atom        0.000234      0.000016      0.000012
     5   Atom       -0.003465     -0.000003      0.000002
     6   Atom        0.000000      0.000005      0.000002
     7   Atom        0.003461      0.000000      0.000000
     8   Atom        0.010924      0.000001      0.000001
     9   Atom       -0.010922      0.000001      0.000000
    10   Atom       -0.003462      0.000000      0.000000
    11   Atom        0.000001      0.000000      0.000000
    12   Atom        0.000001     -0.000260      0.000036
 --------------------------------------------------------


 ---------------------------------------------------------------------------------
              Anisotropic Spin Dipole Couplings in Principal Axis System
 ---------------------------------------------------------------------------------

       Atom             a.u.   MegaHertz   Gauss  10(-4) cm-1        Axes

              Baa    -0.0898   -12.057    -4.302    -4.022  0.0000  0.0000  1.0000
     1 C(13)  Bbb     0.0408     5.468     1.951     1.824 -0.4709  0.8822  0.0000
              Bcc     0.0491     6.588     2.351     2.198  0.8822  0.4709  0.0000
 
              Baa    -0.1212   -16.262    -5.803    -5.424  0.9997  0.0262  0.0000
     2 C(13)  Bbb    -0.1123   -15.063    -5.375    -5.025 -0.0262  0.9997  0.0001
              Bcc     0.2334    31.325    11.178    10.449  0.0000 -0.0001  1.0000
 
              Baa    -0.0172    -2.308    -0.824    -0.770  0.0001 -0.0005  1.0000
     3 C(13)  Bbb    -0.0114    -1.533    -0.547    -0.511  0.0001  1.0000  0.0005
              Bcc     0.0286     3.841     1.370     1.281  1.0000 -0.0001 -0.0001
 
              Baa    -0.1212   -16.259    -5.802    -5.423  0.9997 -0.0262  0.0000
     4 C(13)  Bbb    -0.1122   -15.060    -5.374    -5.023  0.0262  0.9997  0.0000
              Bcc     0.2334    31.319    11.175    10.447  0.0000  0.0000  1.0000
 
              Baa    -0.0898   -12.056    -4.302    -4.021  0.0000  0.0000  1.0000
     5 C(13)  Bbb     0.0408     5.468     1.951     1.824  0.4708  0.8822  0.0000
              Bcc     0.0491     6.588     2.351     2.197  0.8822 -0.4708  0.0000
 
              Baa    -0.1723   -23.119    -8.250    -7.712  0.0000  1.0000  0.0000
     6 C(13)  Bbb    -0.1587   -21.296    -7.599    -7.104  1.0000  0.0000  0.0000
              Bcc     0.3310    44.416    15.849    14.815  0.0000  0.0000  1.0000
 
              Baa    -0.0047    -2.523    -0.900    -0.842  0.0001 -0.0001  1.0000
     7 H(1)   Bbb    -0.0011    -0.587    -0.210    -0.196 -0.6913  0.7226  0.0001
              Bcc     0.0058     3.110     1.110     1.037  0.7226  0.6913  0.0000
 
              Baa    -0.0146    -7.795    -2.782    -2.600  0.9448 -0.3277 -0.0001
     8 H(1)   Bbb    -0.0061    -3.237    -1.155    -1.080  0.0001 -0.0001  1.0000
              Bcc     0.0207    11.032     3.936     3.680  0.3277  0.9448  0.0000
 
              Baa    -0.0146    -7.793    -2.781    -2.600  0.9448  0.3277 -0.0001
     9 H(1)   Bbb    -0.0061    -3.236    -1.155    -1.080  0.0001  0.0000  1.0000
              Bcc     0.0207    11.030     3.936     3.679 -0.3277  0.9448  0.0000
 
              Baa    -0.0047    -2.523    -0.900    -0.841  0.0001  0.0001  1.0000
    10 H(1)   Bbb    -0.0011    -0.587    -0.210    -0.196  0.6914  0.7225 -0.0001
              Bcc     0.0058     3.110     1.110     1.037  0.7225 -0.6914  0.0000
 
              Baa    -0.0245   -13.076    -4.666    -4.362  0.0000  1.0000  0.0000
    11 H(1)   Bbb    -0.0032    -1.721    -0.614    -0.574  0.0000  0.0000  1.0000
              Bcc     0.0277    14.797     5.280     4.936  1.0000  0.0000  0.0000
 
              Baa    -0.8614    62.332    22.242    20.792  1.0000  0.0000  0.0001
    12 O(17)  Bbb    -0.8199    59.329    21.170    19.790  0.0000  1.0000  0.0000
              Bcc     1.6814  -121.661   -43.412   -40.582 -0.0001  0.0000  1.0000
 

 ---------------------------------------------------------------------------------

 D1PCM: PCM CHGder 1st derivatives, ID1Alg=3 FixD1E=F DoIter=F DoCFld=F I1PDM=0.
 Calling FoFJK, ICntrl=      2127 FMM=F ISym2X=0 I1Cent= 0 IOpClX= 1 NMat=1 NMatS=1 NMatT=0.
 ***** Axes restored to original set *****
 -------------------------------------------------------------------
 Center     Atomic                   Forces (Hartrees/Bohr)
 Number     Number              X              Y              Z
 -------------------------------------------------------------------
      1        6           0.012589593    0.011860150   -0.000006975
      2        6          -0.012463859    0.017958473    0.000009541
      3        6           0.036633758   -0.000015862    0.000009397
      4        6          -0.012444663   -0.017949391    0.000004654
      5        6           0.012573724   -0.011841888   -0.000007588
      6        6           0.004151415   -0.000013051    0.000000049
      7        1           0.001237960   -0.001188858    0.000001374
      8        1          -0.000528988   -0.000792634   -0.000004439
      9        1          -0.000531802    0.000791641   -0.000002380
     10        1           0.001238752    0.001185448    0.000002593
     11        1           0.000544302    0.000001452    0.000000934
     12        8          -0.043000193    0.000004521   -0.000007161
 -------------------------------------------------------------------
 Cartesian Forces:  Max     0.043000193 RMS     0.011509269

 GradGradGradGradGradGradGradGradGradGradGradGradGradGradGradGradGradGrad
 Berny optimization.
 Internal  Forces:  Max     0.043000194 RMS     0.007943759
 Search for a local minimum.
 Step number   1 out of a maximum of   64
 All quantities printed in internal units (Hartrees-Bohrs-Radians)
 Mixed Optimization -- RFO/linear search
 Second derivative matrix not updated -- first step.
     Eigenvalues ---    0.01772   0.01859   0.01963   0.02000   0.02088
     Eigenvalues ---    0.02104   0.02130   0.02150   0.02156   0.16000
     Eigenvalues ---    0.16000   0.16000   0.16000   0.16000   0.22000
     Eigenvalues ---    0.22000   0.23448   0.25000   0.35085   0.35085
     Eigenvalues ---    0.35093   0.35093   0.35390   0.39609   0.40301
     Eigenvalues ---    0.43851   0.44585   0.46118   0.46939   0.64224
     Eigenvalues --- 1000.000001000.000001000.000001000.000001000.00000
     Eigenvalues --- 1000.000001000.000001000.000001000.000001000.00000
     Eigenvalues --- 1000.000001000.000001000.000001000.000001000.00000
     Eigenvalues --- 1000.000001000.000001000.000001000.000001000.00000
     Eigenvalues --- 1000.000001000.000001000.000001000.00000
 RFO step:  Lambda=-7.43394690D-03 EMin= 1.77202213D-02
 Linear search not attempted -- first point.
 Iteration  1 RMS(Cart)=  0.02883412 RMS(Int)=  0.00024709
 Iteration  2 RMS(Cart)=  0.00028768 RMS(Int)=  0.00000816
 Iteration  3 RMS(Cart)=  0.00000006 RMS(Int)=  0.00000816
 Variable       Old X    -DE/DX   Delta X   Delta X   Delta X     New X
                                 (Linear)    (Quad)   (Total)
    R1        2.63089  -0.01616   0.00000  -0.03390  -0.03390   2.59698
    R2        2.64340   0.00956   0.00000   0.01999   0.02000   2.66340
    R3        2.05524  -0.00164   0.00000  -0.00459  -0.00459   2.05065
    R4        2.69084   0.01129   0.00000   0.02707   0.02706   2.71790
    R5        2.05536  -0.00095   0.00000  -0.00265  -0.00265   2.05271
    R6        2.69089   0.01127   0.00000   0.02705   0.02703   2.71792
    R7        2.47747  -0.04300   0.00000  -0.06619  -0.06619   2.41128
    R8        2.63084  -0.01615   0.00000  -0.03388  -0.03388   2.59696
    R9        2.05537  -0.00095   0.00000  -0.00266  -0.00266   2.05271
   R10        2.64345   0.00955   0.00000   0.01996   0.01997   2.66342
   R11        2.05523  -0.00164   0.00000  -0.00458  -0.00458   2.05065
   R12        2.05046  -0.00054   0.00000  -0.00151  -0.00151   2.04896
    A1        2.11421  -0.00409   0.00000  -0.01803  -0.01802   2.09619
    A2        2.08056   0.00154   0.00000   0.00599   0.00599   2.08654
    A3        2.08842   0.00255   0.00000   0.01204   0.01203   2.10045
    A4        2.12475  -0.00721   0.00000  -0.02944  -0.02946   2.09529
    A5        2.09859   0.00354   0.00000   0.01434   0.01435   2.11293
    A6        2.05985   0.00367   0.00000   0.01511   0.01511   2.07496
    A7        2.02415   0.01213   0.00000   0.05021   0.05018   2.07433
    A8        2.12955  -0.00607   0.00000  -0.02512  -0.02511   2.10444
    A9        2.12949  -0.00606   0.00000  -0.02509  -0.02507   2.10442
   A10        2.12476  -0.00721   0.00000  -0.02946  -0.02947   2.09529
   A11        2.05980   0.00367   0.00000   0.01513   0.01513   2.07494
   A12        2.09862   0.00354   0.00000   0.01433   0.01433   2.11295
   A13        2.11419  -0.00409   0.00000  -0.01802  -0.01801   2.09618
   A14        2.08060   0.00153   0.00000   0.00597   0.00597   2.08656
   A15        2.08840   0.00255   0.00000   0.01205   0.01204   2.10044
   A16        2.06432   0.01046   0.00000   0.04474   0.04477   2.10909
   A17        2.10945  -0.00523   0.00000  -0.02238  -0.02239   2.08706
   A18        2.10942  -0.00523   0.00000  -0.02236  -0.02237   2.08704
    D1       -0.00007   0.00000   0.00000   0.00004   0.00004  -0.00003
    D2       -3.14150   0.00000   0.00000  -0.00008  -0.00008  -3.14158
    D3        3.14157   0.00000   0.00000   0.00000   0.00000   3.14157
    D4        0.00013   0.00000   0.00000  -0.00011  -0.00011   0.00002
    D5        0.00005   0.00000   0.00000  -0.00005  -0.00005   0.00000
    D6       -3.14154   0.00000   0.00000  -0.00004  -0.00004  -3.14159
    D7       -3.14158   0.00000   0.00000  -0.00001  -0.00001   3.14159
    D8        0.00000   0.00000   0.00000  -0.00001  -0.00001   0.00000
    D9        0.00006   0.00000   0.00000  -0.00001  -0.00001   0.00005
   D10       -3.14144   0.00000   0.00000  -0.00013  -0.00013  -3.14157
   D11        3.14150   0.00000   0.00000   0.00010   0.00010  -3.14158
   D12        0.00000   0.00000   0.00000  -0.00002  -0.00002  -0.00002
   D13       -0.00005   0.00000   0.00000  -0.00001  -0.00001  -0.00005
   D14       -3.14156   0.00000   0.00000  -0.00006  -0.00006   3.14157
   D15        3.14145   0.00000   0.00000   0.00012   0.00012   3.14157
   D16       -0.00006   0.00000   0.00000   0.00006   0.00006   0.00000
   D17        0.00004   0.00000   0.00000  -0.00001  -0.00001   0.00003
   D18        3.14157   0.00000   0.00000   0.00004   0.00004  -3.14158
   D19        3.14155   0.00000   0.00000   0.00005   0.00005  -3.14159
   D20       -0.00011   0.00000   0.00000   0.00009   0.00009  -0.00002
   D21       -0.00004   0.00000   0.00000   0.00004   0.00004   0.00000
   D22        3.14156   0.00000   0.00000   0.00003   0.00003   3.14159
   D23       -3.14157   0.00000   0.00000  -0.00001  -0.00001  -3.14158
   D24        0.00003   0.00000   0.00000  -0.00002  -0.00002   0.00001
         Item               Value     Threshold  Converged?
 Maximum Force            0.043000     0.000450     NO 
 RMS     Force            0.007944     0.000300     NO 
 Maximum Displacement     0.121303     0.001800     NO 
 RMS     Displacement     0.028918     0.001200     NO 
 Predicted change in Energy=-3.789144D-03
 GradGradGradGradGradGradGradGradGradGradGradGradGradGradGradGradGradGrad

                          Input orientation:                          
 ---------------------------------------------------------------------
 Center     Atomic      Atomic             Coordinates (Angstroms)
 Number     Number       Type             X           Y           Z
 ---------------------------------------------------------------------
      1          6           0       -1.088868    1.225726    0.000013
      2          6           0        0.285338    1.238294   -0.000010
      3          6           0        1.016931    0.000013    0.000010
      4          6           0        0.285347   -1.238285   -0.000015
      5          6           0       -1.088850   -1.225740    0.000006
      6          6           0       -1.784581   -0.000004    0.000018
      7          1           0       -1.632663    2.164799    0.000016
      8          1           0        0.837274    2.173869   -0.000002
      9          1           0        0.837318   -2.173840   -0.000025
     10          1           0       -1.632649   -2.164811   -0.000003
     11          1           0       -2.868842   -0.000018    0.000029
     12          8           0        2.292924    0.000007    0.000015
 ---------------------------------------------------------------------
                    Distance matrix (angstroms):
                    1          2          3          4          5
     1  C    0.000000
     2  C    1.374264   0.000000
     3  C    2.436546   1.438251   0.000000
     4  C    2.821314   2.476579   1.438262   0.000000
     5  C    2.451466   2.821322   2.436551   1.374254   0.000000
     6  C    1.409408   2.412043   2.801512   2.412041   1.409422
     7  H    1.085160   2.130057   3.421497   3.906372   3.433874
     8  H    2.146858   1.086248   2.181267   3.456504   3.907339
     9  H    3.907331   3.456492   2.181261   1.086248   2.146861
    10  H    3.433866   3.906379   3.421511   2.130061   1.085159
    11  H    2.161193   3.388550   3.885773   3.388542   2.161196
    12  O    3.597069   2.358761   1.275994   2.358757   3.597062
                    6          7          8          9         10
     6  C    0.000000
     7  H    2.170127   0.000000
     8  H    3.405856   2.469954   0.000000
     9  H    3.405865   4.992453   4.347709   0.000000
    10  H    2.170131   4.329610   4.992461   2.469983   0.000000
    11  H    1.084261   2.492904   4.296636   4.296641   2.492891
    12  O    4.077506   4.482919   2.616218   2.616181   4.482919
                   11         12
    11  H    0.000000
    12  O    5.161767   0.000000
 Stoichiometry    C6H5O(2)
 Framework group  C1[X(C6H5O)]
 Deg. of freedom    30
 Full point group                 C1      NOp   1
 Largest Abelian subgroup         C1      NOp   1
 Largest concise Abelian subgroup C1      NOp   1
                         Standard orientation:                         
 ---------------------------------------------------------------------
 Center     Atomic      Atomic             Coordinates (Angstroms)
 Number     Number       Type             X           Y           Z
 ---------------------------------------------------------------------
      1          6           0        1.081430    1.225728   -0.000007
      2          6           0       -0.292777    1.238291    0.000015
      3          6           0       -1.024365    0.000008   -0.000004
      4          6           0       -0.292777   -1.238287    0.000020
      5          6           0        1.081420   -1.225738   -0.000001
      6          6           0        1.777147    0.000000   -0.000013
      7          1           0        1.625222    2.164803   -0.000011
      8          1           0       -0.844715    2.173865    0.000008
      9          1           0       -0.844744   -2.173844    0.000031
     10          1           0        1.625222   -2.164807    0.000009
     11          1           0        2.861408   -0.000010   -0.000024
     12          8           0       -2.300358   -0.000002   -0.000010
 ---------------------------------------------------------------------
 Rotational constants (GHZ):      5.5034128      2.8066733      1.8587391
 Standard basis: 6-31+G(d,p) (6D, 7F)
 There are   158 symmetry adapted basis functions of A   symmetry.
 Integral buffers will be    262144 words long.
 Raffenetti 2 integral format.
 Two-electron integral symmetry is turned on.
   158 basis functions,   259 primitive gaussians,   158 cartesian basis functions
    25 alpha electrons       24 beta electrons
       nuclear repulsion energy       260.4354502721 Hartrees.
 NAtoms=   12 NActive=   12 NUniq=   12 SFac= 7.50D-01 NAtFMM=   80 NAOKFM=F Big=F
 ------------------------------------------------------------------------------
 Polarizable Continuum Model (PCM)
 =================================
 Model                : PCM.
 Atomic radii         : SMD-Coulomb.
 Polarization charges : Total charges.
 Charge compensation  : None.
 Solution method      : Matrix inversion.
 Cavity type          : VdW (van der Waals Surface) (Alpha=1.000).
 Cavity algorithm     : GePol (No added spheres)
                        Default sphere list used, NSphG=   12.
                        Lebedev-Laikov grids with approx.  5.0 points / Ang**2.
                        Smoothing algorithm: Karplus/York (Gamma=1.0000).
                        Polarization charges: spherical gaussians, with
                                              point-specific exponents (IZeta= 3).
                        Self-potential: point-specific (ISelfS= 7).
                        Self-field    : sphere-specific E.n sum rule (ISelfD= 2).
 1st derivatives      : Analytical E(r).r(x)/FMM algorithm (CHGder, D1EAlg=3).
                        Cavity 1st derivative terms included.
 Solvent              : Water, Eps=  78.355300 Eps(inf)=   1.777849
 ------------------------------------------------------------------------------
 Spheres list:
 ISph  on   Nord    Re0     Alpha      Xe            Ye            Ze
    1   C      1    1.850   1.000      1.081430      1.225728     -0.000007
    2   C      2    1.850   1.000     -0.292777      1.238291      0.000015
    3   C      3    1.850   1.000     -1.024365      0.000008     -0.000004
    4   C      4    1.850   1.000     -0.292777     -1.238287      0.000020
    5   C      5    1.850   1.000      1.081420     -1.225738     -0.000001
    6   C      6    1.850   1.000      1.777147      0.000000     -0.000013
    7   H      7    1.200   1.000      1.625222      2.164803     -0.000011
    8   H      8    1.200   1.000     -0.844715      2.173865      0.000008
    9   H      9    1.200   1.000     -0.844744     -2.173844      0.000031
   10   H     10    1.200   1.000      1.625222     -2.164807      0.000009
   11   H     11    1.200   1.000      2.861408     -0.000010     -0.000024
   12   O     12    1.520   1.000     -2.300358     -0.000002     -0.000010
 ------------------------------------------------------------------------------
 ------------------------------------------------------------------------------
 Atomic radii for non-electrostatic terms: SMD-CDS.
 ------------------------------------------------------------------------------
 Nuclear repulsion after PCM non-electrostatic terms =      260.4409442528 Hartrees.
 One-electron integrals computed using PRISM.
 NBasis=   158 RedAO= T  NBF=   158
 NBsUse=   158 1.00D-06 NBFU=   158
 Initial guess read from the read-write file.
 B after Tr=     0.000000    0.000000    0.000000
         Rot=    1.000000    0.000000    0.000000    0.000000 Ang=   0.00 deg.
 Initial guess orbital symmetries:
 Alpha Orbitals:
       Occupied  (A) (A) (A) (A) (A) (A) (A) (A) (A) (A) (A) (A)
                 (A) (A) (A) (A) (A) (A) (A) (A) (A) (A) (A) (A)
                 (A)
       Virtual   (A) (A) (A) (A) (A) (A) (A) (A) (A) (A) (A) (A)
                 (A) (A) (A) (A) (A) (A) (A) (A) (A) (A) (A) (A)
                 (A) (A) (A) (A) (A) (A) (A) (A) (A) (A) (A) (A)
                 (A) (A) (A) (A) (A) (A) (A) (A) (A) (A) (A) (A)
                 (A) (A) (A) (A) (A) (A) (A) (A) (A) (A) (A) (A)
                 (A) (A) (A) (A) (A) (A) (A) (A) (A) (A) (A) (A)
                 (A) (A) (A) (A) (A) (A) (A) (A) (A) (A) (A) (A)
                 (A) (A) (A) (A) (A) (A) (A) (A) (A) (A) (A) (A)
                 (A) (A) (A) (A) (A) (A) (A) (A) (A) (A) (A) (A)
                 (A) (A) (A) (A) (A) (A) (A) (A) (A) (A) (A) (A)
                 (A) (A) (A) (A) (A) (A) (A) (A) (A) (A) (A) (A)
                 (A)
 Beta  Orbitals:
       Occupied  (A) (A) (A) (A) (A) (A) (A) (A) (A) (A) (A) (A)
                 (A) (A) (A) (A) (A) (A) (A) (A) (A) (A) (A) (A)
       Virtual   (A) (A) (A) (A) (A) (A) (A) (A) (A) (A) (A) (A)
                 (A) (A) (A) (A) (A) (A) (A) (A) (A) (A) (A) (A)
                 (A) (A) (A) (A) (A) (A) (A) (A) (A) (A) (A) (A)
                 (A) (A) (A) (A) (A) (A) (A) (A) (A) (A) (A) (A)
                 (A) (A) (A) (A) (A) (A) (A) (A) (A) (A) (A) (A)
                 (A) (A) (A) (A) (A) (A) (A) (A) (A) (A) (A) (A)
                 (A) (A) (A) (A) (A) (A) (A) (A) (A) (A) (A) (A)
                 (A) (A) (A) (A) (A) (A) (A) (A) (A) (A) (A) (A)
                 (A) (A) (A) (A) (A) (A) (A) (A) (A) (A) (A) (A)
                 (A) (A) (A) (A) (A) (A) (A) (A) (A) (A) (A) (A)
                 (A) (A) (A) (A) (A) (A) (A) (A) (A) (A) (A) (A)
                 (A) (A)
 Initial guess <Sx>= 0.0000 <Sy>= 0.0000 <Sz>= 0.5000 <S**2>= 0.8004 S= 0.5249
 Harris functional with IExCor= 1009 diagonalized for initial guess.
 ExpMin= 4.38D-02 ExpMax= 5.48D+03 ExpMxC= 8.25D+02 IAcc=2 IRadAn=         0 AccDes= 0.00D+00
 HarFok:  IExCor= 1009 AccDes= 0.00D+00 IRadAn=         0 IDoV= 1
 ScaDFX=  1.000000  1.000000  1.000000  1.000000
 FoFCou: FMM=F IPFlag=           0 FMFlag=      100000 FMFlg1=           0
         NFxFlg=           0 DoJE=T BraDBF=F KetDBF=T FulRan=T
         Omega=  0.000000  0.000000  1.000000  0.000000  0.000000 ICntrl=     500 IOpCl=  0
         NMat0=    1 NMatS0=    1 NMatT0=    0 NMatD0=    1 NMtDS0=    0 NMtDT0=    0
         I1Cent=           4 NGrid=           0.
 Petite list used in FoFCou.
 Requested convergence on RMS density matrix=1.00D-08 within 128 cycles.
 Requested convergence on MAX density matrix=1.00D-06.
 Requested convergence on             energy=1.00D-06.
 No special actions if energy rises.
 Keep R1 and R2 ints in memory in canonical form, NReq=162199815.
 Error on total polarization charges =  0.04444
 SCF Done:  E(UM062X) =  -306.714190665     A.U. after   18 cycles
             Convg  =    0.3229D-08             -V/T =  2.0087
 <Sx>= 0.0000 <Sy>= 0.0000 <Sz>= 0.5000 <S**2>= 0.7848 S= 0.5173
 <L.S>= 0.000000000000E+00
 SMD-CDS (non-electrostatic) energy             (kcal/mol) =       3.45
 (included in total energy above)
 Annihilation of the first spin contaminant:
 S**2 before annihilation     0.7848,   after     0.7508
 D1PCM: PCM CHGder 1st derivatives, ID1Alg=3 FixD1E=F DoIter=F DoCFld=F I1PDM=0.
 Calling FoFJK, ICntrl=      2127 FMM=F ISym2X=0 I1Cent= 0 IOpClX= 1 NMat=1 NMatS=1 NMatT=0.
 ***** Axes restored to original set *****
 -------------------------------------------------------------------
 Center     Atomic                   Forces (Hartrees/Bohr)
 Number     Number              X              Y              Z
 -------------------------------------------------------------------
      1        6           0.001195006    0.001254184   -0.000001359
      2        6          -0.005141681    0.004278573    0.000003988
      3        6           0.020868291   -0.000005721   -0.000004534
      4        6          -0.005132610   -0.004274456    0.000002944
      5        6           0.001186264   -0.001246834   -0.000001797
      6        6          -0.001186052   -0.000006346    0.000000361
      7        1          -0.001452530   -0.000995118    0.000000018
      8        1           0.001369017   -0.001522205   -0.000000691
      9        1           0.001367286    0.001521410   -0.000000159
     10        1          -0.001451397    0.000994383    0.000000322
     11        1          -0.000482376    0.000000603    0.000000151
     12        8          -0.011139219    0.000001527    0.000000757
 -------------------------------------------------------------------
 Cartesian Forces:  Max     0.020868291 RMS     0.004317596

 GradGradGradGradGradGradGradGradGradGradGradGradGradGradGradGradGradGrad
 Berny optimization.
 Using GEDIIS/GDIIS optimizer.
 Internal  Forces:  Max     0.011139219 RMS     0.002021521
 Search for a local minimum.
 Step number   2 out of a maximum of   64
 All quantities printed in internal units (Hartrees-Bohrs-Radians)
 Mixed Optimization -- RFO/linear search
 Update second derivatives using D2CorX and points    1    2
 DE= -4.10D-03 DEPred=-3.79D-03 R= 1.08D+00
 SS=  1.41D+00  RLast= 1.39D-01 DXNew= 5.0454D-01 4.1782D-01
 Trust test= 1.08D+00 RLast= 1.39D-01 DXMaxT set to 4.18D-01
 Use linear search instead of GDIIS.
     Eigenvalues ---    0.01772   0.01854   0.01964   0.02002   0.02085
     Eigenvalues ---    0.02104   0.02129   0.02149   0.02156   0.15688
     Eigenvalues ---    0.16000   0.16000   0.16000   0.16007   0.21988
     Eigenvalues ---    0.22000   0.25000   0.26463   0.34905   0.35085
     Eigenvalues ---    0.35093   0.35105   0.35400   0.36616   0.40505
     Eigenvalues ---    0.43716   0.43905   0.46105   0.49531   0.56412
     Eigenvalues --- 1000.000001000.000001000.000001000.000001000.00000
     Eigenvalues --- 1000.000001000.000001000.000001000.000001000.00000
     Eigenvalues --- 1000.000001000.000001000.000001000.000001000.00000
     Eigenvalues --- 1000.000001000.000001000.000001000.000001000.00000
     Eigenvalues --- 1000.000001000.000001000.000001000.00000
 RFO step:  Lambda=-6.00536765D-04 EMin= 1.77202229D-02
 Quartic linear search produced a step of  0.09225.
 Iteration  1 RMS(Cart)=  0.00690814 RMS(Int)=  0.00004479
 Iteration  2 RMS(Cart)=  0.00004952 RMS(Int)=  0.00000215
 Iteration  3 RMS(Cart)=  0.00000000 RMS(Int)=  0.00000215
 Variable       Old X    -DE/DX   Delta X   Delta X   Delta X     New X
                                 (Linear)    (Quad)   (Total)
    R1        2.59698   0.00109  -0.00313   0.00304  -0.00009   2.59689
    R2        2.66340   0.00052   0.00185   0.00058   0.00242   2.66581
    R3        2.05065  -0.00013  -0.00042  -0.00034  -0.00076   2.04989
    R4        2.71790   0.00496   0.00250   0.01290   0.01540   2.73330
    R5        2.05271  -0.00062  -0.00024  -0.00187  -0.00211   2.05060
    R6        2.71792   0.00496   0.00249   0.01289   0.01539   2.73331
    R7        2.41128  -0.01114  -0.00611  -0.01803  -0.02413   2.38714
    R8        2.59696   0.00110  -0.00313   0.00305  -0.00008   2.59689
    R9        2.05271  -0.00062  -0.00024  -0.00187  -0.00211   2.05060
   R10        2.66342   0.00051   0.00184   0.00056   0.00240   2.66582
   R11        2.05065  -0.00013  -0.00042  -0.00034  -0.00076   2.04989
   R12        2.04896   0.00048  -0.00014   0.00151   0.00137   2.05033
    A1        2.09619   0.00040  -0.00166   0.00134  -0.00033   2.09586
    A2        2.08654   0.00160   0.00055   0.01165   0.01220   2.09875
    A3        2.10045  -0.00200   0.00111  -0.01298  -0.01187   2.08858
    A4        2.09529   0.00079  -0.00272   0.00499   0.00228   2.09757
    A5        2.11293   0.00161   0.00132   0.01114   0.01246   2.12540
    A6        2.07496  -0.00240   0.00139  -0.01614  -0.01474   2.06022
    A7        2.07433  -0.00280   0.00463  -0.01204  -0.00740   2.06693
    A8        2.10444   0.00140  -0.00232   0.00601   0.00369   2.10813
    A9        2.10442   0.00140  -0.00231   0.00603   0.00371   2.10813
   A10        2.09529   0.00079  -0.00272   0.00499   0.00228   2.09757
   A11        2.07494  -0.00240   0.00140  -0.01612  -0.01473   2.06021
   A12        2.11295   0.00161   0.00132   0.01113   0.01245   2.12541
   A13        2.09618   0.00040  -0.00166   0.00134  -0.00032   2.09586
   A14        2.08656   0.00160   0.00055   0.01164   0.01219   2.09875
   A15        2.10044  -0.00200   0.00111  -0.01298  -0.01187   2.08857
   A16        2.10909   0.00042   0.00413  -0.00062   0.00350   2.11259
   A17        2.08706  -0.00021  -0.00207   0.00031  -0.00175   2.08530
   A18        2.08704  -0.00021  -0.00206   0.00032  -0.00175   2.08530
    D1       -0.00003   0.00000   0.00000   0.00003   0.00004   0.00001
    D2       -3.14158   0.00000  -0.00001   0.00000  -0.00001  -3.14159
    D3        3.14157   0.00000   0.00000   0.00003   0.00003  -3.14158
    D4        0.00002   0.00000  -0.00001  -0.00001  -0.00002   0.00000
    D5        0.00000   0.00000   0.00000   0.00000   0.00000   0.00000
    D6       -3.14159   0.00000   0.00000  -0.00001  -0.00001   3.14159
    D7        3.14159   0.00000   0.00000   0.00001   0.00001  -3.14159
    D8        0.00000   0.00000   0.00000   0.00000   0.00000   0.00000
    D9        0.00005   0.00000   0.00000  -0.00007  -0.00007  -0.00002
   D10       -3.14157   0.00000  -0.00001   0.00002   0.00001  -3.14156
   D11       -3.14158   0.00000   0.00001  -0.00003  -0.00002   3.14158
   D12       -0.00002   0.00000   0.00000   0.00006   0.00005   0.00004
   D13       -0.00005   0.00000   0.00000   0.00007   0.00007   0.00002
   D14        3.14157   0.00000  -0.00001   0.00004   0.00004  -3.14158
   D15        3.14157   0.00000   0.00001  -0.00002  -0.00001   3.14156
   D16        0.00000   0.00000   0.00001  -0.00005  -0.00004  -0.00004
   D17        0.00003   0.00000   0.00000  -0.00003  -0.00003  -0.00001
   D18       -3.14158   0.00000   0.00000  -0.00002  -0.00002   3.14159
   D19       -3.14159   0.00000   0.00000  -0.00001   0.00000   3.14159
   D20       -0.00002   0.00000   0.00001   0.00001   0.00001   0.00000
   D21        0.00000   0.00000   0.00000   0.00000   0.00000   0.00000
   D22        3.14159   0.00000   0.00000   0.00001   0.00001  -3.14159
   D23       -3.14158   0.00000   0.00000  -0.00002  -0.00002   3.14159
   D24        0.00001   0.00000   0.00000  -0.00001  -0.00001   0.00000
         Item               Value     Threshold  Converged?
 Maximum Force            0.011139     0.000450     NO 
 RMS     Force            0.002022     0.000300     NO 
 Maximum Displacement     0.023849     0.001800     NO 
 RMS     Displacement     0.006898     0.001200     NO 
 Predicted change in Energy=-3.328591D-04
 GradGradGradGradGradGradGradGradGradGradGradGradGradGradGradGradGradGrad

                          Input orientation:                          
 ---------------------------------------------------------------------
 Center     Atomic      Atomic             Coordinates (Angstroms)
 Number     Number       Type             X           Y           Z
 ---------------------------------------------------------------------
      1          6           0       -1.088952    1.228054    0.000013
      2          6           0        0.285188    1.242576    0.000003
      3          6           0        1.025533    0.000010   -0.000018
      4          6           0        0.285202   -1.242568   -0.000008
      5          6           0       -1.088936   -1.228064    0.000002
      6          6           0       -1.783147   -0.000007    0.000011
      7          1           0       -1.645284    2.159285    0.000021
      8          1           0        0.846841    2.171044    0.000007
      9          1           0        0.846875   -2.171023   -0.000012
     10          1           0       -1.645263   -2.159298    0.000003
     11          1           0       -2.868134   -0.000016    0.000022
     12          8           0        2.288755    0.000016    0.000008
 ---------------------------------------------------------------------
                    Distance matrix (angstroms):
                    1          2          3          4          5
     1  C    0.000000
     2  C    1.374217   0.000000
     3  C    2.445227   1.446402   0.000000
     4  C    2.827060   2.485144   1.446406   0.000000
     5  C    2.456117   2.827062   2.445228   1.374214   0.000000
     6  C    1.410688   2.412887   2.808680   2.412888   1.410693
     7  H    1.084757   2.137073   3.434491   3.911442   3.432733
     8  H    2.153259   1.085129   2.178375   3.459506   3.911670
     9  H    3.911668   3.459501   2.178372   1.085129   2.153261
    10  H    3.432730   3.911443   3.434496   2.137075   1.084757
    11  H    2.161862   3.389318   3.893667   3.389316   2.161863
    12  O    3.594020   2.357591   1.263223   2.357592   3.594019
                    6          7          8          9         10
     6  C    0.000000
     7  H    2.163688   0.000000
     8  H    3.410322   2.492153   0.000000
     9  H    3.410327   4.996241   4.342067   0.000000
    10  H    2.163690   4.318583   4.996243   2.492165   0.000000
    11  H    1.084987   2.481520   4.302853   4.302855   2.481515
    12  O    4.071903   4.487662   2.606238   2.606229   4.487665
                   11         12
    11  H    0.000000
    12  O    5.156890   0.000000
 Stoichiometry    C6H5O(2)
 Framework group  C1[X(C6H5O)]
 Deg. of freedom    30
 Full point group                 C1      NOp   1
 Largest Abelian subgroup         C1      NOp   1
 Largest concise Abelian subgroup C1      NOp   1
                         Standard orientation:                         
 ---------------------------------------------------------------------
 Center     Atomic      Atomic             Coordinates (Angstroms)
 Number     Number       Type             X           Y           Z
 ---------------------------------------------------------------------
      1          6           0       -1.081891    1.228058    0.000010
      2          6           0        0.292249    1.242572    0.000001
      3          6           0        1.032586    0.000001   -0.000020
      4          6           0        0.292247   -1.242572   -0.000010
      5          6           0       -1.081890   -1.228060    0.000000
      6          6           0       -1.776094    0.000001    0.000008
      7          1           0       -1.638218    2.159292    0.000018
      8          1           0        0.853907    2.171036    0.000004
      9          1           0        0.853915   -2.171031   -0.000014
     10          1           0       -1.638223   -2.159291    0.000001
     11          1           0       -2.861081   -0.000001    0.000020
     12          8           0        2.295808    0.000000    0.000005
 ---------------------------------------------------------------------
 Rotational constants (GHZ):      5.4843498      2.8073806      1.8568690
 Standard basis: 6-31+G(d,p) (6D, 7F)
 There are   158 symmetry adapted basis functions of A   symmetry.
 Integral buffers will be    262144 words long.
 Raffenetti 2 integral format.
 Two-electron integral symmetry is turned on.
   158 basis functions,   259 primitive gaussians,   158 cartesian basis functions
    25 alpha electrons       24 beta electrons
       nuclear repulsion energy       260.3402162042 Hartrees.
 NAtoms=   12 NActive=   12 NUniq=   12 SFac= 7.50D-01 NAtFMM=   80 NAOKFM=F Big=F
 ------------------------------------------------------------------------------
 Polarizable Continuum Model (PCM)
 =================================
 Model                : PCM.
 Atomic radii         : SMD-Coulomb.
 Polarization charges : Total charges.
 Charge compensation  : None.
 Solution method      : Matrix inversion.
 Cavity type          : VdW (van der Waals Surface) (Alpha=1.000).
 Cavity algorithm     : GePol (No added spheres)
                        Default sphere list used, NSphG=   12.
                        Lebedev-Laikov grids with approx.  5.0 points / Ang**2.
                        Smoothing algorithm: Karplus/York (Gamma=1.0000).
                        Polarization charges: spherical gaussians, with
                                              point-specific exponents (IZeta= 3).
                        Self-potential: point-specific (ISelfS= 7).
                        Self-field    : sphere-specific E.n sum rule (ISelfD= 2).
 1st derivatives      : Analytical E(r).r(x)/FMM algorithm (CHGder, D1EAlg=3).
                        Cavity 1st derivative terms included.
 Solvent              : Water, Eps=  78.355300 Eps(inf)=   1.777849
 ------------------------------------------------------------------------------
 Spheres list:
 ISph  on   Nord    Re0     Alpha      Xe            Ye            Ze
    1   C      1    1.850   1.000     -1.081891      1.228058      0.000010
    2   C      2    1.850   1.000      0.292249      1.242572      0.000001
    3   C      3    1.850   1.000      1.032586      0.000001     -0.000020
    4   C      4    1.850   1.000      0.292247     -1.242572     -0.000010
    5   C      5    1.850   1.000     -1.081890     -1.228060      0.000000
    6   C      6    1.850   1.000     -1.776094      0.000001      0.000008
    7   H      7    1.200   1.000     -1.638218      2.159292      0.000018
    8   H      8    1.200   1.000      0.853907      2.171036      0.000004
    9   H      9    1.200   1.000      0.853915     -2.171031     -0.000014
   10   H     10    1.200   1.000     -1.638223     -2.159291      0.000001
   11   H     11    1.200   1.000     -2.861081     -0.000001      0.000020
   12   O     12    1.520   1.000      2.295808      0.000000      0.000005
 ------------------------------------------------------------------------------
 ------------------------------------------------------------------------------
 Atomic radii for non-electrostatic terms: SMD-CDS.
 ------------------------------------------------------------------------------
 Nuclear repulsion after PCM non-electrostatic terms =      260.3458022313 Hartrees.
 One-electron integrals computed using PRISM.
 NBasis=   158 RedAO= T  NBF=   158
 NBsUse=   158 1.00D-06 NBFU=   158
 Initial guess read from the read-write file.
 B after Tr=     0.000000    0.000000    0.000000
         Rot=    1.000000    0.000000    0.000000    0.000000 Ang=   0.00 deg.
 Initial guess orbital symmetries:
 Alpha Orbitals:
       Occupied  (A) (A) (A) (A) (A) (A) (A) (A) (A) (A) (A) (A)
                 (A) (A) (A) (A) (A) (A) (A) (A) (A) (A) (A) (A)
                 (A)
       Virtual   (A) (A) (A) (A) (A) (A) (A) (A) (A) (A) (A) (A)
                 (A) (A) (A) (A) (A) (A) (A) (A) (A) (A) (A) (A)
                 (A) (A) (A) (A) (A) (A) (A) (A) (A) (A) (A) (A)
                 (A) (A) (A) (A) (A) (A) (A) (A) (A) (A) (A) (A)
                 (A) (A) (A) (A) (A) (A) (A) (A) (A) (A) (A) (A)
                 (A) (A) (A) (A) (A) (A) (A) (A) (A) (A) (A) (A)
                 (A) (A) (A) (A) (A) (A) (A) (A) (A) (A) (A) (A)
                 (A) (A) (A) (A) (A) (A) (A) (A) (A) (A) (A) (A)
                 (A) (A) (A) (A) (A) (A) (A) (A) (A) (A) (A) (A)
                 (A) (A) (A) (A) (A) (A) (A) (A) (A) (A) (A) (A)
                 (A) (A) (A) (A) (A) (A) (A) (A) (A) (A) (A) (A)
                 (A)
 Beta  Orbitals:
       Occupied  (A) (A) (A) (A) (A) (A) (A) (A) (A) (A) (A) (A)
                 (A) (A) (A) (A) (A) (A) (A) (A) (A) (A) (A) (A)
       Virtual   (A) (A) (A) (A) (A) (A) (A) (A) (A) (A) (A) (A)
                 (A) (A) (A) (A) (A) (A) (A) (A) (A) (A) (A) (A)
                 (A) (A) (A) (A) (A) (A) (A) (A) (A) (A) (A) (A)
                 (A) (A) (A) (A) (A) (A) (A) (A) (A) (A) (A) (A)
                 (A) (A) (A) (A) (A) (A) (A) (A) (A) (A) (A) (A)
                 (A) (A) (A) (A) (A) (A) (A) (A) (A) (A) (A) (A)
                 (A) (A) (A) (A) (A) (A) (A) (A) (A) (A) (A) (A)
                 (A) (A) (A) (A) (A) (A) (A) (A) (A) (A) (A) (A)
                 (A) (A) (A) (A) (A) (A) (A) (A) (A) (A) (A) (A)
                 (A) (A) (A) (A) (A) (A) (A) (A) (A) (A) (A) (A)
                 (A) (A) (A) (A) (A) (A) (A) (A) (A) (A) (A) (A)
                 (A) (A)
 Initial guess <Sx>= 0.0000 <Sy>= 0.0000 <Sz>= 0.5000 <S**2>= 0.7996 S= 0.5245
 Harris functional with IExCor= 1009 diagonalized for initial guess.
 ExpMin= 4.38D-02 ExpMax= 5.48D+03 ExpMxC= 8.25D+02 IAcc=2 IRadAn=         0 AccDes= 0.00D+00
 HarFok:  IExCor= 1009 AccDes= 0.00D+00 IRadAn=         0 IDoV= 1
 ScaDFX=  1.000000  1.000000  1.000000  1.000000
 FoFCou: FMM=F IPFlag=           0 FMFlag=      100000 FMFlg1=           0
         NFxFlg=           0 DoJE=T BraDBF=F KetDBF=T FulRan=T
         Omega=  0.000000  0.000000  1.000000  0.000000  0.000000 ICntrl=     500 IOpCl=  0
         NMat0=    1 NMatS0=    1 NMatT0=    0 NMatD0=    1 NMtDS0=    0 NMtDT0=    0
         I1Cent=           4 NGrid=           0.
 Petite list used in FoFCou.
 Requested convergence on RMS density matrix=1.00D-08 within 128 cycles.
 Requested convergence on MAX density matrix=1.00D-06.
 Requested convergence on             energy=1.00D-06.
 No special actions if energy rises.
 Keep R1 and R2 ints in memory in canonical form, NReq=162199815.
 Error on total polarization charges =  0.04443
 SCF Done:  E(UM062X) =  -306.714588525     A.U. after   18 cycles
             Convg  =    0.2953D-08             -V/T =  2.0087
 <Sx>= 0.0000 <Sy>= 0.0000 <Sz>= 0.5000 <S**2>= 0.7846 S= 0.5172
 <L.S>= 0.000000000000E+00
 SMD-CDS (non-electrostatic) energy             (kcal/mol) =       3.51
 (included in total energy above)
 Annihilation of the first spin contaminant:
 S**2 before annihilation     0.7846,   after     0.7508
 D1PCM: PCM CHGder 1st derivatives, ID1Alg=3 FixD1E=F DoIter=F DoCFld=F I1PDM=0.
 Calling FoFJK, ICntrl=      2127 FMM=F ISym2X=0 I1Cent= 0 IOpClX= 1 NMat=1 NMatS=1 NMatT=0.
 ***** Axes restored to original set *****
 -------------------------------------------------------------------
 Center     Atomic                   Forces (Hartrees/Bohr)
 Number     Number              X              Y              Z
 -------------------------------------------------------------------
      1        6           0.001195863   -0.000084424   -0.000000306
      2        6          -0.003262046    0.000589180   -0.000001831
      3        6           0.004543455   -0.000001512    0.000005549
      4        6          -0.003258834   -0.000587540   -0.000001852
      5        6           0.001192910    0.000086810   -0.000000296
      6        6          -0.000750143   -0.000002259    0.000000267
      7        1          -0.000423583   -0.000058111    0.000000314
      8        1           0.000676017   -0.000095078    0.000000030
      9        1           0.000675321    0.000094660    0.000000040
     10        1          -0.000423011    0.000057953    0.000000273
     11        1           0.000058679    0.000000204   -0.000000203
     12        8          -0.000224628    0.000000118   -0.000001984
 -------------------------------------------------------------------
 Cartesian Forces:  Max     0.004543455 RMS     0.001147181

 GradGradGradGradGradGradGradGradGradGradGradGradGradGradGradGradGradGrad
 Berny optimization.
 Using GEDIIS/GDIIS optimizer.
 Internal  Forces:  Max     0.001691196 RMS     0.000515017
 Search for a local minimum.
 Step number   3 out of a maximum of   64
 All quantities printed in internal units (Hartrees-Bohrs-Radians)
 Mixed Optimization -- En-DIIS/RFO-DIIS
 Update second derivatives using D2CorX and points    1    2    3
 DE= -3.98D-04 DEPred=-3.33D-04 R= 1.20D+00
 SS=  1.41D+00  RLast= 5.02D-02 DXNew= 7.0268D-01 1.5046D-01
 Trust test= 1.20D+00 RLast= 5.02D-02 DXMaxT set to 4.18D-01
 Use linear search instead of GDIIS.
     Eigenvalues ---    0.01772   0.01855   0.01968   0.02005   0.02085
     Eigenvalues ---    0.02104   0.02128   0.02150   0.02156   0.13724
     Eigenvalues ---    0.16000   0.16000   0.16000   0.16044   0.21920
     Eigenvalues ---    0.22000   0.25000   0.25286   0.33239   0.35085
[...]
    A3        2.08492  -0.00002   0.00000   0.00005   0.00005   2.08497
    A4        2.10065   0.00011   0.00000   0.00053   0.00053   2.10119
    A5        2.12913   0.00001   0.00000   0.00012   0.00012   2.12925
    A6        2.05340  -0.00012   0.00000  -0.00065  -0.00065   2.05275
    A7        2.06017  -0.00020   0.00000  -0.00099  -0.00099   2.05918
    A8        2.11151   0.00010   0.00000   0.00050   0.00050   2.11200
    A9        2.11151   0.00010   0.00000   0.00050   0.00050   2.11200
   A10        2.10065   0.00011   0.00000   0.00053   0.00053   2.10119
   A11        2.05340  -0.00012   0.00000  -0.00065  -0.00065   2.05275
   A12        2.12913   0.00001   0.00000   0.00012   0.00012   2.12925
   A13        2.09649   0.00008   0.00000   0.00045   0.00045   2.09694
   A14        2.10178  -0.00006   0.00000  -0.00050  -0.00050   2.10128
   A15        2.08492  -0.00002   0.00000   0.00005   0.00005   2.08497
   A16        2.11192  -0.00019   0.00000  -0.00098  -0.00098   2.11094
   A17        2.08563   0.00010   0.00000   0.00049   0.00049   2.08612
   A18        2.08563   0.00010   0.00000   0.00049   0.00049   2.08612
    D1       -0.00002   0.00000   0.00000   0.00002   0.00002   0.00000
    D2        3.14158   0.00000   0.00000   0.00001   0.00001   3.14159
    D3        3.14158   0.00000   0.00000   0.00002   0.00002  -3.14159
    D4       -0.00001   0.00000   0.00000   0.00001   0.00001   0.00000
    D5       -0.00001   0.00000   0.00000   0.00001   0.00001   0.00000
    D6       -3.14159   0.00000   0.00000   0.00000   0.00000  -3.14159
    D7        3.14158   0.00000   0.00000   0.00001   0.00001  -3.14159
    D8        0.00000   0.00000   0.00000   0.00000   0.00000   0.00000
    D9        0.00004   0.00000   0.00000  -0.00004  -0.00004   0.00000
   D10        3.14156   0.00000   0.00000   0.00003   0.00003   3.14159
   D11       -3.14156   0.00000   0.00000  -0.00004  -0.00004   3.14159
   D12       -0.00004   0.00000   0.00000   0.00004   0.00004   0.00000
   D13       -0.00004   0.00000   0.00000   0.00005   0.00005   0.00000
   D14        3.14156   0.00000   0.00000   0.00004   0.00004  -3.14159
   D15       -3.14156   0.00000   0.00000  -0.00003  -0.00003  -3.14159
   D16        0.00004   0.00000   0.00000  -0.00004  -0.00004   0.00000
   D17        0.00002   0.00000   0.00000  -0.00002  -0.00002   0.00000
   D18       -3.14157   0.00000   0.00000  -0.00002  -0.00002   3.14159
   D19       -3.14158   0.00000   0.00000  -0.00001  -0.00001   3.14159
   D20        0.00001   0.00000   0.00000  -0.00001  -0.00001   0.00000
   D21        0.00001   0.00000   0.00000  -0.00001  -0.00001   0.00000
   D22        3.14159   0.00000   0.00000   0.00000   0.00000   3.14159
   D23       -3.14158   0.00000   0.00000  -0.00001  -0.00001   3.14159
   D24        0.00000   0.00000   0.00000   0.00000   0.00000   0.00000
         Item               Value     Threshold  Converged?
 Maximum Force            0.000195     0.000450     YES
 RMS     Force            0.000062     0.000300     YES
 Maximum Displacement     0.001359     0.001800     YES
 RMS     Displacement     0.000394     0.001200     YES
 Predicted change in Energy=-5.178612D-07
 Optimization completed.
    -- Stationary point found.
                           ----------------------------
                           !   Optimized Parameters   !
                           ! (Angstroms and Degrees)  !
 --------------------------                            --------------------------
 ! Name  Definition              Value          Derivative Info.                !
 --------------------------------------------------------------------------------
 ! R1    R(1,2)                  1.3731         -DE/DX =    0.0                 !
 ! R2    R(1,6)                  1.4108         -DE/DX =    0.0                 !
 ! R3    R(1,7)                  1.085          -DE/DX =    0.0                 !
 ! R4    R(2,3)                  1.4497         -DE/DX =    0.0                 !
 ! R5    R(2,8)                  1.0855         -DE/DX =    0.0001              !
 ! R6    R(3,4)                  1.4497         -DE/DX =    0.0                 !
 ! R7    R(3,12)                 1.2616         -DE/DX =    0.0                 !
 ! R8    R(4,5)                  1.3731         -DE/DX =    0.0                 !
 ! R9    R(4,9)                  1.0855         -DE/DX =    0.0001              !
 ! R10   R(5,6)                  1.4109         -DE/DX =    0.0                 !
 ! R11   R(5,10)                 1.085          -DE/DX =    0.0                 !
 ! R12   R(6,11)                 1.0849         -DE/DX =    0.0                 !
 ! A1    A(2,1,6)              120.1198         -DE/DX =    0.0001              !
 ! A2    A(2,1,7)              120.4231         -DE/DX =   -0.0001              !
 ! A3    A(6,1,7)              119.4571         -DE/DX =    0.0                 !
 ! A4    A(1,2,3)              120.3586         -DE/DX =    0.0001              !
 ! A5    A(1,2,8)              121.9902         -DE/DX =    0.0                 !
 ! A6    A(3,2,8)              117.6512         -DE/DX =   -0.0001              !
 ! A7    A(2,3,4)              118.0388         -DE/DX =   -0.0002              !
 ! A8    A(2,3,12)             120.9806         -DE/DX =    0.0001              !
 ! A9    A(4,3,12)             120.9806         -DE/DX =    0.0001              !
 ! A10   A(3,4,5)              120.3586         -DE/DX =    0.0001              !
 ! A11   A(3,4,9)              117.651          -DE/DX =   -0.0001              !
 ! A12   A(5,4,9)              121.9904         -DE/DX =    0.0                 !
 ! A13   A(4,5,6)              120.1198         -DE/DX =    0.0001              !
 ! A14   A(4,5,10)             120.4232         -DE/DX =   -0.0001              !
 ! A15   A(6,5,10)             119.457          -DE/DX =    0.0                 !
 ! A16   A(1,6,5)              121.0043         -DE/DX =   -0.0002              !
 ! A17   A(1,6,11)             119.4979         -DE/DX =    0.0001              !
 ! A18   A(5,6,11)             119.4978         -DE/DX =    0.0001              !
 ! D1    D(6,1,2,3)             -0.001          -DE/DX =    0.0                 !
 ! D2    D(6,1,2,8)            179.9995         -DE/DX =    0.0                 !
 ! D3    D(7,1,2,3)           -180.001          -DE/DX =    0.0                 !
 ! D4    D(7,1,2,8)             -0.0005         -DE/DX =    0.0                 !
 ! D5    D(2,1,6,5)             -0.0006         -DE/DX =    0.0                 !
 ! D6    D(2,1,6,11)          -180.0            -DE/DX =    0.0                 !
 ! D7    D(7,1,6,5)           -180.0006         -DE/DX =    0.0                 !
 ! D8    D(7,1,6,11)             0.0            -DE/DX =    0.0                 !
 ! D9    D(1,2,3,4)              0.0025         -DE/DX =    0.0                 !
 ! D10   D(1,2,3,12)           179.9982         -DE/DX =    0.0                 !
 ! D11   D(8,2,3,4)            180.002          -DE/DX =    0.0                 !
 ! D12   D(8,2,3,12)            -0.0024         -DE/DX =    0.0                 !
 ! D13   D(2,3,4,5)             -0.0025         -DE/DX =    0.0                 !
 ! D14   D(2,3,4,9)           -180.002          -DE/DX =    0.0                 !
 ! D15   D(12,3,4,5)          -179.9982         -DE/DX =    0.0                 !
 ! D16   D(12,3,4,9)             0.0024         -DE/DX =    0.0                 !
 ! D17   D(3,4,5,6)              0.001          -DE/DX =    0.0                 !
 ! D18   D(3,4,5,10)           180.001          -DE/DX =    0.0                 !
 ! D19   D(9,4,5,6)            180.0004         -DE/DX =    0.0                 !
 ! D20   D(9,4,5,10)             0.0005         -DE/DX =    0.0                 !
 ! D21   D(4,5,6,1)              0.0006         -DE/DX =    0.0                 !
 ! D22   D(4,5,6,11)           179.9999         -DE/DX =    0.0                 !
 ! D23   D(10,5,6,1)           180.0005         -DE/DX =    0.0                 !
 ! D24   D(10,5,6,11)           -0.0001         -DE/DX =    0.0                 !
 --------------------------------------------------------------------------------
 GradGradGradGradGradGradGradGradGradGradGradGradGradGradGradGradGradGrad

 1|1|UNPC-DESKTOP-319GPER|Freq|UM062X|6-31+G(d,p)|C6H5O1(2)|SAGAD|31-Ja
 n-2021|0||#N Geom=AllCheck Guess=TCheck SCRF=Check GenChk UM062X/6-31+
 G(d,p) Freq||fenol m062x||0,2|C,-1.0892170313,1.227963869,0.0000126377
 |C,0.2838508034,1.2428783016,0.0000069085|C,1.0300789909,0.0000097246,
 0.0000264406|C,0.2838661742,-1.2428689852,-0.0000039693|C,-1.089201114
 4,-1.2279714452,0.0000021314|C,-1.783898932,-0.0000076131,0.0000162316
 |H,-1.6487609028,2.157531393,0.0000142691|H,0.8489082526,2.1697582181,
 -0.0000036728|H,0.8489371482,-2.1697406868,-0.0000219604|H,-1.64873507
 06,-2.1575449607,-0.0000036129|H,-2.8687853167,-0.0000152989,0.0000200
 412|O,2.2916349987,0.0000174906,-0.0000134449||Version=IA32W-G09RevA.0
 2|State=2-A|HF=-306.7146239|S2=0.784563|S2-1=0.|S2A=0.75076|RMSD=2.616
 e-009|RMSF=1.073e-004|ZeroPoint=0.0923535|Thermal=0.0976484|Dipole=-2.
 5667842,-0.0000146,0.0000225|DipoleDeriv=-0.6551386,-0.4374631,-0.0000
 329,-0.5130114,-0.1476825,-0.0000435,-0.0000453,-0.0000171,-0.182389,0
 .4383732,0.2311982,0.0001008,0.1893172,-0.0826336,0.0000376,0.0000543,
 0.0000391,-0.1398489,1.1060114,0.0003334,-0.0001198,0.0000809,0.372412
 5,-0.0000642,-0.0001577,-0.000037,0.2911377,0.4381842,-0.2313522,-0.00
 00502,-0.1893953,-0.0827235,0.0000591,0.0002074,0.00004,-0.1398275,-0.
 6546688,0.4373181,0.0001264,0.513264,-0.1476652,-0.0000727,-0.0001494,
 -0.0000524,-0.1823835,0.5350471,0.0000879,-0.0000465,0.0001005,0.50930
 73,0.0001013,0.0000773,0.0000261,-0.0420539,0.0895866,0.065997,-0.0000
 207,0.0855441,-0.0069905,0.0000405,-0.0000039,-0.0000054,0.190227,0.07
 96336,-0.0569908,-0.0000457,-0.0545846,0.0218228,-0.0000546,0.0000376,
 0.0000039,0.191164,0.0796721,0.0570541,0.0000046,0.0543668,0.0217804,-
 0.0000081,-0.0000046,0.0000068,0.1911553,0.0894521,-0.065933,-0.000013
 8,-0.0857246,-0.0068775,-0.0000242,0.000026,0.0000087,0.19022,-0.03808
 31,0.0000333,-0.0000114,0.000065,0.117453,0.000002,-0.0000353,-0.00000
 09,0.1759675,-1.5080699,-0.0002829,0.0001093,-0.0000227,-0.5682032,0.0
 000268,-0.0000064,-0.0000118,-0.5433686|Polar=163.0145505,0.0108767,10
 8.5014011,-0.0071059,-0.0019743,53.2328299|PG=C01 [X(C6H5O1)]|NImag=0|
 |0.70066397,-0.07533083,0.69777118,-0.00000256,-0.00000058,0.12558075,
 -0.39549636,0.04382422,0.00000110,0.75076134,-0.02363309,-0.12961115,0
 .00000054,0.07342751,0.66120743,0.00000157,0.00000031,-0.05453183,-0.0
 0000187,-0.00000511,0.11909978,-0.04839510,0.01283936,0.00000076,-0.08
 890049,0.03277455,-0.00000425,0.72152912,0.02751161,0.02414850,-0.0000
 0010,0.03772611,-0.24492461,0.00000305,-0.00000638,0.58452877,0.000003
 75,0.00000120,0.00182213,-0.00000585,0.00000182,-0.07006234,-0.0000047
 3,0.00000335,0.16826836,-0.03541777,-0.02320672,0.00000036,0.03520271,
 0.00317517,0.00000031,-0.08891027,-0.03772073,-0.00000160,0.75076901,-
 0.00968882,-0.00926582,-0.00000044,-0.00318016,-0.02980734,0.00000010,
 -0.03276252,-0.24492158,-0.00000580,-0.07342552,0.66119963,-0.00000325
 ,-0.00000098,0.00024833,0.00000415,0.00000231,0.01051461,-0.00000443,-
 0.00000730,-0.07006340,-0.00000591,0.00001095,0.11910112,0.07210216,0.
 02367491,-0.00000083,-0.03541937,0.00969152,0.00000044,-0.04838671,-0.
 02751066,-0.00000194,-0.39549864,0.02362419,0.00000640,0.70066595,-0.0
 2366659,-0.05346723,0.00000039,0.02320617,-0.00926932,-0.00000064,-0.0
 1285392,0.02414971,0.00000166,-0.04382080,-0.12961010,-0.00000435,0.07
 532971,0.69777269,0.00000073,0.00000056,0.00458197,-0.00000222,-0.0000
 0115,0.00024862,0.00000246,0.00000227,0.00182222,0.00000242,-0.0000027
 2,-0.05453195,-0.00000467,0.00000720,0.12558065,-0.15658547,-0.1048368
 2,0.00000093,-0.03871229,-0.02788935,-0.00000019,0.02047430,-0.0000015
 1,-0.00000057,-0.03871620,0.02789112,0.00000007,-0.15658457,0.10483342
 ,0.00000226,0.72407677,-0.00762498,-0.25867911,0.00000005,-0.08371038,
 0.01920552,0.00000059,0.00000785,-0.01970787,-0.00000306,0.08370682,0.
 01920186,0.00000437,0.00762444,-0.25867992,-0.00000457,0.00000413,0.59
 477396,-0.00000056,0.00000006,-0.05928299,0.00000183,0.00000052,0.0029
 9954,-0.00000210,-0.00000089,-0.00739837,0.00000042,0.00000088,0.00299
 990,0.00000188,-0.00000306,-0.05928316,-0.00000360,0.00000323,0.135798
 24,-0.13642344,0.12973247,0.00000064,-0.01135447,0.02817081,-0.0000006
 7,-0.00293832,-0.00341267,0.00000050,-0.00060501,-0.00014220,-0.000000
 40,-0.00128129,-0.00307954,0.00000050,0.01186429,-0.01600828,-0.000000
 22,0.14019118,0.12854017,-0.27315708,-0.00000030,-0.00240863,0.0058309
 0,0.00000055,-0.00175925,0.00088364,-0.00000077,-0.00082333,0.00052273
 ,0.00000086,-0.00327338,-0.00298390,-0.00000086,0.01508188,-0.01684716
 ,0.00000043,-0.13689140,0.28463787,0.00000094,0.00000023,-0.04092496,-
 0.00000061,0.00000008,0.00614368,0.00000062,-0.00000003,0.01042849,0.0
 0000007,-0.00000007,-0.00142342,-0.00000012,0.00000020,0.00568592,-0.0
 0000020,-0.00000035,0.00349464,-0.00000021,0.,0.02717673,-0.00862932,-
 0.02647046,0.00000045,-0.13592088,-0.13021368,0.00000111,0.00973039,0.
 01506907,0.00000120,-0.00207385,0.00302202,-0.00000186,-0.00014515,0.0
 0010215,0.00000113,-0.00544798,0.00147045,-0.00000059,0.00142545,0.000
 22017,0.00000003,0.13872428,0.00324512,0.00632518,0.00000025,-0.129747
 47,-0.27392243,0.00000245,-0.01602777,-0.01665500,0.00000206,0.0036345
 0,-0.00329467,-0.00000284,0.00055888,0.00015145,0.00000140,0.00118465,
 0.00123444,-0.00000074,-0.00035443,0.00049306,-0.00000012,0.13902987,0
 .28349936,-0.00000091,-0.00000017,0.00702772,0.00000232,0.00000265,-0.
 03699594,0.00000022,-0.00000005,0.00369943,-0.00000082,0.00000019,0.00
 302519,0.00000118,-0.00000064,-0.00110166,-0.00000004,0.00000112,0.008
 81638,-0.00000010,0.00000011,-0.00541925,-0.00000189,-0.00000328,0.023
 95172,-0.00014304,-0.00010167,0.,-0.00207573,-0.00302079,-0.00000003,0
 .00973432,-0.01506879,-0.00000041,-0.13592406,0.13021443,0.00000272,-0
 .00863225,0.02646868,0.00000031,-0.00544693,-0.00147205,0.00000011,0.0
 0013775,0.00013938,0.,0.00057350,-0.00077311,0.00000008,0.13872758,-0.
 00056466,0.00014906,0.00000003,-0.00363074,-0.00329533,-0.00000011,0.0
 1602538,-0.01665641,0.,0.12974596,-0.27391587,-0.00000455,-0.00324034,
 0.00632687,0.00000011,-0.00118536,0.00123892,-0.00000029,0.00014499,0.
 00001948,0.00000001,0.00077311,-0.00095523,-0.00000007,-0.13902983,0.2
 8349093,0.00000057,0.00000002,-0.00110155,-0.00000043,-0.00000022,0.00
 302486,0.00000009,-0.00000051,0.00369977,0.00000291,-0.00000376,-0.036
 99617,-0.00000056,0.00000015,0.00702782,-0.00000009,-0.00000059,0.0088
 1628,-0.00000007,0.00000011,-0.00065956,0.00000013,0.00000025,0.000733
 49,-0.00000270,0.00000456,0.02395174,-0.00128115,0.00307827,0.00000011
 ,-0.00060589,0.00014263,-0.00000002,-0.00293601,0.00341198,0.00000065,
 -0.01135463,-0.02817061,-0.00000123,-0.13642226,-0.12973158,-0.0000002
 9,0.01186489,0.01600855,-0.00000007,0.00047372,0.00075353,-0.00000002,
 0.00013824,-0.00014391,-0.00000015,0.00142594,0.00035424,0.,0.14018894
 ,0.00327342,-0.00298604,0.,0.00082241,0.00052393,-0.00000012,0.0017630
 9,0.00088227,0.00000061,0.00240721,0.00583132,-0.00000084,-0.12854066,
 -0.27316138,-0.00000114,-0.01508050,-0.01684674,-0.00000047,-0.0007536
 2,-0.00091993,0.00000004,-0.00013891,0.00002072,-0.00000018,-0.0002194
 1,0.00049285,0.00000010,0.13689095,0.28464267,-0.00000007,-0.00000041,
 0.00568598,0.00000050,0.00000006,-0.00142358,-0.00000037,-0.00000020,0
 .01042865,-0.00000051,0.00000017,0.00614360,0.00000024,-0.00000196,-0.
 04092490,-0.00000060,0.00000040,0.00349457,-0.00000013,0.00000014,0.00
 011057,-0.00000015,-0.00000014,-0.00065956,0.,0.00000015,-0.00541930,0
 .00000084,0.00000168,0.02717675,-0.00938797,0.00206924,0.00000017,0.00
 112499,-0.00262606,-0.00000023,-0.00009377,-0.00000077,0.00000023,0.00
 112347,0.00262727,-0.00000015,-0.00938707,-0.00207096,0.00000031,-0.35
 139194,-0.00000106,0.00000109,0.00065012,0.00016791,0.00000003,-0.0004
 5508,0.00021877,-0.00000001,-0.00045458,-0.00021923,-0.00000007,0.0006
 5035,-0.00016754,-0.00000007,0.36731855,-0.02725522,0.00484280,0.00000
 012,-0.00243713,-0.00472489,-0.00000011,-0.00000062,-0.00127997,-0.000
 00022,0.00243768,-0.00472509,0.00000027,0.02725560,0.00484253,-0.00000
 019,-0.00000226,-0.05976590,-0.00000001,0.00072653,0.00124386,0.000000
 01,-0.00133769,0.00018609,0.00000011,0.00133717,0.00018693,-0.00000008
 ,-0.00072686,0.00124332,0.00000003,0.00000214,0.05749742,0.00000078,0.
 00000011,0.00744075,-0.00000067,-0.00000037,0.00560849,0.00000004,0.00
 000032,-0.00094280,0.00000055,-0.00000023,0.00560811,-0.00000060,0.000
 00027,0.00744084,0.00000097,-0.00000085,-0.04059909,0.,-0.00000007,-0.
 00315810,0.00000032,0.00000059,-0.00083926,-0.00000005,0.00000010,-0.0
 0083914,0.00000012,0.00000022,-0.00315807,-0.00000135,0.00000005,0.023
 56573,0.01899349,0.01472802,-0.00000111,-0.07860357,0.04000078,0.00000
 384,-0.48090746,0.00000274,0.00000877,-0.07859476,-0.04000919,0.000003
 88,0.01898921,-0.01471673,-0.00000294,-0.01539487,-0.00000546,0.000001
 82,-0.00213999,0.00025297,-0.00000052,0.00208039,-0.00082510,0.0000001
 1,0.00207750,0.00082650,0.00000020,-0.00214214,-0.00025644,0.00000032,
 0.00030293,0.00000066,-0.00000011,0.61533929,0.00519388,-0.00607030,0.
 00000003,0.04610809,0.00878730,-0.00000097,0.00000024,-0.09044745,-0.0
 0000087,-0.04611023,0.00878493,0.00000210,-0.00519419,-0.00607139,-0.0
 0000093,0.00000060,-0.00512801,0.00000033,0.00186734,0.00027654,0.,-0.
 00152609,0.00291703,0.00000021,0.00152599,0.00291779,-0.00000001,-0.00
 186717,0.00027700,0.00000007,0.00000031,0.00045290,-0.00000015,0.00000
 124,0.08330365,-0.00000099,-0.00000035,0.00345369,0.00000174,-0.000001
 14,0.01537410,0.00001170,0.00000008,-0.05170213,0.00000180,0.00000072,
 0.01537408,-0.00000143,0.00000078,0.00345363,0.00000106,-0.00000035,0.
 00014407,0.00000016,-0.00000019,-0.00145474,0.00000013,0.00000011,-0.0
 0223826,-0.00000002,0.00000007,-0.00223824,0.00000006,0.00000008,-0.00
 145471,0.00000005,0.00000002,-0.00012746,-0.00001426,0.00000017,0.0214
 1597||-0.00013786,0.00010394,-0.00000037,0.00025624,0.00012942,-0.0000
 0311,-0.00026942,0.00000027,0.00000915,0.00025557,-0.00012984,-0.00000
 312,-0.00013714,-0.00010438,-0.00000035,0.00030142,0.00000052,0.000000
 27,-0.00000158,-0.00003580,0.00000048,-0.00009598,-0.00003714,-0.00000
 021,-0.00009580,0.00003722,-0.00000019,-0.00000171,0.00003586,0.000000
 49,-0.00002485,-0.00000006,-0.00000018,-0.00004888,0.,-0.00000285|||@


 A ROPE OVER THE TOP OF A FENCE HAS THE SAME LENGTH ON EACH SIDE.
 WEIGHS 1/3 POUND PER FOOT.  ON ONE END HANGS A MONKEY HOLDING A
 BANANA, AND ON THE OTHER END A WEIGHT EQUAL TO THE WEIGHT
 OF THE MONKEY.  THE BANANA WEIGHS TWO OUNCES PER INCH.
 THE ROPE IS AS LONG AS THE AGE OF THE MONKEY, 
 AND THE WEIGHT OF THE MONKEY (IN OUNCES) IS AS MUCH
 AS THE AGE OF THE MONKEY'S MOTHER.  THE COMBINED AGES OF MONKEY
 AND MOTHER ARE THIRTY YEARS.  HALF THE WEIGHT OF THE MONKEY,
  PLUS THE WEIGHT OF THE BANANA, IS ONE FOURTH AS MUCH AS THE WEIGHT
 OF THE WEIGHT AND THE ROPE.
 THE MONKEY'S MOTHER IS HALF AS OLD AS THE MONKEY WILL BE
 WHEN IT IS 3 TIMES AS OLD AS ITS MOTHER WAS WHEN
 SHE WAS HALF AS OLD AS THE MONKEY WILL BE WHEN IT IS
 AS OLD AS ITS MOTHER WILL BE WHEN SHE IS 4 TIMES AS
 OLD AS THE MONKEY WAS WHEN IT WAS TWICE AS OLD AS 
 ITS MOTHER WAS WHEN SHE WAS ONE THIRD AS OLD AS THE
 MONKEY WAS WHEN IT WAS AS OLD AS ITS MOTHER WAS WHEN 
 SHE WAS 3 TIMES AS OLD AS THE MONKEY WAS WHEN IT WAS AS OLD AS ITS
 MOTHER WAS WHEN SHE WAS 3 TIMES AS OLD AS THE MONKEY 
 WAS WHEN IT WAS ONE FOURTH WAS OLD AS IT IS NOW.

 HOW LONG IS THE BANANA?
 Job cpu time:  0 days  0 hours  5 minutes 57.0 seconds.
 File lengths (MBytes):  RWF=     87 Int=      0 D2E=      0 Chk=      6 Scr=      1
 Normal termination of Gaussian 09 at Sun Jan 31 04:01:39 2021.
