 Entering Link 1 = C:\G09W\l1.exe PID=     10396.
  
 Copyright (c) 1988,1990,1992,1993,1995,1998,2003,2009, Gaussian, Inc.
                  All Rights Reserved.
  
 This is part of the Gaussian(R) 09 program.  It is based on
 the Gaussian(R) 03 system (copyright 2003, Gaussian, Inc.),
 the Gaussian(R) 98 system (copyright 1998, Gaussian, Inc.),
 the Gaussian(R) 94 system (copyright 1995, Gaussian, Inc.),
 the Gaussian 92(TM) system (copyright 1992, Gaussian, Inc.),
 the Gaussian 90(TM) system (copyright 1990, Gaussian, Inc.),
 the Gaussian 88(TM) system (copyright 1988, Gaussian, Inc.),
 the Gaussian 86(TM) system (copyright 1986, Carnegie Mellon
 University), and the Gaussian 82(TM) system (copyright 1983,
 Carnegie Mellon University). Gaussian is a federally registered
 trademark of Gaussian, Inc.
  
 This software contains proprietary and confidential information,
 including trade secrets, belonging to Gaussian, Inc.
  
 This software is provided under written license and may be
 used, copied, transmitted, or stored only in accord with that
 written license.
  
 The following legend is applicable only to US Government
 contracts under FAR:
  
                    RESTRICTED RIGHTS LEGEND
  
 Use, reproduction and disclosure by the US Government is
 subject to restrictions as set forth in subparagraphs (a)
 and (c) of the Commercial Computer Software - Restricted
 Rights clause in FAR 52.227-19.
  
 Gaussian, Inc.
 340 Quinnipiac St., Bldg. 40, Wallingford CT 06492
  
  
 ---------------------------------------------------------------
 Warning -- This program may not be used in any manner that
 competes with the business of Gaussian, Inc. or will provide
 assistance to any competitor of Gaussian, Inc.  The licensee
 of this program is prohibited from giving any competitor of
 Gaussian, Inc. access to this program.  By using this program,
 the user acknowledges that Gaussian, Inc. is engaged in the
 business of creating and licensing software in the field of
 computational chemistry and represents and warrants to the
 licensee that it is not a competitor of Gaussian, Inc. and that
 it will not use this program in any manner prohibited above.
 ---------------------------------------------------------------
  

 Cite this work as:
 Gaussian 09, Revision A.02,
 M. J. Frisch, G. W. Trucks, H. B. Schlegel, G. E. Scuseria, 
 M. A. Robb, J. R. Cheeseman, G. Scalmani, V. Barone, B. Mennucci, 
 G. A. Petersson, H. Nakatsuji, M. Caricato, X. Li, H. P. Hratchian, 
 A. F. Izmaylov, J. Bloino, G. Zheng, J. L. Sonnenberg, M. Hada, 
 M. Ehara, K. Toyota, R. Fukuda, J. Hasegawa, M. Ishida, T. Nakajima, 
 Y. Honda, O. Kitao, H. Nakai, T. Vreven, J. A. Montgomery, Jr., 
 J. E. Peralta, F. Ogliaro, M. Bearpark, J. J. Heyd, E. Brothers, 
 K. N. Kudin, V. N. Staroverov, R. Kobayashi, J. Normand, 
 K. Raghavachari, A. Rendell, J. C. Burant, S. S. Iyengar, J. Tomasi, 
 M. Cossi, N. Rega, J. M. Millam, M. Klene, J. E. Knox, J. B. Cross, 
 V. Bakken, C. Adamo, J. Jaramillo, R. Gomperts, R. E. Stratmann, 
 O. Yazyev, A. J. Austin, R. Cammi, C. Pomelli, J. W. Ochterski, 
 R. L. Martin, K. Morokuma, V. G. Zakrzewski, G. A. Voth, 
 P. Salvador, J. J. Dannenberg, S. Dapprich, A. D. Daniels, 
 O. Farkas, J. B. Foresman, J. V. Ortiz, J. Cioslowski, 
 and D. J. Fox, Gaussian, Inc., Wallingford CT, 2009.
 
 ******************************************
 Gaussian 09:  IA32W-G09RevA.02 11-Jun-2009
                02-Feb-2021 
 ******************************************
 %chk=D:\Documents\rayGit\FQ\quimicaComputacional\proyecto\decompositionHydrogenP
 eroxide\decompositionCatalyzedByIodine\step1\ts\ts.chk
 %mem=1500MB
 %nprocshared=4
 Will use up to    4 processors via shared memory.
 ----------------------------------------------------------------------
 # opt=(calcfc,ts,noeigen) freq=noraman lanl2dz scrf=smd iop(1/8=3) m06
 2x
 ----------------------------------------------------------------------
 1/5=1,8=3,10=4,11=1,14=-1,18=20,26=3,38=1/1,3;
 2/9=110,12=2,17=6,18=5,40=1/2;
 3/5=6,6=3,11=2,16=1,25=1,30=1,70=32201,71=2,72=1,74=-55/1,2,3;
 4//1;
 5/5=2,38=5/2;
 8/6=4,10=90,11=11/1;
 11/6=1,8=1,9=11,15=111,16=1/1,2,10;
 10/6=1,7=6,13=1/2;
 6/7=2,8=2,9=2,10=2,28=1/1;
 7/10=1,18=20,25=1/1,2,3,16;
 1/5=1,8=3,10=4,11=1,14=-1,18=20/3(2);
 2/9=110/2;
 99//99;
 2/9=110/2;
 3/5=6,6=3,11=2,16=1,25=1,30=1,70=32205,71=1,74=-55/1,2,3;
 4/5=5,16=3/1;
 5/5=2,38=5/2;
 7//1,2,3,16;
 1/5=1,8=3,11=1,14=-1,18=20/3(-5);
 2/9=110/2;
 6/7=2,8=2,9=2,10=2,19=2,28=1/1;
 99/9=1/99;
 -----------------------------
 Hydrogen peroxide with iodine
 -----------------------------
 Symbolic Z-matrix:
 Charge =  0 Multiplicity = 2
 O                    -1.41841   0.70831  -0.05451 
 H                    -0.12569   0.70831  -0.99732 
 O                     0.6016    0.70831   0.42783 
 H                     0.9216    1.61341   0.42783 
 I                    -3.18163   0.70831   0.96349 
 

 GradGradGradGradGradGradGradGradGradGradGradGradGradGradGradGradGradGrad
 Berny optimization.
 Initialization pass.
                           ----------------------------
                           !    Initial Parameters    !
                           ! (Angstroms and Degrees)  !
 --------------------------                            --------------------------
 ! Name  Definition              Value          Derivative Info.                !
 --------------------------------------------------------------------------------
 ! R1    R(1,2)                  1.6            calculate D2E/DX2 analytically  !
 ! R2    R(1,3)                  2.0768         calculate D2E/DX2 analytically  !
 ! R3    R(1,5)                  2.036          calculate D2E/DX2 analytically  !
 ! R4    R(2,3)                  1.6            calculate D2E/DX2 analytically  !
 ! R5    R(3,4)                  0.96           calculate D2E/DX2 analytically  !
 ! A1    A(2,1,5)              173.896          calculate D2E/DX2 analytically  !
 ! A2    A(3,1,5)              136.5702         calculate D2E/DX2 analytically  !
 ! A3    A(1,3,4)              108.9182         calculate D2E/DX2 analytically  !
 ! A4    A(2,3,4)               98.715          calculate D2E/DX2 analytically  !
 ! D1    D(5,1,3,4)            -94.6942         calculate D2E/DX2 analytically  !
 --------------------------------------------------------------------------------
 Trust Radius=3.00D-02 FncErr=1.00D-07 GrdErr=1.00D-06
 Number of steps in this run=  20 maximum allowed number of steps= 100.
 Search for a saddle point of order  1.
 GradGradGradGradGradGradGradGradGradGradGradGradGradGradGradGradGradGrad

                          Input orientation:                          
 ---------------------------------------------------------------------
 Center     Atomic      Atomic             Coordinates (Angstroms)
 Number     Number       Type             X           Y           Z
 ---------------------------------------------------------------------
      1          8           0       -1.418407    0.708312   -0.054510
      2          1           0       -0.125690    0.708312   -0.997315
      3          8           0        0.601602    0.708312    0.427833
      4          1           0        0.921602    1.613409    0.427833
      5         53           0       -3.181635    0.708312    0.963490
 ---------------------------------------------------------------------
                    Distance matrix (angstroms):
                    1          2          3          4          5
     1  O    0.000000
     2  H    1.600000   0.000000
     3  O    2.076798   1.600000   0.000000
     4  H    2.554896   1.986723   0.960000   0.000000
     5  I    2.036000   3.630917   3.820969   4.235880   0.000000
 Stoichiometry    H2IO2(2)
 Framework group  C1[X(H2IO2)]
 Deg. of freedom     9
 Full point group                 C1      NOp   1
 Largest Abelian subgroup         C1      NOp   1
 Largest concise Abelian subgroup C1      NOp   1
                         Standard orientation:                         
 ---------------------------------------------------------------------
 Center     Atomic      Atomic             Coordinates (Angstroms)
 Number     Number       Type             X           Y           Z
 ---------------------------------------------------------------------
      1          8           0        1.189998    0.559275    0.008157
      2          1           0        2.659059    1.192852    0.029131
      3          8           0        3.052503   -0.351507   -0.112841
      4          1           0        3.385081   -0.499145    0.775526
      5         53           0       -0.754418   -0.044450    0.000619
 ---------------------------------------------------------------------
 Rotational constants (GHZ):     52.2477515      1.9405162      1.8816745
 Standard basis: LANL2DZ (5D, 7F)
 There are    30 symmetry adapted basis functions of A   symmetry.
 Integral buffers will be    262144 words long.
 Raffenetti 2 integral format.
 Two-electron integral symmetry is turned on.
    30 basis functions,    70 primitive gaussians,    30 cartesian basis functions
    13 alpha electrons       12 beta electrons
       nuclear repulsion energy        52.1376629180 Hartrees.
 NAtoms=    5 NActive=    5 NUniq=    5 SFac= 7.50D-01 NAtFMM=   80 NAOKFM=F Big=F
 ------------------------------------------------------------------------------
 Polarizable Continuum Model (PCM)
 =================================
 Model                : PCM.
 Atomic radii         : SMD-Coulomb.
 Polarization charges : Total charges.
 Charge compensation  : None.
 Solution method      : Matrix inversion.
 Cavity type          : VdW (van der Waals Surface) (Alpha=1.000).
 Cavity algorithm     : GePol (No added spheres)
                        Default sphere list used, NSphG=    5.
                        Lebedev-Laikov grids with approx.  5.0 points / Ang**2.
                        Smoothing algorithm: Karplus/York (Gamma=1.0000).
                        Polarization charges: spherical gaussians, with
                                              point-specific exponents (IZeta= 3).
                        Self-potential: point-specific (ISelfS= 7).
                        Self-field    : sphere-specific E.n sum rule (ISelfD= 2).
 1st derivatives      : Analytical E(r).r(x)/FMM algorithm (CHGder, D1EAlg=3).
                        Cavity 1st derivative terms included.
 2nd derivatives      : Analytical E(r).r(xy)/FMM algorithm (CHGder, D2EAlg=3).
                        Cavity 2nd derivative terms included.
 Solvent              : Water, Eps=  78.355300 Eps(inf)=   1.777849
 ------------------------------------------------------------------------------
 Spheres list:
 ISph  on   Nord    Re0     Alpha      Xe            Ye            Ze
    1   O      1    1.520   1.000      1.189998      0.559275      0.008157
    2   H      2    1.200   1.000      2.659059      1.192852      0.029131
    3   O      3    1.520   1.000      3.052503     -0.351507     -0.112841
    4   H      4    1.200   1.000      3.385081     -0.499145      0.775526
    5   I      5    1.980   1.000     -0.754418     -0.044450      0.000619
 ------------------------------------------------------------------------------
 ------------------------------------------------------------------------------
 Atomic radii for non-electrostatic terms: SMD-CDS.
 ------------------------------------------------------------------------------
 Nuclear repulsion after PCM non-electrostatic terms =       52.1398316636 Hartrees.
 One-electron integrals computed using PRISM.
   1 Symmetry operations used in ECPInt.
 ECPInt:  NShTT=     171 NPrTT=    1054 LenC2=     172 LenP2D=     921.
 LDataN:  DoStor=T MaxTD1= 4 Len=   56
 NBasis=    30 RedAO= T  NBF=    30
 NBsUse=    30 1.00D-06 NBFU=    30
 Defaulting to unpruned grid for atomic number  53.
 Harris functional with IExCor= 1009 diagonalized for initial guess.
 ExpMin= 1.05D-01 ExpMax= 7.82D+03 ExpMxC= 2.73D+02 IAcc=1 IRadAn=         1 AccDes= 0.00D+00
 HarFok:  IExCor= 1009 AccDes= 0.00D+00 IRadAn=         1 IDoV= 1
 ScaDFX=  1.000000  1.000000  1.000000  1.000000
 Defaulting to unpruned grid for atomic number  53.
 Defaulting to unpruned grid for atomic number  53.
 Defaulting to unpruned grid for atomic number  53.
 Defaulting to unpruned grid for atomic number  53.
 FoFCou: FMM=F IPFlag=           0 FMFlag=      100000 FMFlg1=           0
         NFxFlg=           0 DoJE=T BraDBF=F KetDBF=T FulRan=T
         Omega=  0.000000  0.000000  1.000000  0.000000  0.000000 ICntrl=     500 IOpCl=  0
         NMat0=    1 NMatS0=    1 NMatT0=    0 NMatD0=    1 NMtDS0=    0 NMtDT0=    0
         I1Cent=           4 NGrid=           0.
 Petite list used in FoFCou.
 Initial guess orbital symmetries:
 Alpha Orbitals:
       Occupied  (A) (A) (A) (A) (A) (A) (A) (A) (A) (A) (A) (A)
                 (A)
       Virtual   (A) (A) (A) (A) (A) (A) (A) (A) (A) (A) (A) (A)
                 (A) (A) (A) (A) (A)
 Beta  Orbitals:
       Occupied  (A) (A) (A) (A) (A) (A) (A) (A) (A) (A) (A) (A)
       Virtual   (A) (A) (A) (A) (A) (A) (A) (A) (A) (A) (A) (A)
                 (A) (A) (A) (A) (A) (A)
 The electronic state of the initial guess is 2-A.
 Initial guess <Sx>= 0.0000 <Sy>= 0.0000 <Sz>= 0.5000 <S**2>= 0.7500 S= 0.5000
 Requested convergence on RMS density matrix=1.00D-08 within 128 cycles.
 Requested convergence on MAX density matrix=1.00D-06.
 Requested convergence on             energy=1.00D-06.
 No special actions if energy rises.
 Keep R1 and R2 ints in memory in canonical form, NReq=3548620.
 Defaulting to unpruned grid for atomic number  53.
 Defaulting to unpruned grid for atomic number  53.
 Defaulting to unpruned grid for atomic number  53.
 Defaulting to unpruned grid for atomic number  53.
 Error on total polarization charges =  0.06211
 SCF Done:  E(UM062X) =  -162.704658353     A.U. after   25 cycles
             Convg  =    0.5896D-08             -V/T =  2.0603
 <Sx>= 0.0000 <Sy>= 0.0000 <Sz>= 0.5000 <S**2>= 0.7691 S= 0.5095
 <L.S>= 0.000000000000E+00
 SMD-CDS (non-electrostatic) energy             (kcal/mol) =       1.36
 (included in total energy above)
 Annihilation of the first spin contaminant:
 S**2 before annihilation     0.7691,   after     0.7502
 Range of M.O.s used for correlation:     1    30
 NBasis=    30 NAE=    13 NBE=    12 NFC=     0 NFV=     0
 NROrb=     30 NOA=    13 NOB=    12 NVA=    17 NVB=    18
   1 Symmetry operations used in ECPInt.
 ECPInt:  NShTT=     171 NPrTT=    1054 LenC2=     172 LenP2D=     921.
 LDataN:  DoStor=T MaxTD1= 5 Len=  102
 Symmetrizing basis deriv contribution to polar:
 IMax=3 JMax=2 DiffMx= 0.00D+00
 G2DrvN: will do     6 centers at a time, making    1 passes doing MaxLOS=1.
 Calling FoFCou, ICntrl=  3107 FMM=F I1Cent=   0 AccDes= 0.00D+00.
 Defaulting to unpruned grid for atomic number  53.
 Defaulting to unpruned grid for atomic number  53.
 Defaulting to unpruned grid for atomic number  53.
 Defaulting to unpruned grid for atomic number  53.
 FoFDir/FoFCou used for L=0 through L=1.
 G2PCM: DoFxE=T DoFxN=T DoGrad=T DoPD/DQ/DG=FFF NFrqRd=   0 IEInf=0 DoCFld=F IF1Alg=4.
 End of G2Drv Frequency-dependent properties file   721 does not exist.
 End of G2Drv Frequency-dependent properties file   722 does not exist.
          IDoAtm=11111
 NEqPCM:  Using equilibrium solvation (IEInf=0, Eps=  78.3553, EpsInf=   1.7778)
          Differentiating once with respect to nuclear coordinates.
 Defaulting to unpruned grid for atomic number  53.
          Keep R1 and R2 ints in memory in canonical form, NReq=1017740.
 Defaulting to unpruned grid for atomic number  53.
 Defaulting to unpruned grid for atomic number  53.
 Defaulting to unpruned grid for atomic number  53.
 Defaulting to unpruned grid for atomic number  53.
          There are    18 degrees of freedom in the 1st order CPHF.  IDoFFX=5.
     12 vectors produced by pass  0 Test12= 2.43D-11 5.56D-07 XBig12= 1.86D-01 2.25D-01.
 AX will form    12 AO Fock derivatives at one time.
     12 vectors produced by pass  1 Test12= 2.43D-11 5.56D-07 XBig12= 2.61D-02 3.74D-02.
     12 vectors produced by pass  2 Test12= 2.43D-11 5.56D-07 XBig12= 1.86D-03 1.32D-02.
     12 vectors produced by pass  3 Test12= 2.43D-11 5.56D-07 XBig12= 7.20D-05 2.20D-03.
     12 vectors produced by pass  4 Test12= 2.43D-11 5.56D-07 XBig12= 1.34D-06 3.05D-04.
      9 vectors produced by pass  5 Test12= 2.43D-11 5.56D-07 XBig12= 6.14D-09 1.57D-05.
      1 vectors produced by pass  6 Test12= 2.43D-11 5.56D-07 XBig12= 2.78D-11 1.19D-06.
 Inverted reduced A of dimension    70 with in-core refinement.
 End of Minotr Frequency-dependent properties file   721 does not exist.
 End of Minotr Frequency-dependent properties file   722 does not exist.

 **********************************************************************

            Population analysis using the SCF density.

 **********************************************************************

 Orbital symmetries:
 Alpha Orbitals:
       Occupied  (A) (A) (A) (A) (A) (A) (A) (A) (A) (A) (A) (A)
                 (A)
       Virtual   (A) (A) (A) (A) (A) (A) (A) (A) (A) (A) (A) (A)
                 (A) (A) (A) (A) (A)
 Beta  Orbitals:
       Occupied  (A) (A) (A) (A) (A) (A) (A) (A) (A) (A) (A) (A)
       Virtual   (A) (A) (A) (A) (A) (A) (A) (A) (A) (A) (A) (A)
                 (A) (A) (A) (A) (A) (A)
 The electronic state is 2-A.
 Alpha  occ. eigenvalues --  -19.70276 -19.64818  -1.11295  -1.06825  -0.74294
 Alpha  occ. eigenvalues --   -0.54117  -0.49360  -0.47749  -0.43712  -0.39230
 Alpha  occ. eigenvalues --   -0.35705  -0.31501  -0.30832
 Alpha virt. eigenvalues --   -0.07479   0.02620   0.19338   0.40830   0.41867
 Alpha virt. eigenvalues --    0.42095   0.64248   0.70565   0.74185   0.74243
 Alpha virt. eigenvalues --    0.83391   0.84635   1.03388   1.09350   1.27982
 Alpha virt. eigenvalues --    1.54363   9.15459
  Beta  occ. eigenvalues --  -19.68977 -19.64251  -1.07799  -1.02769  -0.73024
  Beta  occ. eigenvalues --   -0.52282  -0.47171  -0.41387  -0.38214  -0.36483
  Beta  occ. eigenvalues --   -0.31213  -0.30144
  Beta virt. eigenvalues --   -0.11138  -0.05131   0.03706   0.19683   0.40964
  Beta virt. eigenvalues --    0.42010   0.42150   0.65167   0.73132   0.76061
  Beta virt. eigenvalues --    0.77637   0.84074   0.85262   1.03805   1.10383
  Beta virt. eigenvalues --    1.30586   1.55464   9.15375
          Condensed to atoms (all electrons):
              1          2          3          4          5
     1  O    8.655422   0.023519  -0.073187   0.000485   0.039091
     2  H    0.023519   0.299544   0.167666  -0.007180   0.002448
     3  O   -0.073187   0.167666   8.412872   0.260250   0.007362
     4  H    0.000485  -0.007180   0.260250   0.330686  -0.000383
     5  I    0.039091   0.002448   0.007362  -0.000383   6.461333
 Mulliken atomic charges:
              1
     1  O   -0.645329
     2  H    0.514002
     3  O   -0.774963
     4  H    0.416142
     5  I    0.490148
 Sum of Mulliken atomic charges =   0.00000
 Mulliken charges with hydrogens summed into heavy atoms:
              1
     1  O   -0.131327
     3  O   -0.358821
     5  I    0.490148
 Sum of Mulliken charges with hydrogens summed into heavy atoms =   0.00000
          Atomic-Atomic Spin Densities.
              1          2          3          4          5
     1  O    0.839632  -0.007473  -0.090004   0.002397  -0.051945
     2  H   -0.007473  -0.013131   0.002983  -0.000497   0.000634
     3  O   -0.090004   0.002983   0.309679  -0.003936   0.004998
     4  H    0.002397  -0.000497  -0.003936  -0.003614  -0.000164
     5  I   -0.051945   0.000634   0.004998  -0.000164   0.153449
 Mulliken atomic spin densities:
              1
     1  O    0.692607
     2  H   -0.017484
     3  O    0.223720
     4  H   -0.005815
     5  I    0.106971
 Sum of Mulliken atomic spin densities =   1.00000
 APT atomic charges:
              1
     1  O   -0.540389
     2  H    0.558527
     3  O   -1.213191
     4  H    0.722640
     5  I    0.472413
 Sum of APT charges=   0.00000
 APT Atomic charges with hydrogens summed into heavy atoms:
              1
     1  O    0.018138
     2  H    0.000000
     3  O   -0.490551
     4  H    0.000000
     5  I    0.472413
 Sum of APT charges=   0.00000
 Electronic spatial extent (au):  <R**2>=            474.7625
 Charge=              0.0000 electrons
 Dipole moment (field-independent basis, Debye):
    X=             -2.0948    Y=              1.7089    Z=              2.4851  Tot=              3.6721
 Quadrupole moment (field-independent basis, Debye-Ang):
   XX=            -27.4047   YY=            -29.7342   ZZ=            -32.5914
   XY=              6.9922   XZ=              8.3589   YZ=             -1.0666
 Traceless Quadrupole moment (field-independent basis, Debye-Ang):
   XX=              2.5054   YY=              0.1759   ZZ=             -2.6813
   XY=              6.9922   XZ=              8.3589   YZ=             -1.0666
 Octapole moment (field-independent basis, Debye-Ang**2):
  XXX=            -40.9748  YYY=              2.3182  ZZZ=              2.2416  XYY=             -5.3562
  XXY=             15.3402  XXZ=             28.3641  XZZ=             -9.8406  YZZ=             -1.4191
  YYZ=              1.1748  XYZ=             -3.7101
 Hexadecapole moment (field-independent basis, Debye-Ang**3):
 XXXX=           -495.3010 YYYY=            -59.2141 ZZZZ=            -48.0498 XXXY=             52.7458
 XXXZ=             97.8584 YYYX=             16.0325 YYYZ=             -0.6805 ZZZX=              7.5988
 ZZZY=             -1.0813 XXYY=            -76.6424 XXZZ=            -88.0293 YYZZ=            -18.8999
 XXYZ=            -12.6146 YYXZ=              3.7960 ZZXY=             -0.9230
 N-N= 5.213983166363D+01 E-N=-7.205643265773D+02  KE= 2.286502675182D+02
  Exact polarizability:   0.000   0.000   0.000   0.000   0.000   0.000
 Approx polarizability:  99.815   0.670  25.217  -0.574   1.256   6.890
                          Isotropic Fermi Contact Couplings
        Atom                 a.u.       MegaHertz       Gauss      10(-4) cm-1
     1  O(17)              0.21669    -131.35518     -46.87079     -43.81537
     2  H(1)              -0.00608     -27.16505      -9.69317      -9.06129
     3  O(17)              0.12953     -78.52190     -28.01857     -26.19209
     4  H(1)              -0.00307     -13.73404      -4.90065      -4.58118
     5  I(127)             0.00000       0.00055       0.00020       0.00018
 --------------------------------------------------------
       Center         ----  Spin Dipole Couplings  ----
                      3XX-RR        3YY-RR        3ZZ-RR
 --------------------------------------------------------
     1   Atom       -0.454280      1.836443     -1.382162
     2   Atom        0.025648      0.006104     -0.031752
     3   Atom        0.867312     -0.389929     -0.477382
     4   Atom       -0.001723     -0.033334      0.035057
     5   Atom        0.024041     -0.004947     -0.019094
 --------------------------------------------------------
                        XY            XZ            YZ
 --------------------------------------------------------
     1   Atom       -1.479990     -0.044882      0.089641
     2   Atom        0.018287      0.000426      0.002264
     3   Atom        0.012094     -0.254813      0.004973
     4   Atom       -0.009561      0.025735     -0.013175
     5   Atom       -0.022017     -0.000708      0.000439
 --------------------------------------------------------


 ---------------------------------------------------------------------------------
              Anisotropic Spin Dipole Couplings in Principal Axis System
 ---------------------------------------------------------------------------------

       Atom             a.u.   MegaHertz   Gauss  10(-4) cm-1        Axes

              Baa    -1.3847   100.197    35.753    33.422  0.0148 -0.0210  0.9997
     1 O(17)  Bbb    -1.1803    85.408    30.476    28.489  0.8977  0.4405 -0.0040
              Bcc     2.5650  -185.605   -66.229   -61.911 -0.4403  0.8975  0.0254
 
              Baa    -0.0319   -17.018    -6.072    -5.677  0.0136 -0.0660  0.9977
     2 H(1)   Bbb    -0.0047    -2.534    -0.904    -0.845 -0.5151  0.8548  0.0635
              Bcc     0.0366    19.552     6.976     6.522  0.8570  0.5148  0.0224
 
              Baa    -0.5244    37.947    13.540    12.658  0.1803 -0.0525  0.9822
     3 O(17)  Bbb    -0.3897    28.195    10.061     9.405  0.0012  0.9986  0.0532
              Bcc     0.9141   -66.142   -23.601   -22.062  0.9836  0.0084 -0.1801
 
              Baa    -0.0367   -19.562    -6.980    -6.525  0.1836  0.9764  0.1135
     4 H(1)   Bbb    -0.0147    -7.840    -2.798    -2.615  0.8710 -0.1081 -0.4792
              Bcc     0.0514    27.402     9.778     9.140  0.4556 -0.1868  0.8703
 
              Baa    -0.0191    -2.054    -0.733    -0.685  0.0029 -0.0265  0.9996
     5 I(127) Bbb    -0.0168    -1.807    -0.645    -0.603  0.4746  0.8799  0.0219
              Bcc     0.0359     3.861     1.378     1.288  0.8802 -0.4744 -0.0151
 

 ---------------------------------------------------------------------------------

   1 Symmetry operations used in ECPInt.
 ECPInt:  NShTT=     171 NPrTT=    1054 LenC2=     172 LenP2D=    1039.
 LDataN:  DoStor=T MaxTD1= 6 Len=  172
 D2PCM: PCM CHGder 2nd derivatives, FixD1E=F FixD2E=F DoIter=F DoCFld=F I1PDM=0
 Calling FoFJK, ICntrl=    100147 FMM=F ISym2X=0 I1Cent= 0 IOpClX= 1 NMat=1 NMatS=1 NMatT=0.
 Defaulting to unpruned grid for atomic number  53.
 Defaulting to unpruned grid for atomic number  53.
 Defaulting to unpruned grid for atomic number  53.
 Defaulting to unpruned grid for atomic number  53.
 ***** Axes restored to original set *****
 -------------------------------------------------------------------
 Center     Atomic                   Forces (Hartrees/Bohr)
 Number     Number              X              Y              Z
 -------------------------------------------------------------------
      1        8          -0.012136259    0.000994607   -0.022118282
      2        1           0.020706494   -0.001602989    0.093057410
      3        8          -0.021827415   -0.026559500   -0.073008815
      4        1           0.006894594    0.026732959    0.002487179
      5       53           0.006362587    0.000434923   -0.000417491
 -------------------------------------------------------------------
 Cartesian Forces:  Max     0.093057410 RMS     0.033714344

 GradGradGradGradGradGradGradGradGradGradGradGradGradGradGradGradGradGrad
 Berny optimization.
 Internal  Forces:  Max     0.081723576 RMS     0.030260258
 Search for a saddle point.
 Step number   1 out of a maximum of   20
 All quantities printed in internal units (Hartrees-Bohrs-Radians)
 Swaping is turned off.
 Second derivative matrix not updated -- analytic derivatives used.
 The second derivative matrix:
                          R1        R2        R3        R4        R5
           R1          -0.06767
           R2          -0.01677  -0.00611
           R3          -0.00337   0.02146   0.14638
           R4           0.05025   0.03074  -0.00462  -0.05403
           R5           0.00118   0.00629  -0.00104  -0.00172   0.58636
           A1          -0.01721  -0.00443   0.00273   0.01574   0.00040
           A2          -0.00684  -0.00808   0.00330   0.01169   0.00161
           A3           0.00453  -0.02834   0.00135   0.00686  -0.00460
           A4          -0.01491   0.02747   0.00106   0.01343   0.01212
           D1           0.02088  -0.00750  -0.00025  -0.00535   0.00019
                          A1        A2        A3        A4        D1
           A1          -0.00854
           A2           0.00140  -0.00743
           A3          -0.00079  -0.00743  -0.09602
           A4          -0.00004   0.00073   0.15508  -0.16006
           D1           0.00034   0.00092  -0.12310   0.18862  -0.13327
     Eigenvalues ---   -0.45154  -0.12984  -0.02099  -0.00776   0.00181
     Eigenvalues ---    0.02032   0.05128   0.14968   0.586671000.00000
 Eigenvectors required to have negative eigenvalues:
                          A4        D1        A3        R2        R1
   1                    0.64573  -0.57787  -0.48853  -0.07685   0.06192
                          R4        R5        A2        R3        A1
   1                   -0.02291  -0.00923  -0.00786   0.00267   0.00210
 RFO step:  Lambda0=4.462426697D-05 Lambda=-1.50277962D-01.
 Linear search not attempted -- option 19 set.
 Maximum step size (   0.030) exceeded in Quadratic search.
    -- Step size scaled by   0.044
 Iteration  1 RMS(Cart)=  0.01077861 RMS(Int)=  0.00004008
 Iteration  2 RMS(Cart)=  0.00003321 RMS(Int)=  0.00000533
 Iteration  3 RMS(Cart)=  0.00000000 RMS(Int)=  0.00000533
 Variable       Old X    -DE/DX   Delta X   Delta X   Delta X     New X
                                 (Linear)    (Quad)   (Total)
    R1        3.02356  -0.02467   0.00000  -0.00812  -0.00812   3.01544
    R2        3.92458   0.02170   0.00000   0.00983   0.00983   3.93441
    R3        3.84748  -0.00574   0.00000  -0.00209  -0.00209   3.84539
    R4        3.02356  -0.08172   0.00000  -0.02574  -0.02574   2.99783
    R5        1.81414   0.02756   0.00000   0.00147   0.00147   1.81561
    A1        3.03506   0.02066   0.00000   0.00266   0.00267   3.03773
    A2        2.38360   0.01013   0.00000   0.00767   0.00768   2.39128
    A3        1.90098  -0.00673   0.00000   0.00099   0.00099   1.90197
    A4        1.72290   0.00545   0.00000   0.00122   0.00122   1.72412
    D1       -1.65273   0.00119   0.00000  -0.00001  -0.00001  -1.65274
         Item               Value     Threshold  Converged?
 Maximum Force            0.081724     0.000450     NO 
 RMS     Force            0.030260     0.000300     NO 
 Maximum Displacement     0.023502     0.001800     NO 
 RMS     Displacement     0.010801     0.001200     NO 
 Predicted change in Energy=-2.722474D-03
 GradGradGradGradGradGradGradGradGradGradGradGradGradGradGradGradGradGrad

                          Input orientation:                          
 ---------------------------------------------------------------------
 Center     Atomic      Atomic             Coordinates (Angstroms)
 Number     Number       Type             X           Y           Z
 ---------------------------------------------------------------------
      1          8           0       -1.421443    0.708378   -0.052255
      2          1           0       -0.126655    0.710884   -0.984879
      3          8           0        0.605749    0.707668    0.422309
      4          1           0        0.926825    1.613211    0.422686
      5         53           0       -3.187005    0.706516    0.959470
 ---------------------------------------------------------------------
                    Distance matrix (angstroms):
                    1          2          3          4          5
     1  O    0.000000
     2  H    1.595703   0.000000
     3  O    2.081999   1.586381   0.000000
     4  H    2.560987   1.976171   0.960780   0.000000
     5  I    2.034895   3.625776   3.830603   4.246625   0.000000
 Stoichiometry    H2IO2(2)
 Framework group  C1[X(H2IO2)]
 Deg. of freedom     9
 Full point group                 C1      NOp   1
 Largest Abelian subgroup         C1      NOp   1
 Largest concise Abelian subgroup C1      NOp   1
                         Standard orientation:                         
 ---------------------------------------------------------------------
 Center     Atomic      Atomic             Coordinates (Angstroms)
 Number     Number       Type             X           Y           Z
 ---------------------------------------------------------------------
      1          8           0        1.188896    0.555086    0.008152
      2          1           0        2.657017    1.179930    0.029600
      3          8           0        3.061183   -0.347466   -0.112930
      4          1           0        3.395215   -0.494414    0.775848
      5         53           0       -0.755714   -0.044273    0.000618
 ---------------------------------------------------------------------
 Rotational constants (GHZ):     53.1057422      1.9323201      1.8750639
 Standard basis: LANL2DZ (5D, 7F)
 There are    30 symmetry adapted basis functions of A   symmetry.
 Integral buffers will be    262144 words long.
 Raffenetti 2 integral format.
 Two-electron integral symmetry is turned on.
    30 basis functions,    70 primitive gaussians,    30 cartesian basis functions
    13 alpha electrons       12 beta electrons
       nuclear repulsion energy        52.1083022523 Hartrees.
 NAtoms=    5 NActive=    5 NUniq=    5 SFac= 7.50D-01 NAtFMM=   80 NAOKFM=F Big=F
 ------------------------------------------------------------------------------
 Polarizable Continuum Model (PCM)
 =================================
 Model                : PCM.
 Atomic radii         : SMD-Coulomb.
 Polarization charges : Total charges.
 Charge compensation  : None.
 Solution method      : Matrix inversion.
 Cavity type          : VdW (van der Waals Surface) (Alpha=1.000).
 Cavity algorithm     : GePol (No added spheres)
                        Default sphere list used, NSphG=    5.
                        Lebedev-Laikov grids with approx.  5.0 points / Ang**2.
                        Smoothing algorithm: Karplus/York (Gamma=1.0000).
                        Polarization charges: spherical gaussians, with
                                              point-specific exponents (IZeta= 3).
                        Self-potential: point-specific (ISelfS= 7).
                        Self-field    : sphere-specific E.n sum rule (ISelfD= 2).
 1st derivatives      : Analytical E(r).r(x)/FMM algorithm (CHGder, D1EAlg=3).
                        Cavity 1st derivative terms included.
 Solvent              : Water, Eps=  78.355300 Eps(inf)=   1.777849
 ------------------------------------------------------------------------------
 Spheres list:
 ISph  on   Nord    Re0     Alpha      Xe            Ye            Ze
    1   O      1    1.520   1.000      1.188896      0.555086      0.008152
    2   H      2    1.200   1.000      2.657017      1.179930      0.029600
    3   O      3    1.520   1.000      3.061183     -0.347466     -0.112930
    4   H      4    1.200   1.000      3.395215     -0.494414      0.775848
    5   I      5    1.980   1.000     -0.755714     -0.044273      0.000618
 ------------------------------------------------------------------------------
 ------------------------------------------------------------------------------
 Atomic radii for non-electrostatic terms: SMD-CDS.
 ------------------------------------------------------------------------------
 Nuclear repulsion after PCM non-electrostatic terms =       52.1104589723 Hartrees.
 One-electron integrals computed using PRISM.
   1 Symmetry operations used in ECPInt.
 ECPInt:  NShTT=     171 NPrTT=    1054 LenC2=     172 LenP2D=     921.
 LDataN:  DoStor=T MaxTD1= 4 Len=   56
 NBasis=    30 RedAO= T  NBF=    30
 NBsUse=    30 1.00D-06 NBFU=    30
 Defaulting to unpruned grid for atomic number  53.
 Initial guess read from the read-write file.
 B after Tr=     0.000000    0.000000    0.000000
         Rot=    1.000000    0.000000    0.000000    0.000000 Ang=   0.00 deg.
 Initial guess orbital symmetries:
 Alpha Orbitals:
       Occupied  (A) (A) (A) (A) (A) (A) (A) (A) (A) (A) (A) (A)
                 (A)
       Virtual   (A) (A) (A) (A) (A) (A) (A) (A) (A) (A) (A) (A)
                 (A) (A) (A) (A) (A)
 Beta  Orbitals:
       Occupied  (A) (A) (A) (A) (A) (A) (A) (A) (A) (A) (A) (A)
       Virtual   (A) (A) (A) (A) (A) (A) (A) (A) (A) (A) (A) (A)
                 (A) (A) (A) (A) (A) (A)
 Initial guess <Sx>= 0.0000 <Sy>= 0.0000 <Sz>= 0.5000 <S**2>= 0.7691 S= 0.5095
 Harris functional with IExCor= 1009 diagonalized for initial guess.
 ExpMin= 1.05D-01 ExpMax= 7.82D+03 ExpMxC= 2.73D+02 IAcc=1 IRadAn=         1 AccDes= 0.00D+00
 HarFok:  IExCor= 1009 AccDes= 0.00D+00 IRadAn=         1 IDoV= 1
 ScaDFX=  1.000000  1.000000  1.000000  1.000000
 Defaulting to unpruned grid for atomic number  53.
 Defaulting to unpruned grid for atomic number  53.
 Defaulting to unpruned grid for atomic number  53.
 Defaulting to unpruned grid for atomic number  53.
 FoFCou: FMM=F IPFlag=           0 FMFlag=      100000 FMFlg1=           0
         NFxFlg=           0 DoJE=T BraDBF=F KetDBF=T FulRan=T
         Omega=  0.000000  0.000000  1.000000  0.000000  0.000000 ICntrl=     500 IOpCl=  0
         NMat0=    1 NMatS0=    1 NMatT0=    0 NMatD0=    1 NMtDS0=    0 NMtDT0=    0
         I1Cent=           4 NGrid=           0.
 Petite list used in FoFCou.
 Requested convergence on RMS density matrix=1.00D-08 within 128 cycles.
 Requested convergence on MAX density matrix=1.00D-06.
 Requested convergence on             energy=1.00D-06.
 No special actions if energy rises.
 Keep R1 and R2 ints in memory in canonical form, NReq=3545981.
 Defaulting to unpruned grid for atomic number  53.
 Defaulting to unpruned grid for atomic number  53.
 Defaulting to unpruned grid for atomic number  53.
 Defaulting to unpruned grid for atomic number  53.
 Error on total polarization charges =  0.06205
 SCF Done:  E(UM062X) =  -162.707381062     A.U. after   18 cycles
             Convg  =    0.5608D-08             -V/T =  2.0602
 <Sx>= 0.0000 <Sy>= 0.0000 <Sz>= 0.5000 <S**2>= 0.7686 S= 0.5093
 <L.S>= 0.000000000000E+00
 SMD-CDS (non-electrostatic) energy             (kcal/mol) =       1.35
 (included in total energy above)
 Annihilation of the first spin contaminant:
 S**2 before annihilation     0.7686,   after     0.7502
   1 Symmetry operations used in ECPInt.
 ECPInt:  NShTT=     171 NPrTT=    1054 LenC2=     172 LenP2D=     921.
 LDataN:  DoStor=T MaxTD1= 5 Len=  102
 D1PCM: PCM CHGder 1st derivatives, ID1Alg=3 FixD1E=F DoIter=F DoCFld=F I1PDM=0.
 Calling FoFJK, ICntrl=      2127 FMM=F ISym2X=0 I1Cent= 0 IOpClX= 1 NMat=1 NMatS=1 NMatT=0.
 Defaulting to unpruned grid for atomic number  53.
 Defaulting to unpruned grid for atomic number  53.
 Defaulting to unpruned grid for atomic number  53.
 Defaulting to unpruned grid for atomic number  53.
 ***** Axes restored to original set *****
 -------------------------------------------------------------------
 Center     Atomic                   Forces (Hartrees/Bohr)
 Number     Number              X              Y              Z
 -------------------------------------------------------------------
      1        8          -0.013827681    0.000954895   -0.021512764
      2        1           0.022722314   -0.001850887    0.093441905
      3        8          -0.022174455   -0.025242635   -0.074040529
      4        1           0.006838584    0.025719126    0.002552205
      5       53           0.006441237    0.000419501   -0.000440817
 -------------------------------------------------------------------
 Cartesian Forces:  Max     0.093441905 RMS     0.033934785

 GradGradGradGradGradGradGradGradGradGradGradGradGradGradGradGradGradGrad
 Berny optimization.
 Internal  Forces:  Max     0.083116395 RMS     0.030564793
 Search for a saddle point.
 Step number   2 out of a maximum of   20
 All quantities printed in internal units (Hartrees-Bohrs-Radians)
 Swaping is turned off.
 Update second derivatives using D2CorX and points    1    2
 The second derivative matrix:
                          R1        R2        R3        R4        R5
           R1          -0.06789
           R2          -0.01668  -0.00596
           R3          -0.00344   0.02150   0.14636
           R4           0.05024   0.03007  -0.00467  -0.05151
           R5           0.00129   0.00620  -0.00101  -0.00150   0.58633
           A1          -0.01633  -0.00554   0.00296   0.01868   0.00025
           A2          -0.00627  -0.00864   0.00346   0.01300   0.00146
           A3           0.00465  -0.02848   0.00138   0.00720  -0.00463
           A4          -0.01513   0.02780   0.00100   0.01250   0.01214
           D1           0.02117  -0.00790  -0.00017  -0.00428   0.00015
                          A1        A2        A3        A4        D1
           A1          -0.00867
           A2           0.00063  -0.00822
           A3          -0.00088  -0.00756  -0.09604
           A4          -0.00023   0.00083   0.15508  -0.15995
           D1           0.00040   0.00072  -0.12312   0.18853  -0.13321
     Eigenvalues ---   -0.45149  -0.12941  -0.02020  -0.00833   0.00211
     Eigenvalues ---    0.02032   0.05131   0.14968   0.586641000.00000
 Eigenvectors required to have negative eigenvalues:
                          A4        D1        A3        R2        R1
   1                    0.64553  -0.57777  -0.48877  -0.07882   0.06228
                          R4        R5        A2        A1        R3
   1                   -0.01851  -0.00927  -0.00614   0.00454   0.00292
 RFO step:  Lambda0=3.359904743D-05 Lambda=-1.51265253D-01.
 Linear search not attempted -- option 19 set.
 Maximum step size (   0.030) exceeded in Quadratic search.
    -- Step size scaled by   0.043
 Iteration  1 RMS(Cart)=  0.01054423 RMS(Int)=  0.00003920
 Iteration  2 RMS(Cart)=  0.00003296 RMS(Int)=  0.00000531
 Iteration  3 RMS(Cart)=  0.00000000 RMS(Int)=  0.00000531
 Variable       Old X    -DE/DX   Delta X   Delta X   Delta X     New X
                                 (Linear)    (Quad)   (Total)
    R1        3.01544  -0.02367   0.00000  -0.00762  -0.00762   3.00782
    R2        3.93441   0.02251   0.00000   0.00996   0.00996   3.94437
    R3        3.84539  -0.00583   0.00000  -0.00211  -0.00211   3.84329
    R4        2.99783  -0.08312   0.00000  -0.02592  -0.02591   2.97191
    R5        1.81561   0.02659   0.00000   0.00140   0.00140   1.81701
    A1        3.03773   0.02109   0.00000   0.00340   0.00341   3.04114
    A2        2.39128   0.01057   0.00000   0.00709   0.00710   2.39838
    A3        1.90197  -0.00626   0.00000   0.00089   0.00089   1.90287
    A4        1.72412   0.00539   0.00000   0.00134   0.00134   1.72546
    D1       -1.65274   0.00121   0.00000  -0.00005  -0.00005  -1.65278
         Item               Value     Threshold  Converged?
 Maximum Force            0.083116     0.000450     NO 
 RMS     Force            0.030565     0.000300     NO 
 Maximum Displacement     0.023391     0.001800     NO 
 RMS     Displacement     0.010567     0.001200     NO 
 Predicted change in Energy=-2.777297D-03
 GradGradGradGradGradGradGradGradGradGradGradGradGradGradGradGradGradGrad

                          Input orientation:                          
 ---------------------------------------------------------------------
 Center     Atomic      Atomic             Coordinates (Angstroms)
 Number     Number       Type             X           Y           Z
 ---------------------------------------------------------------------
      1          8           0       -1.424622    0.708569   -0.050370
      2          1           0       -0.127292    0.713323   -0.972501
      3          8           0        0.609701    0.707029    0.416774
      4          1           0        0.931790    1.612998    0.417691
      5         53           0       -3.192106    0.704739    0.955737
 ---------------------------------------------------------------------
                    Distance matrix (angstroms):
                    1          2          3          4          5
     1  O    0.000000
     2  H    1.591670   0.000000
     3  O    2.087270   1.572667   0.000000
     4  H    2.567051   1.965631   0.961521   0.000000
     5  I    2.033781   3.620947   3.839821   4.256871   0.000000
 Stoichiometry    H2IO2(2)
 Framework group  C1[X(H2IO2)]
 Deg. of freedom     9
 Full point group                 C1      NOp   1
 Largest Abelian subgroup         C1      NOp   1
 Largest concise Abelian subgroup C1      NOp   1
                         Standard orientation:                         
 ---------------------------------------------------------------------
 Center     Atomic      Atomic             Coordinates (Angstroms)
 Number     Number       Type             X           Y           Z
 ---------------------------------------------------------------------
      1          8           0        1.187714    0.551300    0.008226
      2          1           0        2.655400    1.166805    0.029773
      3          8           0        3.069493   -0.343632   -0.113022
      4          1           0        3.404873   -0.489974    0.776150
      5         53           0       -0.756942   -0.044117    0.000612
 ---------------------------------------------------------------------
 Rotational constants (GHZ):     53.9296139      1.9245597      1.8687700
 Standard basis: LANL2DZ (5D, 7F)
 There are    30 symmetry adapted basis functions of A   symmetry.
 Integral buffers will be    262144 words long.
 Raffenetti 2 integral format.
 Two-electron integral symmetry is turned on.
    30 basis functions,    70 primitive gaussians,    30 cartesian basis functions
    13 alpha electrons       12 beta electrons
       nuclear repulsion energy        52.0800145219 Hartrees.
 NAtoms=    5 NActive=    5 NUniq=    5 SFac= 7.50D-01 NAtFMM=   80 NAOKFM=F Big=F
 ------------------------------------------------------------------------------
 Polarizable Continuum Model (PCM)
 =================================
 Model                : PCM.
 Atomic radii         : SMD-Coulomb.
 Polarization charges : Total charges.
 Charge compensation  : None.
 Solution method      : Matrix inversion.
 Cavity type          : VdW (van der Waals Surface) (Alpha=1.000).
 Cavity algorithm     : GePol (No added spheres)
                        Default sphere list used, NSphG=    5.
                        Lebedev-Laikov grids with approx.  5.0 points / Ang**2.
                        Smoothing algorithm: Karplus/York (Gamma=1.0000).
                        Polarization charges: spherical gaussians, with
                                              point-specific exponents (IZeta= 3).
                        Self-potential: point-specific (ISelfS= 7).
                        Self-field    : sphere-specific E.n sum rule (ISelfD= 2).
 1st derivatives      : Analytical E(r).r(x)/FMM algorithm (CHGder, D1EAlg=3).
                        Cavity 1st derivative terms included.
 Solvent              : Water, Eps=  78.355300 Eps(inf)=   1.777849
 ------------------------------------------------------------------------------
 Spheres list:
 ISph  on   Nord    Re0     Alpha      Xe            Ye            Ze
    1   O      1    1.520   1.000      1.187714      0.551300      0.008226
    2   H      2    1.200   1.000      2.655400      1.166805      0.029773
    3   O      3    1.520   1.000      3.069493     -0.343632     -0.113022
    4   H      4    1.200   1.000      3.404873     -0.489974      0.776150
    5   I      5    1.980   1.000     -0.756942     -0.044117      0.000612
 ------------------------------------------------------------------------------
 ------------------------------------------------------------------------------
 Atomic radii for non-electrostatic terms: SMD-CDS.
 ------------------------------------------------------------------------------
 Nuclear repulsion after PCM non-electrostatic terms =       52.0821595320 Hartrees.
 One-electron integrals computed using PRISM.
   1 Symmetry operations used in ECPInt.
 ECPInt:  NShTT=     171 NPrTT=    1054 LenC2=     172 LenP2D=     919.
 LDataN:  DoStor=T MaxTD1= 4 Len=   56
 NBasis=    30 RedAO= T  NBF=    30
 NBsUse=    30 1.00D-06 NBFU=    30
 Defaulting to unpruned grid for atomic number  53.
 Initial guess read from the read-write file.
 B after Tr=     0.000000    0.000000    0.000000
         Rot=    1.000000    0.000000    0.000000    0.000000 Ang=   0.00 deg.
 Initial guess orbital symmetries:
 Alpha Orbitals:
       Occupied  (A) (A) (A) (A) (A) (A) (A) (A) (A) (A) (A) (A)
                 (A)
       Virtual   (A) (A) (A) (A) (A) (A) (A) (A) (A) (A) (A) (A)
                 (A) (A) (A) (A) (A)
 Beta  Orbitals:
       Occupied  (A) (A) (A) (A) (A) (A) (A) (A) (A) (A) (A) (A)
       Virtual   (A) (A) (A) (A) (A) (A) (A) (A) (A) (A) (A) (A)
                 (A) (A) (A) (A) (A) (A)
 Initial guess <Sx>= 0.0000 <Sy>= 0.0000 <Sz>= 0.5000 <S**2>= 0.7686 S= 0.5093
 Harris functional with IExCor= 1009 diagonalized for initial guess.
 ExpMin= 1.05D-01 ExpMax= 7.82D+03 ExpMxC= 2.73D+02 IAcc=1 IRadAn=         1 AccDes= 0.00D+00
 HarFok:  IExCor= 1009 AccDes= 0.00D+00 IRadAn=         1 IDoV= 1
 ScaDFX=  1.000000  1.000000  1.000000  1.000000
 Defaulting to unpruned grid for atomic number  53.
 Defaulting to unpruned grid for atomic number  53.
 Defaulting to unpruned grid for atomic number  53.
 Defaulting to unpruned grid for atomic number  53.
 FoFCou: FMM=F IPFlag=           0 FMFlag=      100000 FMFlg1=           0
         NFxFlg=           0 DoJE=T BraDBF=F KetDBF=T FulRan=T
         Omega=  0.000000  0.000000  1.000000  0.000000  0.000000 ICntrl=     500 IOpCl=  0
         NMat0=    1 NMatS0=    1 NMatT0=    0 NMatD0=    1 NMtDS0=    0 NMtDT0=    0
         I1Cent=           4 NGrid=           0.
 Petite list used in FoFCou.
 Requested convergence on RMS density matrix=1.00D-08 within 128 cycles.
 Requested convergence on MAX density matrix=1.00D-06.
 Requested convergence on             energy=1.00D-06.
 No special actions if energy rises.
 Keep R1 and R2 ints in memory in canonical form, NReq=3544710.
 Defaulting to unpruned grid for atomic number  53.
 Defaulting to unpruned grid for atomic number  53.
 Defaulting to unpruned grid for atomic number  53.
 Defaulting to unpruned grid for atomic number  53.
 Error on total polarization charges =  0.06199
 SCF Done:  E(UM062X) =  -162.710157830     A.U. after   18 cycles
             Convg  =    0.4944D-08             -V/T =  2.0602
 <Sx>= 0.0000 <Sy>= 0.0000 <Sz>= 0.5000 <S**2>= 0.7681 S= 0.5090
 <L.S>= 0.000000000000E+00
 SMD-CDS (non-electrostatic) energy             (kcal/mol) =       1.35
 (included in total energy above)
 Annihilation of the first spin contaminant:
 S**2 before annihilation     0.7681,   after     0.7502
   1 Symmetry operations used in ECPInt.
 ECPInt:  NShTT=     171 NPrTT=    1054 LenC2=     172 LenP2D=     919.
 LDataN:  DoStor=T MaxTD1= 5 Len=  102
 D1PCM: PCM CHGder 1st derivatives, ID1Alg=3 FixD1E=F DoIter=F DoCFld=F I1PDM=0.
 Calling FoFJK, ICntrl=      2127 FMM=F ISym2X=0 I1Cent= 0 IOpClX= 1 NMat=1 NMatS=1 NMatT=0.
 Defaulting to unpruned grid for atomic number  53.
 Defaulting to unpruned grid for atomic number  53.
 Defaulting to unpruned grid for atomic number  53.
 Defaulting to unpruned grid for atomic number  53.
 ***** Axes restored to original set *****
 -------------------------------------------------------------------
 Center     Atomic                   Forces (Hartrees/Bohr)
 Number     Number              X              Y              Z
 -------------------------------------------------------------------
      1        8          -0.015501344    0.000921069   -0.020869904
      2        1           0.024739864   -0.002100120    0.093788032
      3        8          -0.022554081   -0.023974634   -0.075046161
      4        1           0.006787167    0.024754450    0.002612594
      5       53           0.006528394    0.000399235   -0.000484560
 -------------------------------------------------------------------
 Cartesian Forces:  Max     0.093788032 RMS     0.034169619

 GradGradGradGradGradGradGradGradGradGradGradGradGradGradGradGradGradGrad
 Berny optimization.
 Internal  Forces:  Max     0.084488811 RMS     0.030876716
 Search for a saddle point.
 Step number   3 out of a maximum of   20
 All quantities printed in internal units (Hartrees-Bohrs-Radians)
 Swaping is turned off.
 Update second derivatives using D2CorX and points    1    2    3
 The second derivative matrix:
                          R1        R2        R3        R4        R5
           R1          -0.06808
           R2          -0.01621  -0.00519
           R3          -0.00348   0.02171   0.14636
           R4           0.04913   0.02872  -0.00514  -0.04933
           R5           0.00132   0.00612  -0.00101  -0.00131   0.58633
           A1          -0.01608  -0.00473   0.00309   0.01711   0.00021
           A2          -0.00600  -0.00854   0.00356   0.01295   0.00141
           A3           0.00469  -0.02842   0.00140   0.00711  -0.00463
           A4          -0.01506   0.02797   0.00104   0.01217   0.01213
           D1           0.02113  -0.00813  -0.00020  -0.00380   0.00015
                          A1        A2        A3        A4        D1
           A1          -0.00795
           A2           0.00085  -0.00830
           A3          -0.00082  -0.00756  -0.09604
           A4          -0.00006   0.00086   0.15509  -0.15991
           D1           0.00020   0.00064  -0.12314   0.18848  -0.13316
     Eigenvalues ---   -0.45144  -0.12629  -0.02050  -0.00764   0.00191
     Eigenvalues ---    0.02032   0.05131   0.14977   0.586631000.00000
 Eigenvectors required to have negative eigenvalues:
                          A4        D1        A3        R2        R1
   1                    0.64547  -0.57769  -0.48889  -0.07979   0.06196
                          R4        R5        A1        A2        R3
   1                   -0.01672  -0.00926   0.00582  -0.00464   0.00292
 RFO step:  Lambda0=2.856211787D-05 Lambda=-1.49602113D-01.
 Linear search not attempted -- option 19 set.
 Maximum step size (   0.030) exceeded in Quadratic search.
    -- Step size scaled by   0.043
 Iteration  1 RMS(Cart)=  0.01079900 RMS(Int)=  0.00004009
 Iteration  2 RMS(Cart)=  0.00003358 RMS(Int)=  0.00000454
 Iteration  3 RMS(Cart)=  0.00000000 RMS(Int)=  0.00000454
 Variable       Old X    -DE/DX   Delta X   Delta X   Delta X     New X
                                 (Linear)    (Quad)   (Total)
    R1        3.00782  -0.02265   0.00000  -0.00650  -0.00650   3.00132
    R2        3.94437   0.02328   0.00000   0.01008   0.01007   3.95444
    R3        3.84329  -0.00593   0.00000  -0.00215  -0.00215   3.84114
    R4        2.97191  -0.08449   0.00000  -0.02604  -0.02604   2.94587
    R5        1.81701   0.02566   0.00000   0.00134   0.00134   1.81835
    A1        3.04114   0.02148   0.00000   0.00291   0.00292   3.04407
    A2        2.39838   0.01101   0.00000   0.00774   0.00775   2.40614
    A3        1.90287  -0.00582   0.00000   0.00107   0.00107   1.90394
    A4        1.72546   0.00538   0.00000   0.00135   0.00135   1.72682
    D1       -1.65278   0.00120   0.00000  -0.00021  -0.00021  -1.65299
         Item               Value     Threshold  Converged?
 Maximum Force            0.084489     0.000450     NO 
 RMS     Force            0.030877     0.000300     NO 
 Maximum Displacement     0.023377     0.001800     NO 
 RMS     Displacement     0.010820     0.001200     NO 
 Predicted change in Energy=-2.799454D-03
 GradGradGradGradGradGradGradGradGradGradGradGradGradGradGradGradGradGrad

                          Input orientation:                          
 ---------------------------------------------------------------------
 Center     Atomic      Atomic             Coordinates (Angstroms)
 Number     Number       Type             X           Y           Z
 ---------------------------------------------------------------------
      1          8           0       -1.427893    0.708814   -0.047988
      2          1           0       -0.127731    0.715829   -0.960130
      3          8           0        0.613726    0.706426    0.411104
      4          1           0        0.936992    1.612730    0.412503
      5         53           0       -3.197623    0.702859    0.951843
 ---------------------------------------------------------------------
                    Distance matrix (angstroms):
                    1          2          3          4          5
     1  O    0.000000
     2  H    1.588230   0.000000
     3  O    2.092601   1.558887   0.000000
     4  H    2.573285   1.955041   0.962232   0.000000
     5  I    2.032645   3.616635   3.849519   4.267763   0.000000
 Stoichiometry    H2IO2(2)
 Framework group  C1[X(H2IO2)]
 Deg. of freedom     9
 Full point group                 C1      NOp   1
 Largest Abelian subgroup         C1      NOp   1
 Largest concise Abelian subgroup C1      NOp   1
                         Standard orientation:                         
 ---------------------------------------------------------------------
 Center     Atomic      Atomic             Coordinates (Angstroms)
 Number     Number       Type             X           Y           Z
 ---------------------------------------------------------------------
      1          8           0        1.186585    0.546988    0.008300
      2          1           0        2.654205    1.153698    0.029916
      3          8           0        3.078205   -0.339586   -0.113103
      4          1           0        3.415142   -0.485194    0.776370
      5         53           0       -0.758258   -0.043919    0.000606
 ---------------------------------------------------------------------
 Rotational constants (GHZ):     54.8455085      1.9163748      1.8621327
 Standard basis: LANL2DZ (5D, 7F)
 There are    30 symmetry adapted basis functions of A   symmetry.
 Integral buffers will be    262144 words long.
 Raffenetti 2 integral format.
 Two-electron integral symmetry is turned on.
    30 basis functions,    70 primitive gaussians,    30 cartesian basis functions
    13 alpha electrons       12 beta electrons
       nuclear repulsion energy        52.0501487465 Hartrees.
 NAtoms=    5 NActive=    5 NUniq=    5 SFac= 7.50D-01 NAtFMM=   80 NAOKFM=F Big=F
 ------------------------------------------------------------------------------
 Polarizable Continuum Model (PCM)
 =================================
 Model                : PCM.
 Atomic radii         : SMD-Coulomb.
 Polarization charges : Total charges.
 Charge compensation  : None.
 Solution method      : Matrix inversion.
 Cavity type          : VdW (van der Waals Surface) (Alpha=1.000).
 Cavity algorithm     : GePol (No added spheres)
                        Default sphere list used, NSphG=    5.
                        Lebedev-Laikov grids with approx.  5.0 points / Ang**2.
                        Smoothing algorithm: Karplus/York (Gamma=1.0000).
                        Polarization charges: spherical gaussians, with
                                              point-specific exponents (IZeta= 3).
                        Self-potential: point-specific (ISelfS= 7).
                        Self-field    : sphere-specific E.n sum rule (ISelfD= 2).
 1st derivatives      : Analytical E(r).r(x)/FMM algorithm (CHGder, D1EAlg=3).
                        Cavity 1st derivative terms included.
 Solvent              : Water, Eps=  78.355300 Eps(inf)=   1.777849
 ------------------------------------------------------------------------------
 Spheres list:
 ISph  on   Nord    Re0     Alpha      Xe            Ye            Ze
    1   O      1    1.520   1.000      1.186585      0.546988      0.008300
    2   H      2    1.200   1.000      2.654205      1.153698      0.029916
    3   O      3    1.520   1.000      3.078205     -0.339586     -0.113103
    4   H      4    1.200   1.000      3.415142     -0.485194      0.776370
    5   I      5    1.980   1.000     -0.758258     -0.043919      0.000606
 ------------------------------------------------------------------------------
 ------------------------------------------------------------------------------
 Atomic radii for non-electrostatic terms: SMD-CDS.
 ------------------------------------------------------------------------------
 Nuclear repulsion after PCM non-electrostatic terms =       52.0522827311 Hartrees.
 One-electron integrals computed using PRISM.
   1 Symmetry operations used in ECPInt.
 ECPInt:  NShTT=     171 NPrTT=    1054 LenC2=     172 LenP2D=     919.
 LDataN:  DoStor=T MaxTD1= 4 Len=   56
 NBasis=    30 RedAO= T  NBF=    30
 NBsUse=    30 1.00D-06 NBFU=    30
 Defaulting to unpruned grid for atomic number  53.
 Initial guess read from the read-write file.
 B after Tr=     0.000000    0.000000    0.000000
         Rot=    1.000000    0.000000    0.000000    0.000000 Ang=   0.00 deg.
 Initial guess orbital symmetries:
 Alpha Orbitals:
       Occupied  (A) (A) (A) (A) (A) (A) (A) (A) (A) (A) (A) (A)
                 (A)
       Virtual   (A) (A) (A) (A) (A) (A) (A) (A) (A) (A) (A) (A)
                 (A) (A) (A) (A) (A)
 Beta  Orbitals:
       Occupied  (A) (A) (A) (A) (A) (A) (A) (A) (A) (A) (A) (A)
       Virtual   (A) (A) (A) (A) (A) (A) (A) (A) (A) (A) (A) (A)
                 (A) (A) (A) (A) (A) (A)
 Initial guess <Sx>= 0.0000 <Sy>= 0.0000 <Sz>= 0.5000 <S**2>= 0.7681 S= 0.5090
 Harris functional with IExCor= 1009 diagonalized for initial guess.
 ExpMin= 1.05D-01 ExpMax= 7.82D+03 ExpMxC= 2.73D+02 IAcc=1 IRadAn=         1 AccDes= 0.00D+00
 HarFok:  IExCor= 1009 AccDes= 0.00D+00 IRadAn=         1 IDoV= 1
 ScaDFX=  1.000000  1.000000  1.000000  1.000000
 Defaulting to unpruned grid for atomic number  53.
 Defaulting to unpruned grid for atomic number  53.
 Defaulting to unpruned grid for atomic number  53.
 Defaulting to unpruned grid for atomic number  53.
 FoFCou: FMM=F IPFlag=           0 FMFlag=      100000 FMFlg1=           0
         NFxFlg=           0 DoJE=T BraDBF=F KetDBF=T FulRan=T
         Omega=  0.000000  0.000000  1.000000  0.000000  0.000000 ICntrl=     500 IOpCl=  0
         NMat0=    1 NMatS0=    1 NMatT0=    0 NMatD0=    1 NMtDS0=    0 NMtDT0=    0
         I1Cent=           4 NGrid=           0.
 Petite list used in FoFCou.
 Requested convergence on RMS density matrix=1.00D-08 within 128 cycles.
 Requested convergence on MAX density matrix=1.00D-06.
 Requested convergence on             energy=1.00D-06.
 No special actions if energy rises.
 Keep R1 and R2 ints in memory in canonical form, NReq=3543410.
 Defaulting to unpruned grid for atomic number  53.
 Defaulting to unpruned grid for atomic number  53.
 Defaulting to unpruned grid for atomic number  53.
 Defaulting to unpruned grid for atomic number  53.
 Error on total polarization charges =  0.06193
 SCF Done:  E(UM062X) =  -162.712956706     A.U. after   18 cycles
             Convg  =    0.4179D-08             -V/T =  2.0602
 <Sx>= 0.0000 <Sy>= 0.0000 <Sz>= 0.5000 <S**2>= 0.7676 S= 0.5088
 <L.S>= 0.000000000000E+00
 SMD-CDS (non-electrostatic) energy             (kcal/mol) =       1.34
 (included in total energy above)
 Annihilation of the first spin contaminant:
 S**2 before annihilation     0.7676,   after     0.7502
   1 Symmetry operations used in ECPInt.
 ECPInt:  NShTT=     171 NPrTT=    1054 LenC2=     172 LenP2D=     919.
 LDataN:  DoStor=T MaxTD1= 5 Len=  102
 D1PCM: PCM CHGder 1st derivatives, ID1Alg=3 FixD1E=F DoIter=F DoCFld=F I1PDM=0.
 Calling FoFJK, ICntrl=      2127 FMM=F ISym2X=0 I1Cent= 0 IOpClX= 1 NMat=1 NMatS=1 NMatT=0.
 Defaulting to unpruned grid for atomic number  53.
 Defaulting to unpruned grid for atomic number  53.
 Defaulting to unpruned grid for atomic number  53.
 Defaulting to unpruned grid for atomic number  53.
 ***** Axes restored to original set *****
 -------------------------------------------------------------------
 Center     Atomic                   Forces (Hartrees/Bohr)
 Number     Number              X              Y              Z
 -------------------------------------------------------------------
      1        8          -0.017186149    0.000886243   -0.020181030
      2        1           0.026812340   -0.002364731    0.094102135
      3        8          -0.022994700   -0.022728488   -0.076041348
      4        1           0.006749391    0.023828227    0.002666647
      5       53           0.006619118    0.000378749   -0.000546404
 -------------------------------------------------------------------
 Cartesian Forces:  Max     0.094102135 RMS     0.034424274

 GradGradGradGradGradGradGradGradGradGradGradGradGradGradGradGradGradGrad
 Berny optimization.
 Internal  Forces:  Max     0.085861835 RMS     0.031199162
 Search for a saddle point.
 Step number   4 out of a maximum of   20
 All quantities printed in internal units (Hartrees-Bohrs-Radians)
 Swaping is turned off.
 Update second derivatives using D2CorX and points    1    2    3    4
 The second derivative matrix:
                          R1        R2        R3        R4        R5
           R1          -0.06821
           R2          -0.01554  -0.00411
           R3          -0.00351   0.02195   0.14636
           R4           0.04763   0.02709  -0.00567  -0.04726
           R5           0.00136   0.00605  -0.00100  -0.00112   0.58632
           A1          -0.01573  -0.00389   0.00323   0.01566   0.00018
           A2          -0.00563  -0.00825   0.00368   0.01270   0.00137
           A3           0.00476  -0.02829   0.00142   0.00690  -0.00464
           A4          -0.01496   0.02815   0.00108   0.01189   0.01212
           D1           0.02106  -0.00836  -0.00023  -0.00338   0.00016
                          A1        A2        A3        A4        D1
           A1          -0.00732
           A2           0.00112  -0.00828
           A3          -0.00073  -0.00751  -0.09602
           A4           0.00008   0.00091   0.15511  -0.15988
           D1           0.00003   0.00056  -0.12317   0.18844  -0.13312
     Eigenvalues ---   -0.45140  -0.12263  -0.02080  -0.00723   0.00170
     Eigenvalues ---    0.02034   0.05129   0.14989   0.586621000.00000
 Eigenvectors required to have negative eigenvalues:
                          A4        D1        A3        R2        R1
   1                    0.64542  -0.57763  -0.48898  -0.08054   0.06169
                          R4        R5        A1        A2        R3
   1                   -0.01538  -0.00925   0.00686  -0.00345   0.00291
 RFO step:  Lambda0=2.466920583D-05 Lambda=-1.47604134D-01.
 Linear search not attempted -- option 19 set.
 Maximum step size (   0.030) exceeded in Quadratic search.
    -- Step size scaled by   0.042
 Iteration  1 RMS(Cart)=  0.01091281 RMS(Int)=  0.00004008
 Iteration  2 RMS(Cart)=  0.00003356 RMS(Int)=  0.00000362
 Iteration  3 RMS(Cart)=  0.00000000 RMS(Int)=  0.00000362
 Variable       Old X    -DE/DX   Delta X   Delta X   Delta X     New X
                                 (Linear)    (Quad)   (Total)
    R1        3.00132  -0.02160   0.00000  -0.00527  -0.00527   2.99605
    R2        3.95444   0.02403   0.00000   0.01011   0.01011   3.96455
    R3        3.84114  -0.00605   0.00000  -0.00219  -0.00219   3.83896
    R4        2.94587  -0.08586   0.00000  -0.02621  -0.02621   2.91966
    R5        1.81835   0.02476   0.00000   0.00129   0.00129   1.81965
    A1        3.04407   0.02185   0.00000   0.00270   0.00271   3.04678
    A2        2.40614   0.01146   0.00000   0.00811   0.00812   2.41426
    A3        1.90394  -0.00538   0.00000   0.00121   0.00121   1.90514
    A4        1.72682   0.00538   0.00000   0.00132   0.00132   1.72814
    D1       -1.65299   0.00118   0.00000  -0.00032  -0.00032  -1.65331
         Item               Value     Threshold  Converged?
 Maximum Force            0.085862     0.000450     NO 
 RMS     Force            0.031199     0.000300     NO 
 Maximum Displacement     0.023234     0.001800     NO 
 RMS     Displacement     0.010932     0.001200     NO 
 Predicted change in Energy=-2.827054D-03
 GradGradGradGradGradGradGradGradGradGradGradGradGradGradGradGradGradGrad

                          Input orientation:                          
 ---------------------------------------------------------------------
 Center     Atomic      Atomic             Coordinates (Angstroms)
 Number     Number       Type             X           Y           Z
 ---------------------------------------------------------------------
      1          8           0       -1.431273    0.709097   -0.045282
      2          1           0       -0.127840    0.718384   -0.947835
      3          8           0        0.617708    0.705844    0.405337
      4          1           0        0.942274    1.612408    0.407189
      5         53           0       -3.203397    0.700924    0.947922
 ---------------------------------------------------------------------
                    Distance matrix (angstroms):
                    1          2          3          4          5
     1  O    0.000000
     2  H    1.585442   0.000000
     3  O    2.097949   1.545016   0.000000
     4  H    2.579618   1.944355   0.962915   0.000000
     5  I    2.031488   3.612928   3.859438   4.278993   0.000000
 Stoichiometry    H2IO2(2)
 Framework group  C1[X(H2IO2)]
 Deg. of freedom     9
 Full point group                 C1      NOp   1
 Largest Abelian subgroup         C1      NOp   1
 Largest concise Abelian subgroup C1      NOp   1
                         Standard orientation:                         
 ---------------------------------------------------------------------
 Center     Atomic      Atomic             Coordinates (Angstroms)
 Number     Number       Type             X           Y           Z
 ---------------------------------------------------------------------
      1          8           0        1.185485    0.542351    0.008375
      2          1           0        2.653570    1.140583    0.030040
      3          8           0        3.087092   -0.335433   -0.113177
      4          1           0        3.425730   -0.480235    0.776521
      5         53           0       -0.759621   -0.043692    0.000601
 ---------------------------------------------------------------------
 Rotational constants (GHZ):     55.8295676      1.9080064      1.8553420
 Standard basis: LANL2DZ (5D, 7F)
 There are    30 symmetry adapted basis functions of A   symmetry.
 Integral buffers will be    262144 words long.
 Raffenetti 2 integral format.
 Two-electron integral symmetry is turned on.
    30 basis functions,    70 primitive gaussians,    30 cartesian basis functions
    13 alpha electrons       12 beta electrons
       nuclear repulsion energy        52.0195776024 Hartrees.
 NAtoms=    5 NActive=    5 NUniq=    5 SFac= 7.50D-01 NAtFMM=   80 NAOKFM=F Big=F
 ------------------------------------------------------------------------------
 Polarizable Continuum Model (PCM)
 =================================
 Model                : PCM.
 Atomic radii         : SMD-Coulomb.
 Polarization charges : Total charges.
 Charge compensation  : None.
 Solution method      : Matrix inversion.
 Cavity type          : VdW (van der Waals Surface) (Alpha=1.000).
 Cavity algorithm     : GePol (No added spheres)
                        Default sphere list used, NSphG=    5.
                        Lebedev-Laikov grids with approx.  5.0 points / Ang**2.
                        Smoothing algorithm: Karplus/York (Gamma=1.0000).
                        Polarization charges: spherical gaussians, with
                                              point-specific exponents (IZeta= 3).
                        Self-potential: point-specific (ISelfS= 7).
                        Self-field    : sphere-specific E.n sum rule (ISelfD= 2).
 1st derivatives      : Analytical E(r).r(x)/FMM algorithm (CHGder, D1EAlg=3).
                        Cavity 1st derivative terms included.
 Solvent              : Water, Eps=  78.355300 Eps(inf)=   1.777849
 ------------------------------------------------------------------------------
 Spheres list:
 ISph  on   Nord    Re0     Alpha      Xe            Ye            Ze
    1   O      1    1.520   1.000      1.185485      0.542351      0.008375
    2   H      2    1.200   1.000      2.653570      1.140583      0.030040
    3   O      3    1.520   1.000      3.087092     -0.335433     -0.113177
    4   H      4    1.200   1.000      3.425730     -0.480235      0.776521
    5   I      5    1.980   1.000     -0.759621     -0.043692      0.000601
 ------------------------------------------------------------------------------
 ------------------------------------------------------------------------------
 Atomic radii for non-electrostatic terms: SMD-CDS.
 ------------------------------------------------------------------------------
 Nuclear repulsion after PCM non-electrostatic terms =       52.0217013630 Hartrees.
 One-electron integrals computed using PRISM.
   1 Symmetry operations used in ECPInt.
 ECPInt:  NShTT=     171 NPrTT=    1054 LenC2=     172 LenP2D=     920.
 LDataN:  DoStor=T MaxTD1= 4 Len=   56
 NBasis=    30 RedAO= T  NBF=    30
 NBsUse=    30 1.00D-06 NBFU=    30
 Defaulting to unpruned grid for atomic number  53.
 Initial guess read from the read-write file.
 B after Tr=     0.000000    0.000000    0.000000
         Rot=    1.000000    0.000000    0.000000    0.000000 Ang=   0.00 deg.
 Initial guess orbital symmetries:
 Alpha Orbitals:
       Occupied  (A) (A) (A) (A) (A) (A) (A) (A) (A) (A) (A) (A)
                 (A)
       Virtual   (A) (A) (A) (A) (A) (A) (A) (A) (A) (A) (A) (A)
                 (A) (A) (A) (A) (A)
 Beta  Orbitals:
       Occupied  (A) (A) (A) (A) (A) (A) (A) (A) (A) (A) (A) (A)
       Virtual   (A) (A) (A) (A) (A) (A) (A) (A) (A) (A) (A) (A)
                 (A) (A) (A) (A) (A) (A)
 Initial guess <Sx>= 0.0000 <Sy>= 0.0000 <Sz>= 0.5000 <S**2>= 0.7676 S= 0.5088
 Harris functional with IExCor= 1009 diagonalized for initial guess.
 ExpMin= 1.05D-01 ExpMax= 7.82D+03 ExpMxC= 2.73D+02 IAcc=1 IRadAn=         1 AccDes= 0.00D+00
 HarFok:  IExCor= 1009 AccDes= 0.00D+00 IRadAn=         1 IDoV= 1
 ScaDFX=  1.000000  1.000000  1.000000  1.000000
 Defaulting to unpruned grid for atomic number  53.
 Defaulting to unpruned grid for atomic number  53.
 Defaulting to unpruned grid for atomic number  53.
 Defaulting to unpruned grid for atomic number  53.
 FoFCou: FMM=F IPFlag=           0 FMFlag=      100000 FMFlg1=           0
         NFxFlg=           0 DoJE=T BraDBF=F KetDBF=T FulRan=T
         Omega=  0.000000  0.000000  1.000000  0.000000  0.000000 ICntrl=     500 IOpCl=  0
         NMat0=    1 NMatS0=    1 NMatT0=    0 NMatD0=    1 NMtDS0=    0 NMtDT0=    0
         I1Cent=           4 NGrid=           0.
 Petite list used in FoFCou.
 Requested convergence on RMS density matrix=1.00D-08 within 128 cycles.
 Requested convergence on MAX density matrix=1.00D-06.
 Requested convergence on             energy=1.00D-06.
 No special actions if energy rises.
 Keep R1 and R2 ints in memory in canonical form, NReq=3543410.
 Defaulting to unpruned grid for atomic number  53.
 Defaulting to unpruned grid for atomic number  53.
 Defaulting to unpruned grid for atomic number  53.
 Defaulting to unpruned grid for atomic number  53.
 Error on total polarization charges =  0.06187
 SCF Done:  E(UM062X) =  -162.715783001     A.U. after   18 cycles
             Convg  =    0.3578D-08             -V/T =  2.0602
 <Sx>= 0.0000 <Sy>= 0.0000 <Sz>= 0.5000 <S**2>= 0.7671 S= 0.5085
 <L.S>= 0.000000000000E+00
 SMD-CDS (non-electrostatic) energy             (kcal/mol) =       1.33
 (included in total energy above)
 Annihilation of the first spin contaminant:
 S**2 before annihilation     0.7671,   after     0.7501
   1 Symmetry operations used in ECPInt.
 ECPInt:  NShTT=     171 NPrTT=    1054 LenC2=     172 LenP2D=     920.
 LDataN:  DoStor=T MaxTD1= 5 Len=  102
 D1PCM: PCM CHGder 1st derivatives, ID1Alg=3 FixD1E=F DoIter=F DoCFld=F I1PDM=0.
 Calling FoFJK, ICntrl=      2127 FMM=F ISym2X=0 I1Cent= 0 IOpClX= 1 NMat=1 NMatS=1 NMatT=0.
 Defaulting to unpruned grid for atomic number  53.
 Defaulting to unpruned grid for atomic number  53.
 Defaulting to unpruned grid for atomic number  53.
 Defaulting to unpruned grid for atomic number  53.
 ***** Axes restored to original set *****
 -------------------------------------------------------------------
 Center     Atomic                   Forces (Hartrees/Bohr)
 Number     Number              X              Y              Z
 -------------------------------------------------------------------
      1        8          -0.018866942    0.000851645   -0.019448604
      2        1           0.028925757   -0.002641570    0.094390212
      3        8          -0.023493700   -0.021505710   -0.077035808
      4        1           0.006721835    0.022937357    0.002719096
      5       53           0.006713050    0.000358278   -0.000624895
 -------------------------------------------------------------------
 Cartesian Forces:  Max     0.094390212 RMS     0.034700022

 GradGradGradGradGradGradGradGradGradGradGradGradGradGradGradGradGradGrad
 Berny optimization.
 Internal  Forces:  Max     0.087236711 RMS     0.031530679
 Search for a saddle point.
 Step number   5 out of a maximum of   20
 All quantities printed in internal units (Hartrees-Bohrs-Radians)
 Swaping is turned off.
 Update second derivatives using D2CorX and points    1    2    3    4    5
 The second derivative matrix:
                          R1        R2        R3        R4        R5
           R1          -0.06812
           R2          -0.01462  -0.00265
           R3          -0.00351   0.02220   0.14634
           R4           0.04586   0.02514  -0.00617  -0.04528
           R5           0.00138   0.00596  -0.00098  -0.00093   0.58631
           A1          -0.01528  -0.00293   0.00333   0.01424   0.00015
           A2          -0.00515  -0.00783   0.00383   0.01237   0.00131
           A3           0.00489  -0.02806   0.00145   0.00658  -0.00465
           A4          -0.01483   0.02834   0.00111   0.01165   0.01210
           D1           0.02095  -0.00862  -0.00026  -0.00298   0.00016
                          A1        A2        A3        A4        D1
           A1          -0.00676
           A2           0.00146  -0.00826
           A3          -0.00058  -0.00744  -0.09599
           A4           0.00020   0.00096   0.15514  -0.15986
           D1          -0.00011   0.00046  -0.12320   0.18841  -0.13308
     Eigenvalues ---   -0.45139  -0.11840  -0.02106  -0.00700   0.00154
     Eigenvalues ---    0.02039   0.05128   0.15001   0.586611000.00000
 Eigenvectors required to have negative eigenvalues:
                          A4        D1        A3        R2        R1
   1                    0.64537  -0.57758  -0.48904  -0.08115   0.06148
                          R4        R5        A1        R3        A2
   1                   -0.01440  -0.00925   0.00784   0.00293  -0.00245
 RFO step:  Lambda0=2.163817524D-05 Lambda=-1.45292263D-01.
 Linear search not attempted -- option 19 set.
 Maximum step size (   0.030) exceeded in Quadratic search.
    -- Step size scaled by   0.042
 Iteration  1 RMS(Cart)=  0.01098100 RMS(Int)=  0.00003959
 Iteration  2 RMS(Cart)=  0.00003327 RMS(Int)=  0.00000255
 Iteration  3 RMS(Cart)=  0.00000000 RMS(Int)=  0.00000255
 Variable       Old X    -DE/DX   Delta X   Delta X   Delta X     New X
                                 (Linear)    (Quad)   (Total)
    R1        2.99605  -0.02051   0.00000  -0.00390  -0.00390   2.99215
    R2        3.96455   0.02475   0.00000   0.01015   0.01015   3.97470
    R3        3.83896  -0.00617   0.00000  -0.00223  -0.00223   3.83673
    R4        2.91966  -0.08724   0.00000  -0.02636  -0.02636   2.89330
    R5        1.81965   0.02391   0.00000   0.00124   0.00124   1.82089
    A1        3.04678   0.02218   0.00000   0.00258   0.00259   3.04937
    A2        2.41426   0.01191   0.00000   0.00837   0.00838   2.42264
    A3        1.90514  -0.00496   0.00000   0.00136   0.00136   1.90650
    A4        1.72814   0.00538   0.00000   0.00126   0.00126   1.72940
    D1       -1.65331   0.00115   0.00000  -0.00045  -0.00045  -1.65377
         Item               Value     Threshold  Converged?
 Maximum Force            0.087237     0.000450     NO 
 RMS     Force            0.031531     0.000300     NO 
 Maximum Displacement     0.023000     0.001800     NO 
 RMS     Displacement     0.010998     0.001200     NO 
 Predicted change in Energy=-2.853615D-03
[...]
 Solvent              : Water, Eps=  78.355300 Eps(inf)=   1.777849
 ------------------------------------------------------------------------------
 Spheres list:
 ISph  on   Nord    Re0     Alpha      Xe            Ye            Ze
    1   O      1    1.520   1.000      1.170047      0.472889      0.009324
    2   H      2    1.200   1.000      2.728785      0.966168      0.035167
    3   O      3    1.520   1.000      3.199101     -0.280530     -0.113503
    4   H      4    1.200   1.000      3.579413     -0.420735      0.767123
    5   I      5    1.980   1.000     -0.778517     -0.039326      0.000587
 ------------------------------------------------------------------------------
 ------------------------------------------------------------------------------
 Atomic radii for non-electrostatic terms: SMD-CDS.
 ------------------------------------------------------------------------------
 Nuclear repulsion after PCM non-electrostatic terms =       51.6054683116 Hartrees.
 One-electron integrals computed using PRISM.
   1 Symmetry operations used in ECPInt.
 ECPInt:  NShTT=     171 NPrTT=    1054 LenC2=     172 LenP2D=     917.
 LDataN:  DoStor=T MaxTD1= 4 Len=   56
 NBasis=    30 RedAO= T  NBF=    30
 NBsUse=    30 1.00D-06 NBFU=    30
 Defaulting to unpruned grid for atomic number  53.
 Initial guess read from the read-write file.
 B after Tr=     0.000000    0.000000    0.000000
         Rot=    1.000000    0.000000    0.000000    0.000000 Ang=   0.00 deg.
 Initial guess orbital symmetries:
 Alpha Orbitals:
       Occupied  (A) (A) (A) (A) (A) (A) (A) (A) (A) (A) (A) (A)
                 (A)
       Virtual   (A) (A) (A) (A) (A) (A) (A) (A) (A) (A) (A) (A)
                 (A) (A) (A) (A) (A)
 Beta  Orbitals:
       Occupied  (A) (A) (A) (A) (A) (A) (A) (A) (A) (A) (A) (A)
       Virtual   (A) (A) (A) (A) (A) (A) (A) (A) (A) (A) (A) (A)
                 (A) (A) (A) (A) (A) (A)
 Initial guess <Sx>= 0.0000 <Sy>= 0.0000 <Sz>= 0.5000 <S**2>= 0.7622 S= 0.5061
 Requested convergence on RMS density matrix=1.00D-08 within 128 cycles.
 Requested convergence on MAX density matrix=1.00D-06.
 Requested convergence on             energy=1.00D-06.
 No special actions if energy rises.
 Keep R1 and R2 ints in memory in canonical form, NReq=3539531.
 Defaulting to unpruned grid for atomic number  53.
 Defaulting to unpruned grid for atomic number  53.
 Defaulting to unpruned grid for atomic number  53.
 Defaulting to unpruned grid for atomic number  53.
 Error on total polarization charges =  0.06118
 SCF Done:  E(UM062X) =  -162.759106869     A.U. after   17 cycles
             Convg  =    0.5272D-08             -V/T =  2.0597
 <Sx>= 0.0000 <Sy>= 0.0000 <Sz>= 0.5000 <S**2>= 0.7620 S= 0.5060
 <L.S>= 0.000000000000E+00
 SMD-CDS (non-electrostatic) energy             (kcal/mol) =       1.28
 (included in total energy above)
 Annihilation of the first spin contaminant:
 S**2 before annihilation     0.7620,   after     0.7501
   1 Symmetry operations used in ECPInt.
 ECPInt:  NShTT=     171 NPrTT=    1054 LenC2=     172 LenP2D=     917.
 LDataN:  DoStor=T MaxTD1= 5 Len=  102
 D1PCM: PCM CHGder 1st derivatives, ID1Alg=3 FixD1E=F DoIter=F DoCFld=F I1PDM=0.
 Calling FoFJK, ICntrl=      2127 FMM=F ISym2X=0 I1Cent= 0 IOpClX= 1 NMat=1 NMatS=1 NMatT=0.
 Defaulting to unpruned grid for atomic number  53.
 Defaulting to unpruned grid for atomic number  53.
 Defaulting to unpruned grid for atomic number  53.
 Defaulting to unpruned grid for atomic number  53.
 ***** Axes restored to original set *****
 -------------------------------------------------------------------
 Center     Atomic                   Forces (Hartrees/Bohr)
 Number     Number              X              Y              Z
 -------------------------------------------------------------------
      1        8          -0.036389321    0.000430150   -0.007373382
      2        1           0.054692117   -0.007826645    0.096762717
      3        8          -0.033398492   -0.006502648   -0.091751859
      4        1           0.007499349    0.013723318    0.004498944
      5       53           0.007596347    0.000175824   -0.002136420
 -------------------------------------------------------------------
 Cartesian Forces:  Max     0.096762717 RMS     0.039747117

 GradGradGradGradGradGradGradGradGradGradGradGradGradGradGradGradGradGrad
 Berny optimization.
 Internal  Forces:  Max     0.103871304 RMS     0.035818219
 Search for a saddle point.
 Step number  20 out of a maximum of   20
 All quantities printed in internal units (Hartrees-Bohrs-Radians)
 Swaping is turned off.
 Update second derivatives using D2CorX and points   10   11   12   13   14
                                                     15   16   17   18   19
                                                     20
 The second derivative matrix:
                          R1        R2        R3        R4        R5
           R1          -0.03353
           R2           0.00614   0.01339
           R3          -0.00408   0.02241   0.14647
           R4           0.01306   0.00300  -0.00612  -0.01251
           R5           0.00123   0.00556  -0.00106  -0.00065   0.58637
           A1           0.00038   0.00771   0.00317  -0.00236   0.00002
           A2           0.00424  -0.00164   0.00376   0.00312   0.00125
           A3           0.01116  -0.02388   0.00141   0.00027  -0.00472
           A4          -0.02140   0.02501   0.00156   0.01886   0.01200
           D1           0.01908  -0.01082  -0.00048  -0.00110   0.00032
                          A1        A2        A3        A4        D1
           A1           0.00067
           A2           0.00615  -0.00561
           A3           0.00246  -0.00567  -0.09474
           A4          -0.00240  -0.00111   0.15382  -0.15837
           D1          -0.00128  -0.00002  -0.12359   0.18839  -0.13248
     Eigenvalues ---   -0.44661  -0.03759  -0.01816  -0.00492   0.00553
     Eigenvalues ---    0.02339   0.05227   0.15069   0.586661000.00000
 Eigenvectors required to have negative eigenvalues:
                          A4        D1        A3        R2        R1
   1                    0.64107  -0.57644  -0.48554  -0.08759   0.07420
                          A1        A2        R4        R5        R3
   1                    0.06715   0.05592  -0.01012  -0.00918   0.00199
 RFO step:  Lambda0=2.673291432D-05 Lambda=-1.19292226D-01.
 Linear search not attempted -- option 19 set.
 Maximum step size (   0.030) exceeded in Quadratic search.
    -- Step size scaled by   0.026
 Iteration  1 RMS(Cart)=  0.00856798 RMS(Int)=  0.00001784
 Iteration  2 RMS(Cart)=  0.00001627 RMS(Int)=  0.00000789
 Iteration  3 RMS(Cart)=  0.00000000 RMS(Int)=  0.00000789
 Variable       Old X    -DE/DX   Delta X   Delta X   Delta X     New X
                                 (Linear)    (Quad)   (Total)
    R1        3.08995  -0.00505   0.00000   0.01755   0.01755   3.10750
    R2        4.09674   0.02910   0.00000   0.00621   0.00621   4.10295
    R3        3.80738  -0.00770   0.00000  -0.00143  -0.00143   3.80596
    R4        2.53361  -0.10387   0.00000  -0.02202  -0.02202   2.51159
    R5        1.83196   0.01561   0.00000   0.00048   0.00048   1.83244
    A1        3.09085   0.02340   0.00000   0.00155   0.00154   3.09238
    A2        2.52628   0.01646   0.00000   0.00655   0.00653   2.53281
    A3        1.94548   0.00024   0.00000   0.00454   0.00454   1.95002
    A4        1.74302   0.00655   0.00000   0.00071   0.00071   1.74372
    D1       -1.65977   0.00189   0.00000  -0.00019  -0.00019  -1.65996
         Item               Value     Threshold  Converged?
 Maximum Force            0.103871     0.000450     NO 
 RMS     Force            0.035818     0.000300     NO 
 Maximum Displacement     0.012924     0.001800     NO 
 RMS     Displacement     0.008561     0.001200     NO 
 Predicted change in Energy=-2.560534D-03
 Optimization stopped.
    -- Number of steps exceeded,  NStep=  20
    -- Flag reset to prevent archiving.
                           ----------------------------
                           ! Non-Optimized Parameters !
                           ! (Angstroms and Degrees)  !
 --------------------------                            --------------------------
 ! Name  Definition              Value          Derivative Info.                !
 --------------------------------------------------------------------------------
 ! R1    R(1,2)                  1.6444         -DE/DX =   -0.0051              !
 ! R2    R(1,3)                  2.1712         -DE/DX =    0.0291              !
 ! R3    R(1,5)                  2.014          -DE/DX =   -0.0077              !
 ! R4    R(2,3)                  1.3291         -DE/DX =   -0.1039              !
 ! R5    R(3,4)                  0.9697         -DE/DX =    0.0156              !
 ! A1    A(2,1,5)              177.1805         -DE/DX =    0.0234              !
 ! A2    A(3,1,5)              145.1196         -DE/DX =    0.0165              !
 ! A3    A(1,3,4)              111.7276         -DE/DX =    0.0002              !
 ! A4    A(2,3,4)               99.9081         -DE/DX =    0.0066              !
 ! D1    D(5,1,3,4)            -95.1085         -DE/DX =    0.0019              !
 --------------------------------------------------------------------------------
 GradGradGradGradGradGradGradGradGradGradGradGradGradGradGradGradGradGrad

                          Input orientation:                          
 ---------------------------------------------------------------------
 Center     Atomic      Atomic             Coordinates (Angstroms)
 Number     Number       Type             X           Y           Z
 ---------------------------------------------------------------------
      1          8           0       -1.494858    0.712094    0.003994
      2          1           0       -0.073733    0.755646   -0.803572
      3          8           0        0.649230    0.702510    0.324283
      4          1           0        1.010765    1.601966    0.332400
      5         53           0       -3.293932    0.674440    0.910226
 ---------------------------------------------------------------------
                    Distance matrix (angstroms):
                    1          2          3          4          5
     1  O    0.000000
     2  H    1.635131   0.000000
     3  O    2.167899   1.340730   0.000000
     4  H    2.679154   1.784047   0.969430   0.000000
     5  I    2.014781   3.648751   3.986558   4.441238   0.000000
 Stoichiometry    H2IO2(2)
 Framework group  C1[X(H2IO2)]
 Deg. of freedom     9
 Full point group                 C1      NOp   1
 Largest Abelian subgroup         C1      NOp   1
 Largest concise Abelian subgroup C1      NOp   1
                         Standard orientation:                         
 ---------------------------------------------------------------------
 Center     Atomic      Atomic             Coordinates (Angstroms)
 Number     Number       Type             X           Y           Z
 ---------------------------------------------------------------------
      1          8           0        1.170047    0.472889    0.009324
      2          1           0        2.728785    0.966168    0.035167
      3          8           0        3.199101   -0.280530   -0.113503
      4          1           0        3.579413   -0.420735    0.767123
      5         53           0       -0.778517   -0.039326    0.000587
 ---------------------------------------------------------------------
 Rotational constants (GHZ):     73.1911567      1.8013994      1.7673916

 **********************************************************************

            Population analysis using the SCF density.

 **********************************************************************

 Orbital symmetries:
 Alpha Orbitals:
       Occupied  (A) (A) (A) (A) (A) (A) (A) (A) (A) (A) (A) (A)
                 (A)
       Virtual   (A) (A) (A) (A) (A) (A) (A) (A) (A) (A) (A) (A)
                 (A) (A) (A) (A) (A)
 Beta  Orbitals:
       Occupied  (A) (A) (A) (A) (A) (A) (A) (A) (A) (A) (A) (A)
       Virtual   (A) (A) (A) (A) (A) (A) (A) (A) (A) (A) (A) (A)
                 (A) (A) (A) (A) (A) (A)
 The electronic state is 2-A.
 Alpha  occ. eigenvalues --  -19.70739 -19.63724  -1.11762  -1.07344  -0.74708
 Alpha  occ. eigenvalues --   -0.54950  -0.49580  -0.47759  -0.44565  -0.41037
 Alpha  occ. eigenvalues --   -0.36269  -0.32137  -0.31121
 Alpha virt. eigenvalues --   -0.05934   0.08303   0.19821   0.40761   0.41688
 Alpha virt. eigenvalues --    0.41944   0.63642   0.68620   0.74004   0.75120
 Alpha virt. eigenvalues --    0.84131   0.86903   1.03432   1.06593   1.28164
 Alpha virt. eigenvalues --    1.56338   9.13605
  Beta  occ. eigenvalues --  -19.69388 -19.63509  -1.08433  -1.03886  -0.73107
  Beta  occ. eigenvalues --   -0.53801  -0.46723  -0.42009  -0.39964  -0.37303
  Beta  occ. eigenvalues --   -0.32967  -0.30355
  Beta virt. eigenvalues --   -0.11101  -0.04288   0.08888   0.20003   0.40913
  Beta virt. eigenvalues --    0.41840   0.42097   0.64459   0.72604   0.74694
  Beta virt. eigenvalues --    0.77508   0.84595   0.87253   1.03635   1.07810
  Beta virt. eigenvalues --    1.31164   1.56720   9.13516
          Condensed to atoms (all electrons):
              1          2          3          4          5
     1  O    8.619744  -0.001280  -0.076675   0.001942   0.057678
     2  H   -0.001280   0.325561   0.224109  -0.014946   0.002022
     3  O   -0.076675   0.224109   8.410927   0.263296   0.006958
     4  H    0.001942  -0.014946   0.263296   0.331452  -0.000315
     5  I    0.057678   0.002022   0.006958  -0.000315   6.386739
 Mulliken atomic charges:
              1
     1  O   -0.601408
     2  H    0.464534
     3  O   -0.828615
     4  H    0.418571
     5  I    0.546918
 Sum of Mulliken atomic charges =   0.00000
 Mulliken charges with hydrogens summed into heavy atoms:
              1
     1  O   -0.601408
     3  O    0.054490
     5  I    0.546918
 Sum of Mulliken charges with hydrogens summed into heavy atoms =   0.00000
          Atomic-Atomic Spin Densities.
              1          2          3          4          5
     1  O    0.897295  -0.007162  -0.038289   0.001071  -0.072893
     2  H   -0.007162  -0.003204   0.003436  -0.000373   0.000311
     3  O   -0.038289   0.003436   0.105479  -0.001465   0.001643
     4  H    0.001071  -0.000373  -0.001465  -0.000824  -0.000056
     5  I   -0.072893   0.000311   0.001643  -0.000056   0.228803
 Mulliken atomic spin densities:
              1
     1  O    0.780023
     2  H   -0.006991
     3  O    0.070804
     4  H   -0.001646
     5  I    0.157809
 Sum of Mulliken atomic spin densities =   1.00000
 Electronic spatial extent (au):  <R**2>=            503.3822
 Charge=              0.0000 electrons
 Dipole moment (field-independent basis, Debye):
    X=             -3.4026    Y=              1.2742    Z=              2.4886  Tot=              4.4039
 Quadrupole moment (field-independent basis, Debye-Ang):
   XX=            -30.4668   YY=            -30.3258   ZZ=            -32.3936
   XY=              5.2969   XZ=              8.8192   YZ=             -0.8552
 Traceless Quadrupole moment (field-independent basis, Debye-Ang):
   XX=              0.5953   YY=              0.7363   ZZ=             -1.3316
   XY=              5.2969   XZ=              8.8192   YZ=             -0.8552
 Octapole moment (field-independent basis, Debye-Ang**2):
  XXX=            -53.3964  YYY=              0.4909  ZZZ=              2.2287  XYY=             -9.3781
  XXY=             11.3280  XXZ=             31.5979  XZZ=            -10.3669  YZZ=             -1.1551
  YYZ=              0.9613  XYZ=             -3.2763
 Hexadecapole moment (field-independent basis, Debye-Ang**3):
 XXXX=           -562.5652 YYYY=            -54.5813 ZZZZ=            -47.5195 XXXY=             38.8345
 XXXZ=            114.6086 YYYX=              9.4926 YYYZ=             -0.4622 ZZZX=              7.9571
 ZZZY=             -0.8611 XXYY=            -91.2905 XXZZ=            -93.9186 YYZZ=            -17.5337
 XXYZ=            -11.6744 YYXZ=              3.2381 ZZXY=             -0.7004
 N-N= 5.160546831155D+01 E-N=-7.194823902301D+02  KE= 2.289998314873D+02
                          Isotropic Fermi Contact Couplings
        Atom                 a.u.       MegaHertz       Gauss      10(-4) cm-1
     1  O(17)              0.12499     -75.76604     -27.03521     -25.27283
     2  H(1)              -0.00184      -8.20726      -2.92855      -2.73765
     3  O(17)              0.05303     -32.14566     -11.47037     -10.72264
     4  H(1)              -0.00097      -4.35424      -1.55370      -1.45242
     5  I(127)             0.00000       0.00086       0.00031       0.00029
 --------------------------------------------------------
       Center         ----  Spin Dipole Couplings  ----
                      3XX-RR        3YY-RR        3ZZ-RR
 --------------------------------------------------------
     1   Atom       -0.771763      2.297984     -1.526221
     2   Atom        0.035496     -0.005883     -0.029613
     3   Atom        0.298962     -0.117696     -0.181267
     4   Atom        0.006058     -0.014240      0.008182
     5   Atom        0.011622      0.011599     -0.023221
 --------------------------------------------------------
                        XY            XZ            YZ
 --------------------------------------------------------
     1   Atom       -1.371543     -0.064713      0.168505
     2   Atom        0.015416      0.000635      0.001820
     3   Atom        0.128912     -0.078080     -0.022141
     4   Atom       -0.004761      0.013050     -0.005484
     5   Atom       -0.020525     -0.001030      0.001587
 --------------------------------------------------------


 ---------------------------------------------------------------------------------
              Anisotropic Spin Dipole Couplings in Principal Axis System
 ---------------------------------------------------------------------------------

       Atom             a.u.   MegaHertz   Gauss  10(-4) cm-1        Axes

              Baa    -1.5337   110.978    39.600    37.018  0.0162 -0.0381  0.9991
     1 O(17)  Bbb    -1.2953    93.725    33.444    31.263  0.9342  0.3567 -0.0015
              Bcc     2.8290  -204.703   -73.043   -68.282 -0.3563  0.9335  0.0414
 
              Baa    -0.0298   -15.877    -5.665    -5.296  0.0097 -0.0823  0.9966
     2 H(1)   Bbb    -0.0109    -5.800    -2.070    -1.935 -0.3155  0.9455  0.0811
              Bcc     0.0406    21.677     7.735     7.231  0.9489  0.3152  0.0167
 
              Baa    -0.1937    14.017     5.002     4.675  0.1462  0.0400  0.9884
     3 O(17)  Bbb    -0.1544    11.169     3.985     3.726 -0.2733  0.9619  0.0015
              Bcc     0.3481   -25.186    -8.987    -8.401  0.9508  0.2704 -0.1516
 
              Baa    -0.0157    -8.383    -2.991    -2.796  0.1182  0.9800  0.1604
     4 H(1)   Bbb    -0.0060    -3.185    -1.136    -1.062  0.7390  0.0211 -0.6734
              Bcc     0.0217    11.568     4.128     3.859  0.6632 -0.1981  0.7217
 
              Baa    -0.0233    -2.504    -0.893    -0.835  0.0042 -0.0430  0.9991
     5 I(127) Bbb    -0.0089    -0.957    -0.342    -0.319  0.7075  0.7062  0.0274
              Bcc     0.0322     3.461     1.235     1.154 -0.7067  0.7067  0.0334
 

 ---------------------------------------------------------------------------------



 FROM AN ANONYMOUS WRITER, ON PERSPECTIVE:

 MAN, DESPITE HIS ARTISTIC PRETENSIONS, HIS SOPHISTICATION AND MANY 
 ACCOMPLISHMENTS, OWES THE FACT OF HIS EXISTENCE TO A SIX-INCH LAYER OF 
 TOPSOIL AND THE FACT THAT IT RAINS.
 Error termination request processed by link 9999.
 Error termination via Lnk1e in C:\G09W\l9999.exe at Tue Feb 02 04:21:42 2021.
 Job cpu time:  0 days  0 hours  3 minutes  1.0 seconds.
 File lengths (MBytes):  RWF=     11 Int=      0 D2E=      0 Chk=      2 Scr=      1
