 Entering Link 1 = C:\G09W\l1.exe PID=     12092.
  
 Copyright (c) 1988,1990,1992,1993,1995,1998,2003,2009, Gaussian, Inc.
                  All Rights Reserved.
  
 This is part of the Gaussian(R) 09 program.  It is based on
 the Gaussian(R) 03 system (copyright 2003, Gaussian, Inc.),
 the Gaussian(R) 98 system (copyright 1998, Gaussian, Inc.),
 the Gaussian(R) 94 system (copyright 1995, Gaussian, Inc.),
 the Gaussian 92(TM) system (copyright 1992, Gaussian, Inc.),
 the Gaussian 90(TM) system (copyright 1990, Gaussian, Inc.),
 the Gaussian 88(TM) system (copyright 1988, Gaussian, Inc.),
 the Gaussian 86(TM) system (copyright 1986, Carnegie Mellon
 University), and the Gaussian 82(TM) system (copyright 1983,
 Carnegie Mellon University). Gaussian is a federally registered
 trademark of Gaussian, Inc.
  
 This software contains proprietary and confidential information,
 including trade secrets, belonging to Gaussian, Inc.
  
 This software is provided under written license and may be
 used, copied, transmitted, or stored only in accord with that
 written license.
  
 The following legend is applicable only to US Government
 contracts under FAR:
  
                    RESTRICTED RIGHTS LEGEND
  
 Use, reproduction and disclosure by the US Government is
 subject to restrictions as set forth in subparagraphs (a)
 and (c) of the Commercial Computer Software - Restricted
 Rights clause in FAR 52.227-19.
  
 Gaussian, Inc.
 340 Quinnipiac St., Bldg. 40, Wallingford CT 06492
  
  
 ---------------------------------------------------------------
 Warning -- This program may not be used in any manner that
 competes with the business of Gaussian, Inc. or will provide
 assistance to any competitor of Gaussian, Inc.  The licensee
 of this program is prohibited from giving any competitor of
 Gaussian, Inc. access to this program.  By using this program,
 the user acknowledges that Gaussian, Inc. is engaged in the
 business of creating and licensing software in the field of
 computational chemistry and represents and warrants to the
 licensee that it is not a competitor of Gaussian, Inc. and that
 it will not use this program in any manner prohibited above.
 ---------------------------------------------------------------
  

 Cite this work as:
 Gaussian 09, Revision A.02,
 M. J. Frisch, G. W. Trucks, H. B. Schlegel, G. E. Scuseria, 
 M. A. Robb, J. R. Cheeseman, G. Scalmani, V. Barone, B. Mennucci, 
 G. A. Petersson, H. Nakatsuji, M. Caricato, X. Li, H. P. Hratchian, 
 A. F. Izmaylov, J. Bloino, G. Zheng, J. L. Sonnenberg, M. Hada, 
 M. Ehara, K. Toyota, R. Fukuda, J. Hasegawa, M. Ishida, T. Nakajima, 
 Y. Honda, O. Kitao, H. Nakai, T. Vreven, J. A. Montgomery, Jr., 
 J. E. Peralta, F. Ogliaro, M. Bearpark, J. J. Heyd, E. Brothers, 
 K. N. Kudin, V. N. Staroverov, R. Kobayashi, J. Normand, 
 K. Raghavachari, A. Rendell, J. C. Burant, S. S. Iyengar, J. Tomasi, 
 M. Cossi, N. Rega, J. M. Millam, M. Klene, J. E. Knox, J. B. Cross, 
 V. Bakken, C. Adamo, J. Jaramillo, R. Gomperts, R. E. Stratmann, 
 O. Yazyev, A. J. Austin, R. Cammi, C. Pomelli, J. W. Ochterski, 
 R. L. Martin, K. Morokuma, V. G. Zakrzewski, G. A. Voth, 
 P. Salvador, J. J. Dannenberg, S. Dapprich, A. D. Daniels, 
 O. Farkas, J. B. Foresman, J. V. Ortiz, J. Cioslowski, 
 and D. J. Fox, Gaussian, Inc., Wallingford CT, 2009.
 
 ******************************************
 Gaussian 09:  IA32W-G09RevA.02 11-Jun-2009
                02-Feb-2021 
 ******************************************
 %chk=D:\Documents\rayGit\FQ\quimicaComputacional\proyecto\decompositionHydrogenP
 eroxide\decompositionCatalyzedByIodine\step1\ts\ts.chk
 %mem=1500MB
 %nprocshared=4
 Will use up to    4 processors via shared memory.
 ----------------------------------------------------------------------
 # opt=(readfc,ts,noeigen) geom=check guess=check freq=noraman lanl2dz 
 scrf=smd iop(1/8=3) m062x
 ----------------------------------------------------------------------
 1/5=1,8=3,10=3,11=1,14=-1,18=20,26=3,29=2,38=1/1,3;
 2/9=110,12=2,40=1/2;
 3/5=6,6=3,11=2,14=-4,16=1,25=1,30=1,70=32201,71=1,72=1,74=-55,116=-2/1,2,3;
 4/5=1/1;
 5/5=2,38=6/2;
 6/7=2,8=2,9=2,10=2,28=1/1;
 7//1,2,3,16;
 1/5=1,8=3,11=1,14=-1,18=20/3(2);
 2/9=110/2;
 99//99;
 2/9=110/2;
 3/5=6,6=3,11=2,14=-2,16=1,25=1,30=1,70=32205,71=1,74=-55/1,2,3;
 4/5=5,16=3/1;
 5/5=2,38=5/2;
 7//1,2,3,16;
 1/5=1,8=3,11=1,14=-1,18=20/3(-5);
 2/9=110/2;
 6/7=2,8=2,9=2,10=2,19=2,28=1/1;
 99/9=1/99;
 -------------------------------
 Hydrogen peroxide with iodine 2
 -------------------------------
 Redundant internal coordinates taken from checkpoint file:
 D:\Documents\rayGit\FQ\quimicaComputacional\proyecto\decompositionHydrogenPeroxide\decompositionCatalyzedByIodine\step1\ts\ts.chk
 Charge =  0 Multiplicity = 2
 O,0,-1.4948575611,0.7120943656,0.0039940233
 H,0,-0.07373302,0.7556463771,-0.8035722079
 O,0,0.6492298701,0.7025096345,0.3242830926
 H,0,1.0107646013,1.6019660579,0.3324002277
 I,0,-3.2939319502,0.6744402948,0.9102261343
 Recover connectivity data from disk.

 GradGradGradGradGradGradGradGradGradGradGradGradGradGradGradGradGradGrad
 Berny optimization.
 Initialization pass.
 Force constant matrix read from checkpoint file:
 D:\Documents\rayGit\FQ\quimicaComputacional\proyecto\decompositionHydrogenPeroxi
 de\decompositionCatalyzedByIodine\step1\ts\ts.chk
                           ----------------------------
                           !    Initial Parameters    !
                           ! (Angstroms and Degrees)  !
 --------------------------                            --------------------------
 ! Name  Definition              Value          Derivative Info.                !
 --------------------------------------------------------------------------------
 ! R1    R(1,2)                  1.6351         D2E/DX2 =   -0.0335             !
 ! R2    R(1,3)                  2.1679         D2E/DX2 =    0.0134             !
 ! R3    R(1,5)                  2.0148         D2E/DX2 =    0.1465             !
 ! R4    R(2,3)                  1.3407         D2E/DX2 =   -0.0125             !
 ! R5    R(3,4)                  0.9694         D2E/DX2 =    0.5864             !
 ! A1    A(2,1,5)              177.0925         D2E/DX2 =    0.0007             !
 ! A2    A(3,1,5)              144.7453         D2E/DX2 =   -0.0056             !
 ! A3    A(1,3,4)              111.4675         D2E/DX2 =   -0.0947             !
 ! A4    A(2,3,4)               99.8675         D2E/DX2 =   -0.1584             !
 ! D1    D(5,1,3,4)            -95.0977         D2E/DX2 =   -0.1325             !
 --------------------------------------------------------------------------------
 Trust Radius=3.00D-02 FncErr=1.00D-07 GrdErr=1.00D-06
 Number of steps in this run=  20 maximum allowed number of steps= 100.
 Search for a saddle point of order  1.
 GradGradGradGradGradGradGradGradGradGradGradGradGradGradGradGradGradGrad

                          Input orientation:                          
 ---------------------------------------------------------------------
 Center     Atomic      Atomic             Coordinates (Angstroms)
 Number     Number       Type             X           Y           Z
 ---------------------------------------------------------------------
      1          8           0       -1.494858    0.712094    0.003994
      2          1           0       -0.073733    0.755646   -0.803572
      3          8           0        0.649230    0.702510    0.324283
      4          1           0        1.010765    1.601966    0.332400
      5         53           0       -3.293932    0.674440    0.910226
 ---------------------------------------------------------------------
                    Distance matrix (angstroms):
                    1          2          3          4          5
     1  O    0.000000
     2  H    1.635131   0.000000
     3  O    2.167899   1.340730   0.000000
     4  H    2.679154   1.784047   0.969430   0.000000
     5  I    2.014781   3.648751   3.986558   4.441238   0.000000
 Stoichiometry    H2IO2(2)
 Framework group  C1[X(H2IO2)]
 Deg. of freedom     9
 Full point group                 C1      NOp   1
 Largest Abelian subgroup         C1      NOp   1
 Largest concise Abelian subgroup C1      NOp   1
                         Standard orientation:                         
 ---------------------------------------------------------------------
 Center     Atomic      Atomic             Coordinates (Angstroms)
 Number     Number       Type             X           Y           Z
 ---------------------------------------------------------------------
      1          8           0        1.170047    0.472889    0.009324
      2          1           0        2.728785    0.966168    0.035167
      3          8           0        3.199101   -0.280530   -0.113503
      4          1           0        3.579413   -0.420735    0.767123
      5         53           0       -0.778517   -0.039326    0.000587
 ---------------------------------------------------------------------
 Rotational constants (GHZ):     73.1911567      1.8013994      1.7673916
 Standard basis: LANL2DZ (5D, 7F)
 There are    30 symmetry adapted basis functions of A   symmetry.
 Integral buffers will be    262144 words long.
 Raffenetti 2 integral format.
 Two-electron integral symmetry is turned on.
    30 basis functions,    70 primitive gaussians,    30 cartesian basis functions
    13 alpha electrons       12 beta electrons
       nuclear repulsion energy        51.6034234770 Hartrees.
 NAtoms=    5 NActive=    5 NUniq=    5 SFac= 7.50D-01 NAtFMM=   80 NAOKFM=F Big=F
 ------------------------------------------------------------------------------
 Polarizable Continuum Model (PCM)
 =================================
 Model                : PCM.
 Atomic radii         : SMD-Coulomb.
 Polarization charges : Total charges.
 Charge compensation  : None.
 Solution method      : Matrix inversion.
 Cavity type          : VdW (van der Waals Surface) (Alpha=1.000).
 Cavity algorithm     : GePol (No added spheres)
                        Default sphere list used, NSphG=    5.
                        Lebedev-Laikov grids with approx.  5.0 points / Ang**2.
                        Smoothing algorithm: Karplus/York (Gamma=1.0000).
                        Polarization charges: spherical gaussians, with
                                              point-specific exponents (IZeta= 3).
                        Self-potential: point-specific (ISelfS= 7).
                        Self-field    : sphere-specific E.n sum rule (ISelfD= 2).
 1st derivatives      : Analytical E(r).r(x)/FMM algorithm (CHGder, D1EAlg=3).
                        Cavity 1st derivative terms included.
 Solvent              : Water, Eps=  78.355300 Eps(inf)=   1.777849
 ------------------------------------------------------------------------------
 Spheres list:
 ISph  on   Nord    Re0     Alpha      Xe            Ye            Ze
    1   O      1    1.520   1.000      1.170047      0.472889      0.009324
    2   H      2    1.200   1.000      2.728785      0.966168      0.035167
    3   O      3    1.520   1.000      3.199101     -0.280530     -0.113503
    4   H      4    1.200   1.000      3.579413     -0.420735      0.767123
    5   I      5    1.980   1.000     -0.778517     -0.039326      0.000587
 ------------------------------------------------------------------------------
 ------------------------------------------------------------------------------
 Atomic radii for non-electrostatic terms: SMD-CDS.
 ------------------------------------------------------------------------------
 Nuclear repulsion after PCM non-electrostatic terms =       51.6054683116 Hartrees.
 One-electron integrals computed using PRISM.
   1 Symmetry operations used in ECPInt.
 ECPInt:  NShTT=     171 NPrTT=    1054 LenC2=     172 LenP2D=     917.
 LDataN:  DoStor=T MaxTD1= 4 Len=   56
 NBasis=    30 RedAO= T  NBF=    30
 NBsUse=    30 1.00D-06 NBFU=    30
 Defaulting to unpruned grid for atomic number  53.
 Initial guess read from the checkpoint file:  D:\Documents\rayGit\FQ\quimicaComp
 utacional\proyecto\decompositionHydrogenPeroxide\decompositionCatalyzedByIodine\
 step1\ts\ts.chk
 B after Tr=     0.000000    0.000000    0.000000
         Rot=    1.000000    0.000000    0.000000    0.000000 Ang=   0.00 deg.
 Initial guess orbital symmetries:
 Alpha Orbitals:
       Occupied  (A) (A) (A) (A) (A) (A) (A) (A) (A) (A) (A) (A)
                 (A)
       Virtual   (A) (A) (A) (A) (A) (A) (A) (A) (A) (A) (A) (A)
                 (A) (A) (A) (A) (A)
 Beta  Orbitals:
       Occupied  (A) (A) (A) (A) (A) (A) (A) (A) (A) (A) (A) (A)
       Virtual   (A) (A) (A) (A) (A) (A) (A) (A) (A) (A) (A) (A)
                 (A) (A) (A) (A) (A) (A)
 Initial guess <Sx>= 0.0000 <Sy>= 0.0000 <Sz>= 0.5000 <S**2>= 0.7620 S= 0.5060
 Requested convergence on RMS density matrix=1.00D-08 within 128 cycles.
 Requested convergence on MAX density matrix=1.00D-06.
 Requested convergence on             energy=1.00D-06.
 No special actions if energy rises.
 Keep R1 and R2 ints in memory in canonical form, NReq=3539531.
 Defaulting to unpruned grid for atomic number  53.
 Defaulting to unpruned grid for atomic number  53.
 Defaulting to unpruned grid for atomic number  53.
 Defaulting to unpruned grid for atomic number  53.
 Error on total polarization charges =  0.06118
 SCF Done:  E(UM062X) =  -162.759106869     A.U. after    1 cycles
             Convg  =    0.5518D-09             -V/T =  2.0597
 <Sx>= 0.0000 <Sy>= 0.0000 <Sz>= 0.5000 <S**2>= 0.7620 S= 0.5060
 <L.S>= 0.000000000000E+00
 SMD-CDS (non-electrostatic) energy             (kcal/mol) =       1.28
 (included in total energy above)
 Annihilation of the first spin contaminant:
 S**2 before annihilation     0.7620,   after     0.7501

 **********************************************************************

            Population analysis using the SCF density.

 **********************************************************************

 Orbital symmetries:
 Alpha Orbitals:
       Occupied  (A) (A) (A) (A) (A) (A) (A) (A) (A) (A) (A) (A)
                 (A)
       Virtual   (A) (A) (A) (A) (A) (A) (A) (A) (A) (A) (A) (A)
                 (A) (A) (A) (A) (A)
 Beta  Orbitals:
       Occupied  (A) (A) (A) (A) (A) (A) (A) (A) (A) (A) (A) (A)
       Virtual   (A) (A) (A) (A) (A) (A) (A) (A) (A) (A) (A) (A)
                 (A) (A) (A) (A) (A) (A)
 The electronic state is 2-A.
 Alpha  occ. eigenvalues --  -19.70739 -19.63724  -1.11762  -1.07344  -0.74708
 Alpha  occ. eigenvalues --   -0.54950  -0.49580  -0.47759  -0.44565  -0.41037
 Alpha  occ. eigenvalues --   -0.36269  -0.32137  -0.31121
 Alpha virt. eigenvalues --   -0.05934   0.08303   0.19821   0.40761   0.41688
 Alpha virt. eigenvalues --    0.41944   0.63642   0.68620   0.74004   0.75120
 Alpha virt. eigenvalues --    0.84131   0.86903   1.03432   1.06593   1.28164
 Alpha virt. eigenvalues --    1.56338   9.13605
  Beta  occ. eigenvalues --  -19.69388 -19.63509  -1.08433  -1.03886  -0.73107
  Beta  occ. eigenvalues --   -0.53801  -0.46723  -0.42009  -0.39964  -0.37303
  Beta  occ. eigenvalues --   -0.32967  -0.30355
  Beta virt. eigenvalues --   -0.11101  -0.04288   0.08888   0.20003   0.40913
  Beta virt. eigenvalues --    0.41840   0.42097   0.64459   0.72604   0.74694
  Beta virt. eigenvalues --    0.77508   0.84595   0.87253   1.03635   1.07810
  Beta virt. eigenvalues --    1.31164   1.56720   9.13516
          Condensed to atoms (all electrons):
              1          2          3          4          5
     1  O    8.619744  -0.001280  -0.076675   0.001942   0.057678
     2  H   -0.001280   0.325561   0.224109  -0.014946   0.002022
     3  O   -0.076675   0.224109   8.410927   0.263296   0.006958
     4  H    0.001942  -0.014946   0.263296   0.331452  -0.000315
     5  I    0.057678   0.002022   0.006958  -0.000315   6.386739
 Mulliken atomic charges:
              1
     1  O   -0.601408
     2  H    0.464534
     3  O   -0.828615
     4  H    0.418571
     5  I    0.546918
 Sum of Mulliken atomic charges =   0.00000
 Mulliken charges with hydrogens summed into heavy atoms:
              1
     1  O   -0.601408
     3  O    0.054490
     5  I    0.546918
 Sum of Mulliken charges with hydrogens summed into heavy atoms =   0.00000
          Atomic-Atomic Spin Densities.
              1          2          3          4          5
     1  O    0.897295  -0.007162  -0.038289   0.001071  -0.072893
     2  H   -0.007162  -0.003204   0.003436  -0.000373   0.000311
     3  O   -0.038289   0.003436   0.105479  -0.001465   0.001643
     4  H    0.001071  -0.000373  -0.001465  -0.000824  -0.000056
     5  I   -0.072893   0.000311   0.001643  -0.000056   0.228803
 Mulliken atomic spin densities:
              1
     1  O    0.780024
     2  H   -0.006991
     3  O    0.070804
     4  H   -0.001646
     5  I    0.157809
 Sum of Mulliken atomic spin densities =   1.00000
 Electronic spatial extent (au):  <R**2>=            503.3822
 Charge=              0.0000 electrons
 Dipole moment (field-independent basis, Debye):
    X=             -3.4026    Y=              1.2742    Z=              2.4886  Tot=              4.4039
 Quadrupole moment (field-independent basis, Debye-Ang):
   XX=            -30.4668   YY=            -30.3258   ZZ=            -32.3936
   XY=              5.2969   XZ=              8.8192   YZ=             -0.8552
 Traceless Quadrupole moment (field-independent basis, Debye-Ang):
   XX=              0.5953   YY=              0.7363   ZZ=             -1.3316
   XY=              5.2969   XZ=              8.8192   YZ=             -0.8552
 Octapole moment (field-independent basis, Debye-Ang**2):
  XXX=            -53.3964  YYY=              0.4909  ZZZ=              2.2287  XYY=             -9.3781
  XXY=             11.3280  XXZ=             31.5979  XZZ=            -10.3669  YZZ=             -1.1551
  YYZ=              0.9613  XYZ=             -3.2763
 Hexadecapole moment (field-independent basis, Debye-Ang**3):
 XXXX=           -562.5652 YYYY=            -54.5813 ZZZZ=            -47.5195 XXXY=             38.8345
 XXXZ=            114.6086 YYYX=              9.4926 YYYZ=             -0.4622 ZZZX=              7.9571
 ZZZY=             -0.8611 XXYY=            -91.2905 XXZZ=            -93.9186 YYZZ=            -17.5337
 XXYZ=            -11.6744 YYXZ=              3.2381 ZZXY=             -0.7004
 N-N= 5.160546831155D+01 E-N=-7.194823903009D+02  KE= 2.289998315318D+02
                          Isotropic Fermi Contact Couplings
        Atom                 a.u.       MegaHertz       Gauss      10(-4) cm-1
     1  O(17)              0.12499     -75.76604     -27.03521     -25.27283
     2  H(1)              -0.00184      -8.20725      -2.92855      -2.73764
     3  O(17)              0.05303     -32.14566     -11.47037     -10.72264
     4  H(1)              -0.00097      -4.35424      -1.55370      -1.45242
     5  I(127)             0.00000       0.00086       0.00031       0.00029
 --------------------------------------------------------
       Center         ----  Spin Dipole Couplings  ----
                      3XX-RR        3YY-RR        3ZZ-RR
 --------------------------------------------------------
     1   Atom       -0.771763      2.297984     -1.526221
     2   Atom        0.035496     -0.005883     -0.029613
     3   Atom        0.298962     -0.117696     -0.181267
     4   Atom        0.006058     -0.014240      0.008182
     5   Atom        0.011622      0.011599     -0.023221
 --------------------------------------------------------
                        XY            XZ            YZ
 --------------------------------------------------------
     1   Atom       -1.371543     -0.064713      0.168505
     2   Atom        0.015416      0.000635      0.001820
     3   Atom        0.128912     -0.078080     -0.022141
     4   Atom       -0.004761      0.013050     -0.005484
     5   Atom       -0.020525     -0.001030      0.001587
 --------------------------------------------------------


 ---------------------------------------------------------------------------------
              Anisotropic Spin Dipole Couplings in Principal Axis System
 ---------------------------------------------------------------------------------

       Atom             a.u.   MegaHertz   Gauss  10(-4) cm-1        Axes

              Baa    -1.5337   110.978    39.600    37.018  0.0162 -0.0381  0.9991
     1 O(17)  Bbb    -1.2953    93.725    33.444    31.263  0.9342  0.3567 -0.0015
              Bcc     2.8290  -204.703   -73.043   -68.282 -0.3563  0.9335  0.0414
 
              Baa    -0.0298   -15.877    -5.665    -5.296  0.0097 -0.0823  0.9966
     2 H(1)   Bbb    -0.0109    -5.800    -2.070    -1.935 -0.3155  0.9455  0.0811
              Bcc     0.0406    21.677     7.735     7.231  0.9489  0.3152  0.0167
 
              Baa    -0.1937    14.017     5.002     4.675  0.1462  0.0400  0.9884
     3 O(17)  Bbb    -0.1544    11.169     3.985     3.726 -0.2733  0.9619  0.0015
              Bcc     0.3481   -25.186    -8.987    -8.401  0.9508  0.2704 -0.1516
 
              Baa    -0.0157    -8.383    -2.991    -2.796  0.1182  0.9800  0.1604
     4 H(1)   Bbb    -0.0060    -3.185    -1.136    -1.062  0.7390  0.0211 -0.6734
              Bcc     0.0217    11.568     4.128     3.859  0.6632 -0.1981  0.7217
 
              Baa    -0.0233    -2.504    -0.893    -0.835  0.0042 -0.0430  0.9991
     5 I(127) Bbb    -0.0089    -0.957    -0.342    -0.319  0.7075  0.7062  0.0274
              Bcc     0.0322     3.461     1.235     1.154 -0.7067  0.7067  0.0334
 

 ---------------------------------------------------------------------------------

   1 Symmetry operations used in ECPInt.
 ECPInt:  NShTT=     171 NPrTT=    1054 LenC2=     172 LenP2D=     917.
 LDataN:  DoStor=T MaxTD1= 5 Len=  102
 D1PCM: PCM CHGder 1st derivatives, ID1Alg=3 FixD1E=F DoIter=F DoCFld=F I1PDM=0.
 Calling FoFJK, ICntrl=      2127 FMM=F ISym2X=0 I1Cent= 0 IOpClX= 1 NMat=1 NMatS=1 NMatT=0.
 Defaulting to unpruned grid for atomic number  53.
 Defaulting to unpruned grid for atomic number  53.
 Defaulting to unpruned grid for atomic number  53.
 Defaulting to unpruned grid for atomic number  53.
 ***** Axes restored to original set *****
 -------------------------------------------------------------------
 Center     Atomic                   Forces (Hartrees/Bohr)
 Number     Number              X              Y              Z
 -------------------------------------------------------------------
      1        8          -0.036389320    0.000430150   -0.007373381
      2        1           0.054692118   -0.007826645    0.096762717
      3        8          -0.033398493   -0.006502648   -0.091751859
      4        1           0.007499349    0.013723318    0.004498944
      5       53           0.007596347    0.000175824   -0.002136420
 -------------------------------------------------------------------
 Cartesian Forces:  Max     0.096762717 RMS     0.039747117

 GradGradGradGradGradGradGradGradGradGradGradGradGradGradGradGradGradGrad
 Berny optimization.
 Internal  Forces:  Max     0.103871304 RMS     0.035818219
 Search for a saddle point.
 Step number   1 out of a maximum of   20
 All quantities printed in internal units (Hartrees-Bohrs-Radians)
 Swaping is turned off.
 Second derivative matrix not updated -- first step.
 The second derivative matrix:
                          R1        R2        R3        R4        R5
           R1          -0.03353
           R2           0.00614   0.01339
           R3          -0.00408   0.02241   0.14647
           R4           0.01306   0.00300  -0.00612  -0.01251
           R5           0.00123   0.00556  -0.00106  -0.00065   0.58637
           A1           0.00038   0.00771   0.00317  -0.00236   0.00002
           A2           0.00424  -0.00164   0.00376   0.00312   0.00125
           A3           0.01116  -0.02388   0.00141   0.00027  -0.00472
           A4          -0.02140   0.02501   0.00156   0.01886   0.01200
           D1           0.01908  -0.01082  -0.00048  -0.00110   0.00032
                          A1        A2        A3        A4        D1
           A1           0.00067
           A2           0.00615  -0.00561
           A3           0.00246  -0.00567  -0.09474
           A4          -0.00240  -0.00111   0.15382  -0.15837
           D1          -0.00128  -0.00002  -0.12359   0.18839  -0.13248
     Eigenvalues ---   -0.44661  -0.03759  -0.01816  -0.00492   0.00553
     Eigenvalues ---    0.02339   0.05227   0.15069   0.586661000.00000
 Eigenvectors required to have negative eigenvalues:
                          A4        D1        A3        R2        R1
   1                    0.64107  -0.57644  -0.48554  -0.08759   0.07420
                          A1        A2        R4        R5        R3
   1                    0.06715   0.05592  -0.01012  -0.00918   0.00199
 RFO step:  Lambda0=2.673291429D-05 Lambda=-1.19292226D-01.
 Linear search not attempted -- option 19 set.
 Maximum step size (   0.030) exceeded in Quadratic search.
    -- Step size scaled by   0.026
 Iteration  1 RMS(Cart)=  0.00856798 RMS(Int)=  0.00001784
 Iteration  2 RMS(Cart)=  0.00001627 RMS(Int)=  0.00000789
 Iteration  3 RMS(Cart)=  0.00000000 RMS(Int)=  0.00000789
 Variable       Old X    -DE/DX   Delta X   Delta X   Delta X     New X
                                 (Linear)    (Quad)   (Total)
    R1        3.08995  -0.00505   0.00000   0.01755   0.01755   3.10750
    R2        4.09674   0.02910   0.00000   0.00621   0.00621   4.10295
    R3        3.80738  -0.00770   0.00000  -0.00143  -0.00143   3.80596
    R4        2.53361  -0.10387   0.00000  -0.02202  -0.02202   2.51159
    R5        1.83196   0.01561   0.00000   0.00048   0.00048   1.83244
    A1        3.09085   0.02340   0.00000   0.00155   0.00154   3.09238
    A2        2.52628   0.01646   0.00000   0.00655   0.00653   2.53281
    A3        1.94548   0.00024   0.00000   0.00454   0.00454   1.95002
    A4        1.74302   0.00655   0.00000   0.00071   0.00071   1.74372
    D1       -1.65977   0.00189   0.00000  -0.00019  -0.00019  -1.65996
         Item               Value     Threshold  Converged?
 Maximum Force            0.103871     0.000450     NO 
 RMS     Force            0.035818     0.000300     NO 
 Maximum Displacement     0.012924     0.001800     NO 
 RMS     Displacement     0.008561     0.001200     NO 
 Predicted change in Energy=-2.560534D-03
 GradGradGradGradGradGradGradGradGradGradGradGradGradGradGradGradGradGrad

                          Input orientation:                          
 ---------------------------------------------------------------------
 Center     Atomic      Atomic             Coordinates (Angstroms)
 Number     Number       Type             X           Y           Z
 ---------------------------------------------------------------------
      1          8           0       -1.499399    0.712085    0.007911
      2          1           0       -0.066894    0.757738   -0.798287
      3          8           0        0.649217    0.702844    0.320022
      4          1           0        1.014600    1.601014    0.328434
      5         53           0       -3.300052    0.672975    0.909252
 ---------------------------------------------------------------------
                    Distance matrix (angstroms):
                    1          2          3          4          5
     1  O    0.000000
     2  H    1.644418   0.000000
     3  O    2.171186   1.329076   0.000000
     4  H    2.685726   1.774893   0.969683   0.000000
     5  I    2.014025   3.657348   3.993095   4.451385   0.000000
 Stoichiometry    H2IO2(2)
 Framework group  C1[X(H2IO2)]
 Deg. of freedom     9
 Full point group                 C1      NOp   1
 Largest Abelian subgroup         C1      NOp   1
 Largest concise Abelian subgroup C1      NOp   1
                         Standard orientation:                         
 ---------------------------------------------------------------------
 Center     Atomic      Atomic             Coordinates (Angstroms)
 Number     Number       Type             X           Y           Z
 ---------------------------------------------------------------------
      1          8           0        1.169398    0.468433    0.009383
      2          1           0        2.738955    0.958231    0.035865
      3          8           0        3.204692   -0.277580   -0.113476
      4          1           0        3.589084   -0.418385    0.765559
      5         53           0       -0.779637   -0.038994    0.000591
 ---------------------------------------------------------------------
 Rotational constants (GHZ):     74.4451864      1.7957590      1.7626467
 Standard basis: LANL2DZ (5D, 7F)
 There are    30 symmetry adapted basis functions of A   symmetry.
 Integral buffers will be    262144 words long.
 Raffenetti 2 integral format.
 Two-electron integral symmetry is turned on.
    30 basis functions,    70 primitive gaussians,    30 cartesian basis functions
    13 alpha electrons       12 beta electrons
       nuclear repulsion energy        51.5784289590 Hartrees.
 NAtoms=    5 NActive=    5 NUniq=    5 SFac= 7.50D-01 NAtFMM=   80 NAOKFM=F Big=F
 ------------------------------------------------------------------------------
 Polarizable Continuum Model (PCM)
 =================================
 Model                : PCM.
 Atomic radii         : SMD-Coulomb.
 Polarization charges : Total charges.
 Charge compensation  : None.
 Solution method      : Matrix inversion.
 Cavity type          : VdW (van der Waals Surface) (Alpha=1.000).
 Cavity algorithm     : GePol (No added spheres)
                        Default sphere list used, NSphG=    5.
                        Lebedev-Laikov grids with approx.  5.0 points / Ang**2.
                        Smoothing algorithm: Karplus/York (Gamma=1.0000).
                        Polarization charges: spherical gaussians, with
                                              point-specific exponents (IZeta= 3).
                        Self-potential: point-specific (ISelfS= 7).
                        Self-field    : sphere-specific E.n sum rule (ISelfD= 2).
 1st derivatives      : Analytical E(r).r(x)/FMM algorithm (CHGder, D1EAlg=3).
                        Cavity 1st derivative terms included.
 Solvent              : Water, Eps=  78.355300 Eps(inf)=   1.777849
 ------------------------------------------------------------------------------
 Spheres list:
 ISph  on   Nord    Re0     Alpha      Xe            Ye            Ze
    1   O      1    1.520   1.000      1.169398      0.468433      0.009383
    2   H      2    1.200   1.000      2.738955      0.958231      0.035865
    3   O      3    1.520   1.000      3.204692     -0.277580     -0.113476
    4   H      4    1.200   1.000      3.589084     -0.418385      0.765559
    5   I      5    1.980   1.000     -0.779637     -0.038994      0.000591
 ------------------------------------------------------------------------------
 ------------------------------------------------------------------------------
 Atomic radii for non-electrostatic terms: SMD-CDS.
 ------------------------------------------------------------------------------
 Nuclear repulsion after PCM non-electrostatic terms =       51.5804713021 Hartrees.
 One-electron integrals computed using PRISM.
   1 Symmetry operations used in ECPInt.
 ECPInt:  NShTT=     171 NPrTT=    1054 LenC2=     172 LenP2D=     917.
 LDataN:  DoStor=T MaxTD1= 4 Len=   56
 NBasis=    30 RedAO= T  NBF=    30
 NBsUse=    30 1.00D-06 NBFU=    30
 Defaulting to unpruned grid for atomic number  53.
 Initial guess read from the read-write file.
 B after Tr=     0.000000    0.000000    0.000000
         Rot=    1.000000    0.000000    0.000000    0.000000 Ang=   0.00 deg.
 Initial guess orbital symmetries:
 Alpha Orbitals:
       Occupied  (A) (A) (A) (A) (A) (A) (A) (A) (A) (A) (A) (A)
                 (A)
       Virtual   (A) (A) (A) (A) (A) (A) (A) (A) (A) (A) (A) (A)
                 (A) (A) (A) (A) (A)
 Beta  Orbitals:
       Occupied  (A) (A) (A) (A) (A) (A) (A) (A) (A) (A) (A) (A)
       Virtual   (A) (A) (A) (A) (A) (A) (A) (A) (A) (A) (A) (A)
                 (A) (A) (A) (A) (A) (A)
 Initial guess <Sx>= 0.0000 <Sy>= 0.0000 <Sz>= 0.5000 <S**2>= 0.7620 S= 0.5060
 Requested convergence on RMS density matrix=1.00D-08 within 128 cycles.
 Requested convergence on MAX density matrix=1.00D-06.
 Requested convergence on             energy=1.00D-06.
 No special actions if energy rises.
 Keep R1 and R2 ints in memory in canonical form, NReq=3539531.
 Defaulting to unpruned grid for atomic number  53.
 Defaulting to unpruned grid for atomic number  53.
 Defaulting to unpruned grid for atomic number  53.
 Defaulting to unpruned grid for atomic number  53.
 Error on total polarization charges =  0.06116
 SCF Done:  E(UM062X) =  -162.761665023     A.U. after   17 cycles
             Convg  =    0.4869D-08             -V/T =  2.0597
 <Sx>= 0.0000 <Sy>= 0.0000 <Sz>= 0.5000 <S**2>= 0.7619 S= 0.5059
 <L.S>= 0.000000000000E+00
 SMD-CDS (non-electrostatic) energy             (kcal/mol) =       1.28
 (included in total energy above)
 Annihilation of the first spin contaminant:
 S**2 before annihilation     0.7619,   after     0.7501
   1 Symmetry operations used in ECPInt.
 ECPInt:  NShTT=     171 NPrTT=    1054 LenC2=     172 LenP2D=     917.
 LDataN:  DoStor=T MaxTD1= 5 Len=  102
 D1PCM: PCM CHGder 1st derivatives, ID1Alg=3 FixD1E=F DoIter=F DoCFld=F I1PDM=0.
 Calling FoFJK, ICntrl=      2127 FMM=F ISym2X=0 I1Cent= 0 IOpClX= 1 NMat=1 NMatS=1 NMatT=0.
 Defaulting to unpruned grid for atomic number  53.
 Defaulting to unpruned grid for atomic number  53.
 Defaulting to unpruned grid for atomic number  53.
 Defaulting to unpruned grid for atomic number  53.
 ***** Axes restored to original set *****
 -------------------------------------------------------------------
 Center     Atomic                   Forces (Hartrees/Bohr)
 Number     Number              X              Y              Z
 -------------------------------------------------------------------
      1        8          -0.036844957    0.000389333   -0.006755629
      2        1           0.055375784   -0.008166069    0.096751818
      3        8          -0.033700524   -0.005700251   -0.092451334
      4        1           0.007587094    0.013307187    0.004636175
      5       53           0.007582603    0.000169799   -0.002181030
 -------------------------------------------------------------------
 Cartesian Forces:  Max     0.096751818 RMS     0.039942714

 GradGradGradGradGradGradGradGradGradGradGradGradGradGradGradGradGradGrad
 Berny optimization.
 Internal  Forces:  Max     0.104340939 RMS     0.035920320
 Search for a saddle point.
 Step number   2 out of a maximum of   20
 All quantities printed in internal units (Hartrees-Bohrs-Radians)
 Swaping is turned off.
 Update second derivatives using D2CorX and points    1    2
 The second derivative matrix:
                          R1        R2        R3        R4        R5
           R1          -0.03171
           R2           0.00679   0.01362
           R3          -0.00446   0.02228   0.14654
           R4           0.01111   0.00231  -0.00571  -0.01043
           R5           0.00121   0.00555  -0.00105  -0.00063   0.58637
           A1           0.00095   0.00791   0.00306  -0.00298   0.00002
           A2           0.00505  -0.00135   0.00360   0.00224   0.00125
           A3           0.01174  -0.02368   0.00129  -0.00035  -0.00472
           A4          -0.02225   0.02471   0.00172   0.01980   0.01201
           D1           0.01947  -0.01068  -0.00056  -0.00153   0.00032
                          A1        A2        A3        A4        D1
           A1           0.00083
           A2           0.00640  -0.00525
           A3           0.00264  -0.00541  -0.09456
           A4          -0.00265  -0.00148   0.15355  -0.15802
           D1          -0.00117   0.00015  -0.12346   0.18823  -0.13241
     Eigenvalues ---   -0.44557  -0.03413  -0.01754  -0.00470   0.00560
     Eigenvalues ---    0.02362   0.05245   0.15072   0.586661000.00000
 Eigenvectors required to have negative eigenvalues:
                          A4        D1        A3        R2        R1
   1                    0.64029  -0.57615  -0.48494  -0.08790   0.07635
                          A1        A2        R4        R5        R3
   1                    0.07298   0.06195  -0.01080  -0.00919   0.00166
 RFO step:  Lambda0=3.065211740D-05 Lambda=-1.18202416D-01.
 Linear search not attempted -- option 19 set.
 Maximum step size (   0.030) exceeded in Quadratic search.
    -- Step size scaled by   0.026
 Iteration  1 RMS(Cart)=  0.00821004 RMS(Int)=  0.00001744
 Iteration  2 RMS(Cart)=  0.00001701 RMS(Int)=  0.00000728
 Iteration  3 RMS(Cart)=  0.00000000 RMS(Int)=  0.00000728
 Variable       Old X    -DE/DX   Delta X   Delta X   Delta X     New X
                                 (Linear)    (Quad)   (Total)
    R1        3.10750  -0.00437   0.00000   0.01923   0.01923   3.12673
    R2        4.10295   0.02906   0.00000   0.00565   0.00565   4.10860
    R3        3.80596  -0.00771   0.00000  -0.00121  -0.00121   3.80475
    R4        2.51159  -0.10434   0.00000  -0.02094  -0.02095   2.49064
    R5        1.83244   0.01526   0.00000   0.00048   0.00048   1.83292
    A1        3.09238   0.02322   0.00000   0.00175   0.00174   3.09412
    A2        2.53281   0.01649   0.00000   0.00577   0.00576   2.53857
    A3        1.95002   0.00051   0.00000   0.00462   0.00462   1.95464
    A4        1.74372   0.00669   0.00000   0.00051   0.00051   1.74424
    D1       -1.65996   0.00198   0.00000  -0.00004  -0.00004  -1.66000
         Item               Value     Threshold  Converged?
 Maximum Force            0.104341     0.000450     NO 
 RMS     Force            0.035920     0.000300     NO 
 Maximum Displacement     0.014057     0.001800     NO 
 RMS     Displacement     0.008203     0.001200     NO 
 Predicted change in Energy=-2.435482D-03
 GradGradGradGradGradGradGradGradGradGradGradGradGradGradGradGradGradGrad

                          Input orientation:                          
 ---------------------------------------------------------------------
 Center     Atomic      Atomic             Coordinates (Angstroms)
 Number     Number       Type             X           Y           Z
 ---------------------------------------------------------------------
      1          8           0       -1.503960    0.712036    0.011518
      2          1           0       -0.059455    0.759659   -0.793979
      3          8           0        0.648754    0.703233    0.316138
      4          1           0        1.018035    1.600081    0.324865
      5         53           0       -3.305903    0.671649    0.908791
 ---------------------------------------------------------------------
                    Distance matrix (angstroms):
                    1          2          3          4          5
     1  O    0.000000
     2  H    1.654596   0.000000
     3  O    2.174177   1.317992   0.000000
     4  H    2.692075   1.766099   0.969938   0.000000
     5  I    2.013387   3.666960   3.998943   4.460873   0.000000
 Stoichiometry    H2IO2(2)
 Framework group  C1[X(H2IO2)]
 Deg. of freedom     9
 Full point group                 C1      NOp   1
 Largest Abelian subgroup         C1      NOp   1
 Largest concise Abelian subgroup C1      NOp   1
                         Standard orientation:                         
 ---------------------------------------------------------------------
 Center     Atomic      Atomic             Coordinates (Angstroms)
 Number     Number       Type             X           Y           Z
 ---------------------------------------------------------------------
      1          8           0        1.168797    0.464510    0.009456
      2          1           0        2.749990    0.951113    0.036565
      3          8           0        3.209653   -0.274982   -0.113452
      4          1           0        3.598124   -0.416625    0.763935
      5         53           0       -0.780674   -0.038693    0.000594
 ---------------------------------------------------------------------
 Rotational constants (GHZ):     75.5797570      1.7906430      1.7583099
 Standard basis: LANL2DZ (5D, 7F)
 There are    30 symmetry adapted basis functions of A   symmetry.
 Integral buffers will be    262144 words long.
 Raffenetti 2 integral format.
 Two-electron integral symmetry is turned on.
    30 basis functions,    70 primitive gaussians,    30 cartesian basis functions
    13 alpha electrons       12 beta electrons
       nuclear repulsion energy        51.5539204308 Hartrees.
 NAtoms=    5 NActive=    5 NUniq=    5 SFac= 7.50D-01 NAtFMM=   80 NAOKFM=F Big=F
 ------------------------------------------------------------------------------
 Polarizable Continuum Model (PCM)
 =================================
 Model                : PCM.
 Atomic radii         : SMD-Coulomb.
 Polarization charges : Total charges.
 Charge compensation  : None.
 Solution method      : Matrix inversion.
 Cavity type          : VdW (van der Waals Surface) (Alpha=1.000).
 Cavity algorithm     : GePol (No added spheres)
                        Default sphere list used, NSphG=    5.
                        Lebedev-Laikov grids with approx.  5.0 points / Ang**2.
                        Smoothing algorithm: Karplus/York (Gamma=1.0000).
                        Polarization charges: spherical gaussians, with
                                              point-specific exponents (IZeta= 3).
                        Self-potential: point-specific (ISelfS= 7).
                        Self-field    : sphere-specific E.n sum rule (ISelfD= 2).
 1st derivatives      : Analytical E(r).r(x)/FMM algorithm (CHGder, D1EAlg=3).
                        Cavity 1st derivative terms included.
 Solvent              : Water, Eps=  78.355300 Eps(inf)=   1.777849
 ------------------------------------------------------------------------------
 Spheres list:
 ISph  on   Nord    Re0     Alpha      Xe            Ye            Ze
    1   O      1    1.520   1.000      1.168797      0.464510      0.009456
    2   H      2    1.200   1.000      2.749990      0.951113      0.036565
    3   O      3    1.520   1.000      3.209653     -0.274982     -0.113452
    4   H      4    1.200   1.000      3.598124     -0.416625      0.763935
    5   I      5    1.980   1.000     -0.780674     -0.038693      0.000594
 ------------------------------------------------------------------------------
 ------------------------------------------------------------------------------
 Atomic radii for non-electrostatic terms: SMD-CDS.
 ------------------------------------------------------------------------------
 Nuclear repulsion after PCM non-electrostatic terms =       51.5559610107 Hartrees.
 One-electron integrals computed using PRISM.
   1 Symmetry operations used in ECPInt.
 ECPInt:  NShTT=     171 NPrTT=    1054 LenC2=     172 LenP2D=     916.
 LDataN:  DoStor=T MaxTD1= 4 Len=   56
 NBasis=    30 RedAO= T  NBF=    30
 NBsUse=    30 1.00D-06 NBFU=    30
 Defaulting to unpruned grid for atomic number  53.
 Initial guess read from the read-write file.
 B after Tr=     0.000000    0.000000    0.000000
         Rot=    1.000000    0.000000    0.000000    0.000000 Ang=   0.00 deg.
 Initial guess orbital symmetries:
 Alpha Orbitals:
       Occupied  (A) (A) (A) (A) (A) (A) (A) (A) (A) (A) (A) (A)
                 (A)
       Virtual   (A) (A) (A) (A) (A) (A) (A) (A) (A) (A) (A) (A)
                 (A) (A) (A) (A) (A)
 Beta  Orbitals:
       Occupied  (A) (A) (A) (A) (A) (A) (A) (A) (A) (A) (A) (A)
       Virtual   (A) (A) (A) (A) (A) (A) (A) (A) (A) (A) (A) (A)
                 (A) (A) (A) (A) (A) (A)
 Initial guess <Sx>= 0.0000 <Sy>= 0.0000 <Sz>= 0.5000 <S**2>= 0.7619 S= 0.5059
 Requested convergence on RMS density matrix=1.00D-08 within 128 cycles.
 Requested convergence on MAX density matrix=1.00D-06.
 Requested convergence on             energy=1.00D-06.
 No special actions if energy rises.
 Keep R1 and R2 ints in memory in canonical form, NReq=3538179.
 Defaulting to unpruned grid for atomic number  53.
 Defaulting to unpruned grid for atomic number  53.
 Defaulting to unpruned grid for atomic number  53.
 Defaulting to unpruned grid for atomic number  53.
 Error on total polarization charges =  0.06113
 SCF Done:  E(UM062X) =  -162.764098638     A.U. after   16 cycles
             Convg  =    0.8418D-08             -V/T =  2.0597
 <Sx>= 0.0000 <Sy>= 0.0000 <Sz>= 0.5000 <S**2>= 0.7617 S= 0.5058
 <L.S>= 0.000000000000E+00
 SMD-CDS (non-electrostatic) energy             (kcal/mol) =       1.28
 (included in total energy above)
 Annihilation of the first spin contaminant:
 S**2 before annihilation     0.7617,   after     0.7501
   1 Symmetry operations used in ECPInt.
 ECPInt:  NShTT=     171 NPrTT=    1054 LenC2=     172 LenP2D=     916.
 LDataN:  DoStor=T MaxTD1= 5 Len=  102
 D1PCM: PCM CHGder 1st derivatives, ID1Alg=3 FixD1E=F DoIter=F DoCFld=F I1PDM=0.
 Calling FoFJK, ICntrl=      2127 FMM=F ISym2X=0 I1Cent= 0 IOpClX= 1 NMat=1 NMatS=1 NMatT=0.
 Defaulting to unpruned grid for atomic number  53.
 Defaulting to unpruned grid for atomic number  53.
 Defaulting to unpruned grid for atomic number  53.
 Defaulting to unpruned grid for atomic number  53.
 ***** Axes restored to original set *****
 -------------------------------------------------------------------
 Center     Atomic                   Forces (Hartrees/Bohr)
 Number     Number              X              Y              Z
 -------------------------------------------------------------------
      1        8          -0.037208672    0.000346790   -0.006189361
      2        1           0.055851718   -0.008483349    0.096755706
      3        8          -0.033865381   -0.004924007   -0.093137543
      4        1           0.007664605    0.012897178    0.004783047
      5       53           0.007557730    0.000163387   -0.002211848
 -------------------------------------------------------------------
 Cartesian Forces:  Max     0.096755706 RMS     0.040109577

 GradGradGradGradGradGradGradGradGradGradGradGradGradGradGradGradGradGrad
 Berny optimization.
 Internal  Forces:  Max     0.104720913 RMS     0.035992847
 Search for a saddle point.
 Step number   3 out of a maximum of   20
 All quantities printed in internal units (Hartrees-Bohrs-Radians)
 Swaping is turned off.
 Update second derivatives using D2CorX and points    1    2    3
 The second derivative matrix:
                          R1        R2        R3        R4        R5
           R1          -0.02946
           R2           0.00733   0.01375
           R3          -0.00493   0.02216   0.14664
           R4           0.00908   0.00182  -0.00527  -0.00861
           R5           0.00116   0.00554  -0.00104  -0.00058   0.58637
           A1           0.00158   0.00807   0.00293  -0.00356   0.00001
           A2           0.00598  -0.00113   0.00340   0.00141   0.00123
           A3           0.01226  -0.02355   0.00118  -0.00083  -0.00473
           A4          -0.02301   0.02452   0.00187   0.02049   0.01202
           D1           0.01970  -0.01062  -0.00060  -0.00174   0.00031
                          A1        A2        A3        A4        D1
           A1           0.00101
           A2           0.00666  -0.00487
           A3           0.00279  -0.00520  -0.09443
           A4          -0.00285  -0.00178   0.15338  -0.15780
           D1          -0.00111   0.00024  -0.12341   0.18816  -0.13239
     Eigenvalues ---   -0.44458  -0.03067  -0.01681  -0.00453   0.00567
     Eigenvalues ---    0.02382   0.05265   0.15076   0.586661000.00000
 Eigenvectors required to have negative eigenvalues:
                          A4        D1        A3        R2        A1
   1                    0.63941  -0.57574  -0.48436  -0.08862   0.07939
                          R1        A2        R4        R5        R3
   1                    0.07775   0.06840  -0.01033  -0.00920   0.00143
 RFO step:  Lambda0=3.253582414D-05 Lambda=-1.17257615D-01.
 Linear search not attempted -- option 19 set.
 Maximum step size (   0.030) exceeded in Quadratic search.
    -- Step size scaled by   0.030
 Iteration  1 RMS(Cart)=  0.00819608 RMS(Int)=  0.00001801
 Iteration  2 RMS(Cart)=  0.00001716 RMS(Int)=  0.00000785
 Iteration  3 RMS(Cart)=  0.00000001 RMS(Int)=  0.00000785
 Variable       Old X    -DE/DX   Delta X   Delta X   Delta X     New X
                                 (Linear)    (Quad)   (Total)
    R1        3.12673  -0.00374   0.00000   0.01933   0.01933   3.14606
    R2        4.10860   0.02899   0.00000   0.00613   0.00613   4.11473
    R3        3.80475  -0.00770   0.00000  -0.00119  -0.00119   3.80356
    R4        2.49064  -0.10472   0.00000  -0.02080  -0.02080   2.46984
    R5        1.83292   0.01492   0.00000   0.00056   0.00056   1.83348
    A1        3.09412   0.02302   0.00000   0.00208   0.00206   3.09618
    A2        2.53857   0.01645   0.00000   0.00540   0.00539   2.54396
    A3        1.95464   0.00077   0.00000   0.00458   0.00458   1.95921
    A4        1.74424   0.00681   0.00000   0.00028   0.00028   1.74452
    D1       -1.66000   0.00209   0.00000  -0.00014  -0.00014  -1.66014
         Item               Value     Threshold  Converged?
 Maximum Force            0.104721     0.000450     NO 
 RMS     Force            0.035993     0.000300     NO 
 Maximum Displacement     0.014132     0.001800     NO 
 RMS     Displacement     0.008190     0.001200     NO 
 Predicted change in Energy=-2.452585D-03
 GradGradGradGradGradGradGradGradGradGradGradGradGradGradGradGradGradGrad

                          Input orientation:                          
 ---------------------------------------------------------------------
 Center     Atomic      Atomic             Coordinates (Angstroms)
 Number     Number       Type             X           Y           Z
 ---------------------------------------------------------------------
      1          8           0       -1.508661    0.711940    0.014875
      2          1           0       -0.051976    0.761620   -0.789638
      3          8           0        0.648328    0.703601    0.312368
      4          1           0        1.021494    1.599159    0.321275
      5         53           0       -3.311712    0.670337    0.908450
 ---------------------------------------------------------------------
                    Distance matrix (angstroms):
                    1          2          3          4          5
     1  O    0.000000
     2  H    1.664824   0.000000
     3  O    2.177424   1.306985   0.000000
     4  H    2.698652   1.757253   0.970234   0.000000
     5  I    2.012759   3.676644   4.004789   4.470364   0.000000
 Stoichiometry    H2IO2(2)
 Framework group  C1[X(H2IO2)]
 Deg. of freedom     9
 Full point group                 C1      NOp   1
 Largest Abelian subgroup         C1      NOp   1
 Largest concise Abelian subgroup C1      NOp   1
                         Standard orientation:                         
 ---------------------------------------------------------------------
 Center     Atomic      Atomic             Coordinates (Angstroms)
 Number     Number       Type             X           Y           Z
 ---------------------------------------------------------------------
      1          8           0        1.168119    0.460905    0.009496
      2          1           0        2.761085    0.943945    0.037281
      3          8           0        3.214613   -0.272530   -0.113421
      4          1           0        3.607167   -0.414855    0.762364
      5         53           0       -0.781700   -0.038417    0.000599
 ---------------------------------------------------------------------
 Rotational constants (GHZ):     76.6683843      1.7855752      1.7539711
 Standard basis: LANL2DZ (5D, 7F)
 There are    30 symmetry adapted basis functions of A   symmetry.
 Integral buffers will be    262144 words long.
 Raffenetti 2 integral format.
 Two-electron integral symmetry is turned on.
    30 basis functions,    70 primitive gaussians,    30 cartesian basis functions
    13 alpha electrons       12 beta electrons
       nuclear repulsion energy        51.5277295074 Hartrees.
 NAtoms=    5 NActive=    5 NUniq=    5 SFac= 7.50D-01 NAtFMM=   80 NAOKFM=F Big=F
 ------------------------------------------------------------------------------
 Polarizable Continuum Model (PCM)
 =================================
 Model                : PCM.
 Atomic radii         : SMD-Coulomb.
 Polarization charges : Total charges.
 Charge compensation  : None.
 Solution method      : Matrix inversion.
 Cavity type          : VdW (van der Waals Surface) (Alpha=1.000).
 Cavity algorithm     : GePol (No added spheres)
                        Default sphere list used, NSphG=    5.
                        Lebedev-Laikov grids with approx.  5.0 points / Ang**2.
                        Smoothing algorithm: Karplus/York (Gamma=1.0000).
                        Polarization charges: spherical gaussians, with
                                              point-specific exponents (IZeta= 3).
                        Self-potential: point-specific (ISelfS= 7).
                        Self-field    : sphere-specific E.n sum rule (ISelfD= 2).
 1st derivatives      : Analytical E(r).r(x)/FMM algorithm (CHGder, D1EAlg=3).
                        Cavity 1st derivative terms included.
 Solvent              : Water, Eps=  78.355300 Eps(inf)=   1.777849
 ------------------------------------------------------------------------------
 Spheres list:
 ISph  on   Nord    Re0     Alpha      Xe            Ye            Ze
    1   O      1    1.520   1.000      1.168119      0.460905      0.009496
    2   H      2    1.200   1.000      2.761085      0.943945      0.037281
    3   O      3    1.520   1.000      3.214613     -0.272530     -0.113421
    4   H      4    1.200   1.000      3.607167     -0.414855      0.762364
    5   I      5    1.980   1.000     -0.781700     -0.038417      0.000599
 ------------------------------------------------------------------------------
 ------------------------------------------------------------------------------
 Atomic radii for non-electrostatic terms: SMD-CDS.
 ------------------------------------------------------------------------------
 Nuclear repulsion after PCM non-electrostatic terms =       51.5297680245 Hartrees.
 One-electron integrals computed using PRISM.
   1 Symmetry operations used in ECPInt.
 ECPInt:  NShTT=     171 NPrTT=    1054 LenC2=     172 LenP2D=     916.
 LDataN:  DoStor=T MaxTD1= 4 Len=   56
 NBasis=    30 RedAO= T  NBF=    30
 NBsUse=    30 1.00D-06 NBFU=    30
 Defaulting to unpruned grid for atomic number  53.
 Initial guess read from the read-write file.
 B after Tr=     0.000000    0.000000    0.000000
         Rot=    1.000000    0.000000    0.000000    0.000000 Ang=   0.00 deg.
 Initial guess orbital symmetries:
 Alpha Orbitals:
       Occupied  (A) (A) (A) (A) (A) (A) (A) (A) (A) (A) (A) (A)
                 (A)
       Virtual   (A) (A) (A) (A) (A) (A) (A) (A) (A) (A) (A) (A)
                 (A) (A) (A) (A) (A)
 Beta  Orbitals:
       Occupied  (A) (A) (A) (A) (A) (A) (A) (A) (A) (A) (A) (A)
       Virtual   (A) (A) (A) (A) (A) (A) (A) (A) (A) (A) (A) (A)
                 (A) (A) (A) (A) (A) (A)
 Initial guess <Sx>= 0.0000 <Sy>= 0.0000 <Sz>= 0.5000 <S**2>= 0.7617 S= 0.5058
 Requested convergence on RMS density matrix=1.00D-08 within 128 cycles.
 Requested convergence on MAX density matrix=1.00D-06.
 Requested convergence on             energy=1.00D-06.
 No special actions if energy rises.
 Keep R1 and R2 ints in memory in canonical form, NReq=3539441.
 Defaulting to unpruned grid for atomic number  53.
 Defaulting to unpruned grid for atomic number  53.
 Defaulting to unpruned grid for atomic number  53.
 Defaulting to unpruned grid for atomic number  53.
 Error on total polarization charges =  0.06111
 SCF Done:  E(UM062X) =  -162.766549249     A.U. after   16 cycles
             Convg  =    0.8385D-08             -V/T =  2.0597
 <Sx>= 0.0000 <Sy>= 0.0000 <Sz>= 0.5000 <S**2>= 0.7616 S= 0.5058
 <L.S>= 0.000000000000E+00
 SMD-CDS (non-electrostatic) energy             (kcal/mol) =       1.28
 (included in total energy above)
 Annihilation of the first spin contaminant:
 S**2 before annihilation     0.7616,   after     0.7501
   1 Symmetry operations used in ECPInt.
 ECPInt:  NShTT=     171 NPrTT=    1054 LenC2=     172 LenP2D=     916.
 LDataN:  DoStor=T MaxTD1= 5 Len=  102
 D1PCM: PCM CHGder 1st derivatives, ID1Alg=3 FixD1E=F DoIter=F DoCFld=F I1PDM=0.
 Calling FoFJK, ICntrl=      2127 FMM=F ISym2X=0 I1Cent= 0 IOpClX= 1 NMat=1 NMatS=1 NMatT=0.
 Defaulting to unpruned grid for atomic number  53.
 Defaulting to unpruned grid for atomic number  53.
 Defaulting to unpruned grid for atomic number  53.
 Defaulting to unpruned grid for atomic number  53.
 ***** Axes restored to original set *****
 -------------------------------------------------------------------
 Center     Atomic                   Forces (Hartrees/Bohr)
 Number     Number              X              Y              Z
 -------------------------------------------------------------------
      1        8          -0.037459532    0.000300875   -0.005666156
      2        1           0.056164207   -0.008816430    0.096692893
      3        8          -0.033965847   -0.004089477   -0.093730116
      4        1           0.007728474    0.012446881    0.004944394
      5       53           0.007532699    0.000158151   -0.002241014
 -------------------------------------------------------------------
 Cartesian Forces:  Max     0.096692893 RMS     0.040227439

 GradGradGradGradGradGradGradGradGradGradGradGradGradGradGradGradGradGrad
 Berny optimization.
 Internal  Forces:  Max     0.104976456 RMS     0.036024697
 Search for a saddle point.
 Step number   4 out of a maximum of   20
 All quantities printed in internal units (Hartrees-Bohrs-Radians)
 Swaping is turned off.
 Update second derivatives using D2CorX and points    1    2    3    4
 The second derivative matrix:
                          R1        R2        R3        R4        R5
           R1          -0.02749
           R2           0.00758   0.01376
           R3          -0.00519   0.02213   0.14668
           R4           0.00664   0.00149  -0.00499  -0.00556
           R5           0.00108   0.00552  -0.00103  -0.00049   0.58637
           A1           0.00217   0.00816   0.00284  -0.00424  -0.00001
           A2           0.00679  -0.00101   0.00329   0.00042   0.00119
           A3           0.01207  -0.02362   0.00118  -0.00061  -0.00474
           A4          -0.02288   0.02456   0.00189   0.02027   0.01203
           D1           0.01920  -0.01072  -0.00056  -0.00112   0.00032
                          A1        A2        A3        A4        D1
           A1           0.00117
           A2           0.00689  -0.00453
           A3           0.00279  -0.00525  -0.09450
           A4          -0.00286  -0.00176   0.15336  -0.15769
           D1          -0.00121   0.00006  -0.12342   0.18809  -0.13229
     Eigenvalues ---   -0.44312  -0.02797  -0.01545  -0.00375   0.00569
     Eigenvalues ---    0.02397   0.05295   0.15079   0.586661000.00000
 Eigenvectors required to have negative eigenvalues:
                          A4        D1        A3        R2        A1
   1                    0.63834  -0.57504  -0.48412  -0.09043   0.08756
                          A2        R1        R5        R4        R3
   1                    0.07594   0.07585  -0.00919  -0.00569   0.00153
 RFO step:  Lambda0=2.647689668D-05 Lambda=-1.15745474D-01.
 Linear search not attempted -- option 19 set.
 Maximum step size (   0.030) exceeded in Quadratic search.
    -- Step size scaled by   0.042
 Iteration  1 RMS(Cart)=  0.01000850 RMS(Int)=  0.00002259
 Iteration  2 RMS(Cart)=  0.00001961 RMS(Int)=  0.00001000
 Iteration  3 RMS(Cart)=  0.00000000 RMS(Int)=  0.00001000
 Variable       Old X    -DE/DX   Delta X   Delta X   Delta X     New X
                                 (Linear)    (Quad)   (Total)
    R1        3.14606  -0.00321   0.00000   0.01444   0.01444   3.16050
    R2        4.11473   0.02890   0.00000   0.01045   0.01045   4.12519
    R3        3.80356  -0.00770   0.00000  -0.00198  -0.00198   3.80158
    R4        2.46984  -0.10498   0.00000  -0.02219  -0.02220   2.44764
    R5        1.83348   0.01454   0.00000   0.00077   0.00077   1.83425
    A1        3.09618   0.02279   0.00000   0.00117   0.00115   3.09733
    A2        2.54396   0.01638   0.00000   0.00763   0.00761   2.55156
    A3        1.95921   0.00107   0.00000   0.00474   0.00473   1.96395
    A4        1.74452   0.00690   0.00000  -0.00004  -0.00003   1.74448
    D1       -1.66014   0.00226   0.00000  -0.00182  -0.00182  -1.66196
         Item               Value     Threshold  Converged?
 Maximum Force            0.104976     0.000450     NO 
 RMS     Force            0.036025     0.000300     NO 
 Maximum Displacement     0.014122     0.001800     NO 
 RMS     Displacement     0.010001     0.001200     NO 
 Predicted change in Energy=-2.769276D-03
 GradGradGradGradGradGradGradGradGradGradGradGradGradGradGradGradGradGrad

                          Input orientation:                          
 ---------------------------------------------------------------------
 Center     Atomic      Atomic             Coordinates (Angstroms)
 Number     Number       Type             X           Y           Z
 ---------------------------------------------------------------------
      1          8           0       -1.513882    0.711759    0.019200
      2          1           0       -0.046856    0.764501   -0.782165
      3          8           0        0.649866    0.703872    0.308037
      4          1           0        1.027231    1.598119    0.315893
      5         53           0       -3.318887    0.668406    0.906366
 ---------------------------------------------------------------------
                    Distance matrix (angstroms):
                    1          2          3          4          5
     1  O    0.000000
     2  H    1.672463   0.000000
     3  O    2.182956   1.295236   0.000000
     4  H    2.707567   1.747659   0.970641   0.000000
     5  I    2.011712   3.683281   4.013758   4.483500   0.000000
 Stoichiometry    H2IO2(2)
 Framework group  C1[X(H2IO2)]
 Deg. of freedom     9
 Full point group                 C1      NOp   1
 Largest Abelian subgroup         C1      NOp   1
 Largest concise Abelian subgroup C1      NOp   1
                         Standard orientation:                         
 ---------------------------------------------------------------------
 Center     Atomic      Atomic             Coordinates (Angstroms)
 Number     Number       Type             X           Y           Z
 ---------------------------------------------------------------------
      1          8           0        1.167015    0.455866    0.009248
      2          1           0        2.769215    0.934676    0.038063
      3          8           0        3.222380   -0.269222   -0.113286
      4          1           0        3.619770   -0.410021    0.761014
      5         53           0       -0.783097   -0.038072    0.000627
 ---------------------------------------------------------------------
 Rotational constants (GHZ):     78.2090714      1.7783095      1.7477145
 Standard basis: LANL2DZ (5D, 7F)
 There are    30 symmetry adapted basis functions of A   symmetry.
 Integral buffers will be    262144 words long.
 Raffenetti 2 integral format.
 Two-electron integral symmetry is turned on.
    30 basis functions,    70 primitive gaussians,    30 cartesian basis functions
    13 alpha electrons       12 beta electrons
       nuclear repulsion energy        51.4876199227 Hartrees.
 NAtoms=    5 NActive=    5 NUniq=    5 SFac= 7.50D-01 NAtFMM=   80 NAOKFM=F Big=F
 ------------------------------------------------------------------------------
 Polarizable Continuum Model (PCM)
 =================================
 Model                : PCM.
 Atomic radii         : SMD-Coulomb.
 Polarization charges : Total charges.
 Charge compensation  : None.
 Solution method      : Matrix inversion.
 Cavity type          : VdW (van der Waals Surface) (Alpha=1.000).
 Cavity algorithm     : GePol (No added spheres)
                        Default sphere list used, NSphG=    5.
                        Lebedev-Laikov grids with approx.  5.0 points / Ang**2.
                        Smoothing algorithm: Karplus/York (Gamma=1.0000).
                        Polarization charges: spherical gaussians, with
                                              point-specific exponents (IZeta= 3).
                        Self-potential: point-specific (ISelfS= 7).
                        Self-field    : sphere-specific E.n sum rule (ISelfD= 2).
 1st derivatives      : Analytical E(r).r(x)/FMM algorithm (CHGder, D1EAlg=3).
                        Cavity 1st derivative terms included.
 Solvent              : Water, Eps=  78.355300 Eps(inf)=   1.777849
 ------------------------------------------------------------------------------
 Spheres list:
 ISph  on   Nord    Re0     Alpha      Xe            Ye            Ze
    1   O      1    1.520   1.000      1.167015      0.455866      0.009248
    2   H      2    1.200   1.000      2.769215      0.934676      0.038063
    3   O      3    1.520   1.000      3.222380     -0.269222     -0.113286
    4   H      4    1.200   1.000      3.619770     -0.410021      0.761014
    5   I      5    1.980   1.000     -0.783097     -0.038072      0.000627
 ------------------------------------------------------------------------------
 ------------------------------------------------------------------------------
 Atomic radii for non-electrostatic terms: SMD-CDS.
 ------------------------------------------------------------------------------
 Nuclear repulsion after PCM non-electrostatic terms =       51.4896524152 Hartrees.
 One-electron integrals computed using PRISM.
   1 Symmetry operations used in ECPInt.
 ECPInt:  NShTT=     171 NPrTT=    1054 LenC2=     172 LenP2D=     916.
 LDataN:  DoStor=T MaxTD1= 4 Len=   56
 NBasis=    30 RedAO= T  NBF=    30
 NBsUse=    30 1.00D-06 NBFU=    30
 Defaulting to unpruned grid for atomic number  53.
 Initial guess read from the read-write file.
 B after Tr=     0.000000    0.000000    0.000000
         Rot=    1.000000    0.000000    0.000000    0.000000 Ang=   0.00 deg.
 Initial guess orbital symmetries:
 Alpha Orbitals:
       Occupied  (A) (A) (A) (A) (A) (A) (A) (A) (A) (A) (A) (A)
                 (A)
       Virtual   (A) (A) (A) (A) (A) (A) (A) (A) (A) (A) (A) (A)
                 (A) (A) (A) (A) (A)
 Beta  Orbitals:
       Occupied  (A) (A) (A) (A) (A) (A) (A) (A) (A) (A) (A) (A)
       Virtual   (A) (A) (A) (A) (A) (A) (A) (A) (A) (A) (A) (A)
                 (A) (A) (A) (A) (A) (A)
 Initial guess <Sx>= 0.0000 <Sy>= 0.0000 <Sz>= 0.5000 <S**2>= 0.7616 S= 0.5058
 Requested convergence on RMS density matrix=1.00D-08 within 128 cycles.
 Requested convergence on MAX density matrix=1.00D-06.
 Requested convergence on             energy=1.00D-06.
 No special actions if energy rises.
 Keep R1 and R2 ints in memory in canonical form, NReq=3538149.
 Defaulting to unpruned grid for atomic number  53.
 Defaulting to unpruned grid for atomic number  53.
 Defaulting to unpruned grid for atomic number  53.
 Defaulting to unpruned grid for atomic number  53.
 Error on total polarization charges =  0.06106
 SCF Done:  E(UM062X) =  -162.769314326     A.U. after   17 cycles
             Convg  =    0.3956D-08             -V/T =  2.0597
 <Sx>= 0.0000 <Sy>= 0.0000 <Sz>= 0.5000 <S**2>= 0.7614 S= 0.5057
 <L.S>= 0.000000000000E+00
 SMD-CDS (non-electrostatic) energy             (kcal/mol) =       1.28
 (included in total energy above)
 Annihilation of the first spin contaminant:
 S**2 before annihilation     0.7614,   after     0.7501
   1 Symmetry operations used in ECPInt.
 ECPInt:  NShTT=     171 NPrTT=    1054 LenC2=     172 LenP2D=     916.
 LDataN:  DoStor=T MaxTD1= 5 Len=  102
 D1PCM: PCM CHGder 1st derivatives, ID1Alg=3 FixD1E=F DoIter=F DoCFld=F I1PDM=0.
 Calling FoFJK, ICntrl=      2127 FMM=F ISym2X=0 I1Cent= 0 IOpClX= 1 NMat=1 NMatS=1 NMatT=0.
 Defaulting to unpruned grid for atomic number  53.
 Defaulting to unpruned grid for atomic number  53.
 Defaulting to unpruned grid for atomic number  53.
 Defaulting to unpruned grid for atomic number  53.
 ***** Axes restored to original set *****
 -------------------------------------------------------------------
 Center     Atomic                   Forces (Hartrees/Bohr)
 Number     Number              X              Y              Z
 -------------------------------------------------------------------
      1        8          -0.037562051    0.000234016   -0.005147935
      2        1           0.056611115   -0.009281861    0.096278975
      3        8          -0.034383578   -0.002977850   -0.093937063
      4        1           0.007799585    0.011861738    0.005107155
      5       53           0.007534929    0.000163956   -0.002301132
 -------------------------------------------------------------------
 Cartesian Forces:  Max     0.096278975 RMS     0.040251758

 GradGradGradGradGradGradGradGradGradGradGradGradGradGradGradGradGradGrad
 Berny optimization.
 Internal  Forces:  Max     0.105025300 RMS     0.035990471
 Search for a saddle point.
 Step number   5 out of a maximum of   20
 All quantities printed in internal units (Hartrees-Bohrs-Radians)
 Swaping is turned off.
 Update second derivatives using D2CorX and points    1    2    3    4    5
 The second derivative matrix:
                          R1        R2        R3        R4        R5
           R1          -0.02897
           R2           0.00768   0.01404
           R3          -0.00465   0.02228   0.14659
           R4           0.00553  -0.00005  -0.00546   0.00134
           R5           0.00094   0.00545  -0.00102  -0.00024   0.58637
           A1           0.00182   0.00818   0.00295  -0.00438  -0.00004
           A2           0.00681  -0.00066   0.00348  -0.00128   0.00112
           A3           0.01086  -0.02413   0.00133   0.00112  -0.00474
           A4          -0.02199   0.02497   0.00182   0.01871   0.01201
           D1           0.01850  -0.01117  -0.00057   0.00066   0.00036
                          A1        A2        A3        A4        D1
           A1           0.00109
           A2           0.00687  -0.00416
           A3           0.00256  -0.00582  -0.09462
           A4          -0.00269  -0.00128   0.15334  -0.15757
           D1          -0.00133  -0.00044  -0.12321   0.18785  -0.13193
     Eigenvalues ---   -0.44067  -0.02941  -0.01313  -0.00011   0.00559
     Eigenvalues ---    0.02449   0.05357   0.15079   0.586661000.00000
 Eigenvectors required to have negative eigenvalues:
                          A4        D1        A3        A1        R2
   1                    0.63695  -0.57391  -0.48380   0.09781  -0.09413
                          A2        R1        R5        R4        R3
   1                    0.08417   0.07242  -0.00913   0.00421   0.00174
 RFO step:  Lambda0=1.310872735D-05 Lambda=-1.12230315D-01.
 Linear search not attempted -- option 19 set.
 Maximum step size (   0.030) exceeded in Quadratic search.
    -- Step size scaled by   0.044
 Iteration  1 RMS(Cart)=  0.01293139 RMS(Int)=  0.00004286
 Iteration  2 RMS(Cart)=  0.00004701 RMS(Int)=  0.00000647
 Iteration  3 RMS(Cart)=  0.00000001 RMS(Int)=  0.00000647
 Variable       Old X    -DE/DX   Delta X   Delta X   Delta X     New X
                                 (Linear)    (Quad)   (Total)
    R1        3.16050  -0.00283   0.00000   0.00966   0.00966   3.17016
    R2        4.12519   0.02877   0.00000   0.01537   0.01537   4.14056
    R3        3.80158  -0.00773   0.00000  -0.00287  -0.00287   3.79871
    R4        2.44764  -0.10503   0.00000  -0.01960  -0.01960   2.42804
    R5        1.83425   0.01402   0.00000   0.00077   0.00077   1.83502
    A1        3.09733   0.02252   0.00000  -0.00181  -0.00182   3.09551
    A2        2.55156   0.01631   0.00000   0.01086   0.01084   2.56241
    A3        1.96395   0.00146   0.00000   0.00567   0.00567   1.96962
    A4        1.74448   0.00699   0.00000  -0.00033  -0.00032   1.74416
    D1       -1.66196   0.00248   0.00000  -0.00491  -0.00491  -1.66688
         Item               Value     Threshold  Converged?
 Maximum Force            0.105025     0.000450     NO 
 RMS     Force            0.035990     0.000300     NO 
 Maximum Displacement     0.018307     0.001800     NO 
 RMS     Displacement     0.012923     0.001200     NO 
 Predicted change in Energy=-2.637784D-03
 GradGradGradGradGradGradGradGradGradGradGradGradGradGradGradGradGradGrad

                          Input orientation:                          
 ---------------------------------------------------------------------
 Center     Atomic      Atomic             Coordinates (Angstroms)
 Number     Number       Type             X           Y           Z
 ---------------------------------------------------------------------
      1          8           0       -1.519557    0.711584    0.025525
      2          1           0       -0.045029    0.768328   -0.772477
      3          8           0        0.653772    0.704339    0.303839
      4          1           0        1.036326    1.596845    0.308482
      5         53           0       -3.328040    0.665560    0.901963
 ---------------------------------------------------------------------
                    Distance matrix (angstroms):
                    1          2          3          4          5
     1  O    0.000000
     2  H    1.677576   0.000000
     3  O    2.191089   1.284862   0.000000
     4  H    2.719613   1.739034   0.971049   0.000000
     5  I    2.010192   3.686797   4.026671   4.501911   0.000000
 Stoichiometry    H2IO2(2)
 Framework group  C1[X(H2IO2)]
 Deg. of freedom     9
 Full point group                 C1      NOp   1
 Largest Abelian subgroup         C1      NOp   1
 Largest concise Abelian subgroup C1      NOp   1
                         Standard orientation:                         
 ---------------------------------------------------------------------
 Center     Atomic      Atomic             Coordinates (Angstroms)
 Number     Number       Type             X           Y           Z
 ---------------------------------------------------------------------
      1          8           0        1.165530    0.448477    0.008579
      2          1           0        2.773680    0.925152    0.038478
      3          8           0        3.233647   -0.264965   -0.112921
      4          1           0        3.637607   -0.400675    0.759624
      5         53           0       -0.784994   -0.037596    0.000691
 ---------------------------------------------------------------------
 Rotational constants (GHZ):     80.4092867      1.7682283      1.7389944
 Standard basis: LANL2DZ (5D, 7F)
 There are    30 symmetry adapted basis functions of A   symmetry.
 Integral buffers will be    262144 words long.
 Raffenetti 2 integral format.
 Two-electron integral symmetry is turned on.
    30 basis functions,    70 primitive gaussians,    30 cartesian basis functions
    13 alpha electrons       12 beta electrons
       nuclear repulsion energy        51.4245750713 Hartrees.
 NAtoms=    5 NActive=    5 NUniq=    5 SFac= 7.50D-01 NAtFMM=   80 NAOKFM=F Big=F
 ------------------------------------------------------------------------------
 Polarizable Continuum Model (PCM)
 =================================
 Model                : PCM.
 Atomic radii         : SMD-Coulomb.
 Polarization charges : Total charges.
 Charge compensation  : None.
 Solution method      : Matrix inversion.
 Cavity type          : VdW (van der Waals Surface) (Alpha=1.000).
 Cavity algorithm     : GePol (No added spheres)
                        Default sphere list used, NSphG=    5.
                        Lebedev-Laikov grids with approx.  5.0 points / Ang**2.
                        Smoothing algorithm: Karplus/York (Gamma=1.0000).
                        Polarization charges: spherical gaussians, with
                                              point-specific exponents (IZeta= 3).
                        Self-potential: point-specific (ISelfS= 7).
                        Self-field    : sphere-specific E.n sum rule (ISelfD= 2).
 1st derivatives      : Analytical E(r).r(x)/FMM algorithm (CHGder, D1EAlg=3).
                        Cavity 1st derivative terms included.
 Solvent              : Water, Eps=  78.355300 Eps(inf)=   1.777849
 ------------------------------------------------------------------------------
 Spheres list:
 ISph  on   Nord    Re0     Alpha      Xe            Ye            Ze
    1   O      1    1.520   1.000      1.165530      0.448477      0.008579
    2   H      2    1.200   1.000      2.773680      0.925152      0.038478
    3   O      3    1.520   1.000      3.233647     -0.264965     -0.112921
    4   H      4    1.200   1.000      3.637607     -0.400675      0.759624
    5   I      5    1.980   1.000     -0.784994     -0.037596      0.000691
 ------------------------------------------------------------------------------
 ------------------------------------------------------------------------------
 Atomic radii for non-electrostatic terms: SMD-CDS.
 ------------------------------------------------------------------------------
 Nuclear repulsion after PCM non-electrostatic terms =       51.4265976780 Hartrees.
 One-electron integrals computed using PRISM.
   1 Symmetry operations used in ECPInt.
 ECPInt:  NShTT=     171 NPrTT=    1054 LenC2=     172 LenP2D=     916.
 LDataN:  DoStor=T MaxTD1= 4 Len=   56
 NBasis=    30 RedAO= T  NBF=    30
 NBsUse=    30 1.00D-06 NBFU=    30
 Defaulting to unpruned grid for atomic number  53.
 Initial guess read from the read-write file.
 B after Tr=     0.000000    0.000000    0.000000
         Rot=    1.000000    0.000000    0.000000    0.000000 Ang=   0.00 deg.
 Initial guess orbital symmetries:
 Alpha Orbitals:
       Occupied  (A) (A) (A) (A) (A) (A) (A) (A) (A) (A) (A) (A)
                 (A)
       Virtual   (A) (A) (A) (A) (A) (A) (A) (A) (A) (A) (A) (A)
                 (A) (A) (A) (A) (A)
 Beta  Orbitals:
       Occupied  (A) (A) (A) (A) (A) (A) (A) (A) (A) (A) (A) (A)
       Virtual   (A) (A) (A) (A) (A) (A) (A) (A) (A) (A) (A) (A)
                 (A) (A) (A) (A) (A) (A)
 Initial guess <Sx>= 0.0000 <Sy>= 0.0000 <Sz>= 0.5000 <S**2>= 0.7614 S= 0.5057
 Requested convergence on RMS density matrix=1.00D-08 within 128 cycles.
 Requested convergence on MAX density matrix=1.00D-06.
 Requested convergence on             energy=1.00D-06.
 No special actions if energy rises.
 Keep R1 and R2 ints in memory in canonical form, NReq=3538149.
 Defaulting to unpruned grid for atomic number  53.
 Defaulting to unpruned grid for atomic number  53.
 Defaulting to unpruned grid for atomic number  53.
 Defaulting to unpruned grid for atomic number  53.
 Error on total polarization charges =  0.06100
 SCF Done:  E(UM062X) =  -162.771945322     A.U. after   17 cycles
             Convg  =    0.3339D-08             -V/T =  2.0596
 <Sx>= 0.0000 <Sy>= 0.0000 <Sz>= 0.5000 <S**2>= 0.7612 S= 0.5056
 <L.S>= 0.000000000000E+00
 SMD-CDS (non-electrostatic) energy             (kcal/mol) =       1.27
 (included in total energy above)
 Annihilation of the first spin contaminant:
 S**2 before annihilation     0.7612,   after     0.7501
   1 Symmetry operations used in ECPInt.
 ECPInt:  NShTT=     171 NPrTT=    1054 LenC2=     172 LenP2D=     916.
 LDataN:  DoStor=T MaxTD1= 5 Len=  102
[...]
 Atomic radii for non-electrostatic terms: SMD-CDS.
 ------------------------------------------------------------------------------
 Nuclear repulsion after PCM non-electrostatic terms =       51.1078520448 Hartrees.
 One-electron integrals computed using PRISM.
   1 Symmetry operations used in ECPInt.
 ECPInt:  NShTT=     171 NPrTT=    1054 LenC2=     172 LenP2D=     909.
 LDataN:  DoStor=T MaxTD1= 4 Len=   56
 NBasis=    30 RedAO= T  NBF=    30
 NBsUse=    30 1.00D-06 NBFU=    30
 Defaulting to unpruned grid for atomic number  53.
 Initial guess read from the read-write file.
 B after Tr=     0.000000    0.000000    0.000000
         Rot=    1.000000    0.000000    0.000000    0.000000 Ang=   0.00 deg.
 Initial guess orbital symmetries:
 Alpha Orbitals:
       Occupied  (A) (A) (A) (A) (A) (A) (A) (A) (A) (A) (A) (A)
                 (A)
       Virtual   (A) (A) (A) (A) (A) (A) (A) (A) (A) (A) (A) (A)
                 (A) (A) (A) (A) (A)
 Beta  Orbitals:
       Occupied  (A) (A) (A) (A) (A) (A) (A) (A) (A) (A) (A) (A)
       Virtual   (A) (A) (A) (A) (A) (A) (A) (A) (A) (A) (A) (A)
                 (A) (A) (A) (A) (A) (A)
 Initial guess <Sx>= 0.0000 <Sy>= 0.0000 <Sz>= 0.5000 <S**2>= 0.7584 S= 0.5042
 Harris functional with IExCor= 1009 diagonalized for initial guess.
 ExpMin= 1.05D-01 ExpMax= 7.82D+03 ExpMxC= 2.73D+02 IAcc=1 IRadAn=         1 AccDes= 0.00D+00
 HarFok:  IExCor= 1009 AccDes= 0.00D+00 IRadAn=         1 IDoV= 1
 ScaDFX=  1.000000  1.000000  1.000000  1.000000
 Defaulting to unpruned grid for atomic number  53.
 Defaulting to unpruned grid for atomic number  53.
 Defaulting to unpruned grid for atomic number  53.
 Defaulting to unpruned grid for atomic number  53.
 FoFCou: FMM=F IPFlag=           0 FMFlag=      100000 FMFlg1=           0
         NFxFlg=           0 DoJE=T BraDBF=F KetDBF=T FulRan=T
         Omega=  0.000000  0.000000  1.000000  0.000000  0.000000 ICntrl=     500 IOpCl=  0
         NMat0=    1 NMatS0=    1 NMatT0=    0 NMatD0=    1 NMtDS0=    0 NMtDT0=    0
         I1Cent=           4 NGrid=           0.
 Petite list used in FoFCou.
 Requested convergence on RMS density matrix=1.00D-08 within 128 cycles.
 Requested convergence on MAX density matrix=1.00D-06.
 Requested convergence on             energy=1.00D-06.
 No special actions if energy rises.
 Keep R1 and R2 ints in memory in canonical form, NReq=3527753.
 Defaulting to unpruned grid for atomic number  53.
 Defaulting to unpruned grid for atomic number  53.
 Defaulting to unpruned grid for atomic number  53.
 Defaulting to unpruned grid for atomic number  53.
 Error on total polarization charges =  0.06004
 SCF Done:  E(UM062X) =  -162.811561667     A.U. after   14 cycles
             Convg  =    0.9468D-08             -V/T =  2.0589
 <Sx>= 0.0000 <Sy>= 0.0000 <Sz>= 0.5000 <S**2>= 0.7582 S= 0.5041
 <L.S>= 0.000000000000E+00
 SMD-CDS (non-electrostatic) energy             (kcal/mol) =       1.18
 (included in total energy above)
 Annihilation of the first spin contaminant:
 S**2 before annihilation     0.7582,   after     0.7500
   1 Symmetry operations used in ECPInt.
 ECPInt:  NShTT=     171 NPrTT=    1054 LenC2=     172 LenP2D=     909.
 LDataN:  DoStor=T MaxTD1= 5 Len=  102
 D1PCM: PCM CHGder 1st derivatives, ID1Alg=3 FixD1E=F DoIter=F DoCFld=F I1PDM=0.
 Calling FoFJK, ICntrl=      2127 FMM=F ISym2X=0 I1Cent= 0 IOpClX= 1 NMat=1 NMatS=1 NMatT=0.
 Defaulting to unpruned grid for atomic number  53.
 Defaulting to unpruned grid for atomic number  53.
 Defaulting to unpruned grid for atomic number  53.
 Defaulting to unpruned grid for atomic number  53.
 ***** Axes restored to original set *****
 -------------------------------------------------------------------
 Center     Atomic                   Forces (Hartrees/Bohr)
 Number     Number              X              Y              Z
 -------------------------------------------------------------------
      1        8          -0.033157611   -0.000483810   -0.001078174
      2        1           0.051647946   -0.011162895    0.064349393
      3        8          -0.032266799    0.006176296   -0.065613554
      4        1           0.007378552    0.005307374    0.004591555
      5       53           0.006397911    0.000163036   -0.002249220
 -------------------------------------------------------------------
 Cartesian Forces:  Max     0.065613554 RMS     0.030075386

 GradGradGradGradGradGradGradGradGradGradGradGradGradGradGradGradGradGrad
 Berny optimization.
 Internal  Forces:  Max     0.078552426 RMS     0.027234285
 Search for a saddle point.
 Step number  20 out of a maximum of   20
 All quantities printed in internal units (Hartrees-Bohrs-Radians)
 Swaping is turned off.
 Update second derivatives using D2CorX and points   10   11   12   13   14
                                                     15   16   17   18   19
                                                     20
 The second derivative matrix:
                          R1        R2        R3        R4        R5
           R1          -0.02274
           R2           0.01033   0.01218
           R3          -0.00582   0.02322   0.14713
           R4           0.00370  -0.02116   0.00249   0.13733
           R5           0.00047   0.00613  -0.00143  -0.00596   0.58682
           A1           0.00335   0.00408   0.00243  -0.01191   0.00031
           A2           0.00597  -0.01212   0.00466  -0.01509   0.00237
           A3           0.01379  -0.02606   0.00249   0.00318  -0.00460
           A4          -0.02451   0.02723  -0.00115  -0.01048   0.01342
           D1           0.01991  -0.01534   0.00146   0.01905  -0.00003
                          A1        A2        A3        A4        D1
           A1           0.00361
           A2           0.00990   0.00158
           A3          -0.00134  -0.01143  -0.09071
           A4           0.00340   0.00243   0.14536  -0.13873
           D1          -0.00513  -0.00269  -0.11928   0.17678  -0.12559
     Eigenvalues ---   -0.40915  -0.02614  -0.01493   0.00855   0.02208
     Eigenvalues ---    0.05002   0.14319   0.15164   0.587271000.00000
 Eigenvectors required to have negative eigenvalues:
                          A4        D1        A3        A1        R2
   1                    0.61751  -0.57736  -0.48444   0.12013  -0.11214
                          A2        R1        R4        R5        R3
   1                    0.10291   0.09280   0.06543  -0.00980   0.00892
 RFO step:  Lambda0=3.257535316D-05 Lambda=-4.32124588D-02.
 Linear search not attempted -- option 19 set.
 Maximum step size (   0.030) exceeded in Quadratic search.
    -- Step size scaled by   0.053
 Iteration  1 RMS(Cart)=  0.01262923 RMS(Int)=  0.00009648
 Iteration  2 RMS(Cart)=  0.00009412 RMS(Int)=  0.00000572
 Iteration  3 RMS(Cart)=  0.00000004 RMS(Int)=  0.00000572
 Variable       Old X    -DE/DX   Delta X   Delta X   Delta X     New X
                                 (Linear)    (Quad)   (Total)
    R1        3.22585  -0.00078   0.00000  -0.00012  -0.00012   3.22573
    R2        4.31619   0.02527   0.00000   0.01908   0.01908   4.33527
    R3        3.75543  -0.00672   0.00000  -0.00415  -0.00415   3.75128
    R4        2.09687  -0.07855   0.00000  -0.02004  -0.02004   2.07684
    R5        1.83853   0.00808   0.00000   0.00016   0.00016   1.83870
    A1        3.11435   0.01627   0.00000   0.00250   0.00251   3.11685
    A2        2.68297   0.01295   0.00000   0.00820   0.00821   2.69119
    A3        2.04026   0.00357   0.00000   0.00290   0.00290   2.04316
    A4        1.80515   0.00685   0.00000   0.00582   0.00582   1.81097
    D1       -1.68425   0.00216   0.00000  -0.00111  -0.00111  -1.68536
         Item               Value     Threshold  Converged?
 Maximum Force            0.078552     0.000450     NO 
 RMS     Force            0.027234     0.000300     NO 
 Maximum Displacement     0.025236     0.001800     NO 
 RMS     Displacement     0.012688     0.001200     NO 
 Predicted change in Energy=-2.239156D-03
 Optimization stopped.
    -- Number of steps exceeded,  NStep=  20
    -- Flag reset to prevent archiving.
                           ----------------------------
                           ! Non-Optimized Parameters !
                           ! (Angstroms and Degrees)  !
 --------------------------                            --------------------------
 ! Name  Definition              Value          Derivative Info.                !
 --------------------------------------------------------------------------------
 ! R1    R(1,2)                  1.707          -DE/DX =   -0.0008              !
 ! R2    R(1,3)                  2.2941         -DE/DX =    0.0253              !
 ! R3    R(1,5)                  1.9851         -DE/DX =   -0.0067              !
 ! R4    R(2,3)                  1.099          -DE/DX =   -0.0786              !
 ! R5    R(3,4)                  0.973          -DE/DX =    0.0081              !
 ! A1    A(2,1,5)              178.5826         -DE/DX =    0.0163              !
 ! A2    A(3,1,5)              154.1936         -DE/DX =    0.013               !
 ! A3    A(1,3,4)              117.0642         -DE/DX =    0.0036              !
 ! A4    A(2,3,4)              103.761          -DE/DX =    0.0068              !
 ! D1    D(5,1,3,4)            -96.5638         -DE/DX =    0.0022              !
 --------------------------------------------------------------------------------
 GradGradGradGradGradGradGradGradGradGradGradGradGradGradGradGradGradGrad

                          Input orientation:                          
 ---------------------------------------------------------------------
 Center     Atomic      Atomic             Coordinates (Angstroms)
 Number     Number       Type             X           Y           Z
 ---------------------------------------------------------------------
      1          8           0       -1.585332    0.714972    0.082617
      2          1           0       -0.029905    0.802394   -0.615247
      3          8           0        0.694524    0.714341    0.220636
      4          1           0        1.135148    1.581703    0.230044
      5         53           0       -3.416963    0.633248    0.849280
 ---------------------------------------------------------------------
                    Distance matrix (angstroms):
                    1          2          3          4          5
     1  O    0.000000
     2  H    1.707047   0.000000
     3  O    2.284030   1.109617   0.000000
     4  H    2.859016   1.636823   0.972911   0.000000
     5  I    1.987291   3.693996   4.160059   4.690921   0.000000
 Stoichiometry    H2IO2(2)
 Framework group  C1[X(H2IO2)]
 Deg. of freedom     9
 Full point group                 C1      NOp   1
 Largest Abelian subgroup         C1      NOp   1
 Largest concise Abelian subgroup C1      NOp   1
                         Standard orientation:                         
 ---------------------------------------------------------------------
 Center     Atomic      Atomic             Coordinates (Angstroms)
 Number     Number       Type             X           Y           Z
 ---------------------------------------------------------------------
      1          8           0        1.143539    0.365817    0.011107
      2          1           0        2.806838    0.748754    0.039472
      3          8           0        3.351383   -0.206235   -0.111254
      4          1           0        3.820213   -0.334431    0.731550
      5         53           0       -0.803518   -0.031905    0.000569
 ---------------------------------------------------------------------
 Rotational constants (GHZ):    116.7878779      1.6708349      1.6547474

 **********************************************************************

            Population analysis using the SCF density.

 **********************************************************************

 Orbital symmetries:
 Alpha Orbitals:
       Occupied  (A) (A) (A) (A) (A) (A) (A) (A) (A) (A) (A) (A)
                 (A)
       Virtual   (A) (A) (A) (A) (A) (A) (A) (A) (A) (A) (A) (A)
                 (A) (A) (A) (A) (A)
 Beta  Orbitals:
       Occupied  (A) (A) (A) (A) (A) (A) (A) (A) (A) (A) (A) (A)
       Virtual   (A) (A) (A) (A) (A) (A) (A) (A) (A) (A) (A) (A)
                 (A) (A) (A) (A) (A) (A)
 The electronic state is 2-A.
 Alpha  occ. eigenvalues --  -19.70199 -19.62653  -1.11967  -1.08992  -0.74871
 Alpha  occ. eigenvalues --   -0.57287  -0.49223  -0.47177  -0.44863  -0.43345
 Alpha  occ. eigenvalues --   -0.37212  -0.32517  -0.31181
 Alpha virt. eigenvalues --   -0.05018   0.14904   0.22149   0.40934   0.41533
 Alpha virt. eigenvalues --    0.41819   0.63571   0.66823   0.74533   0.74952
 Alpha virt. eigenvalues --    0.83563   0.92314   1.03084   1.06350   1.29702
 Alpha virt. eigenvalues --    1.56915   9.11907
  Beta  occ. eigenvalues --  -19.68900 -19.62572  -1.10153  -1.04781  -0.73035
  Beta  occ. eigenvalues --   -0.56807  -0.46015  -0.42450  -0.42115  -0.37689
  Beta  occ. eigenvalues --   -0.34410  -0.30323
  Beta virt. eigenvalues --   -0.11553  -0.03594   0.15141   0.22326   0.41102
  Beta virt. eigenvalues --    0.41696   0.42019   0.64329   0.70316   0.75098
  Beta virt. eigenvalues --    0.77544   0.84026   0.92567   1.03188   1.07372
  Beta virt. eigenvalues --    1.32778   1.57055   9.11804
          Condensed to atoms (all electrons):
              1          2          3          4          5
     1  O    8.608451   0.002528  -0.053060   0.001983   0.066289
     2  H    0.002528   0.307146   0.257972  -0.021908   0.000720
     3  O   -0.053060   0.257972   8.374589   0.273167   0.004468
     4  H    0.001983  -0.021908   0.273167   0.325422  -0.000179
     5  I    0.066289   0.000720   0.004468  -0.000179   6.320431
 Mulliken atomic charges:
              1
     1  O   -0.626190
     2  H    0.453541
     3  O   -0.857136
     4  H    0.421514
     5  I    0.608271
 Sum of Mulliken atomic charges =   0.00000
 Mulliken charges with hydrogens summed into heavy atoms:
              1
     1  O   -0.626190
     3  O    0.017919
     5  I    0.608271
 Sum of Mulliken charges with hydrogens summed into heavy atoms =   0.00000
          Atomic-Atomic Spin Densities.
              1          2          3          4          5
     1  O    0.863399  -0.004986  -0.013217   0.000369  -0.086126
     2  H   -0.004986  -0.001070   0.002145  -0.000258   0.000175
     3  O   -0.013217   0.002145   0.035259  -0.000420   0.000394
     4  H    0.000369  -0.000258  -0.000420  -0.000214  -0.000011
     5  I   -0.086126   0.000175   0.000394  -0.000011   0.306494
 Mulliken atomic spin densities:
              1
     1  O    0.759439
     2  H   -0.003993
     3  O    0.024162
     4  H   -0.000535
     5  I    0.220927
 Sum of Mulliken atomic spin densities =   1.00000
 Electronic spatial extent (au):  <R**2>=            534.1686
 Charge=              0.0000 electrons
 Dipole moment (field-independent basis, Debye):
    X=             -4.2363    Y=              1.0335    Z=              2.4601  Tot=              5.0067
 Quadrupole moment (field-independent basis, Debye-Ang):
   XX=            -31.0811   YY=            -30.5468   ZZ=            -32.2641
   XY=              4.3079   XZ=              9.2580   YZ=             -0.6391
 Traceless Quadrupole moment (field-independent basis, Debye-Ang):
   XX=              0.2162   YY=              0.7505   ZZ=             -0.9668
   XY=              4.3079   XZ=              9.2580   YZ=             -0.6391
 Octapole moment (field-independent basis, Debye-Ang**2):
  XXX=            -54.6732  YYY=             -0.1243  ZZZ=              2.1450  XYY=            -12.0348
  XXY=              9.0825  XXZ=             35.0879  XZZ=            -10.9201  YZZ=             -0.8037
  YYZ=              0.7596  XYZ=             -2.6977
 Hexadecapole moment (field-independent basis, Debye-Ang**3):
 XXXX=           -582.3809 YYYY=            -49.0633 ZZZZ=            -47.0183 XXXY=             29.1163
 XXXZ=            134.6037 YYYX=              6.3084 YYYZ=             -0.3051 ZZZX=              8.1337
 ZZZY=             -0.6141 XXYY=           -102.6909 XXZZ=           -100.2852 YYZZ=            -16.2680
 XXYZ=            -10.0715 YYXZ=              2.7131 ZZXY=             -0.2563
 N-N= 5.110785204477D+01 E-N=-7.185882816987D+02  KE= 2.293686919811D+02
                          Isotropic Fermi Contact Couplings
        Atom                 a.u.       MegaHertz       Gauss      10(-4) cm-1
     1  O(17)              0.09390     -56.92066     -20.31071     -18.98669
     2  H(1)              -0.00051      -2.28327      -0.81473      -0.76162
     3  O(17)              0.01911     -11.58357      -4.13330      -3.86386
     4  H(1)              -0.00033      -1.45917      -0.52067      -0.48673
     5  I(127)             0.00000       0.00094       0.00034       0.00031
 --------------------------------------------------------
       Center         ----  Spin Dipole Couplings  ----
                      3XX-RR        3YY-RR        3ZZ-RR
 --------------------------------------------------------
     1   Atom       -1.002744      2.482540     -1.479796
     2   Atom        0.035703     -0.011097     -0.024606
     3   Atom        0.083850     -0.010405     -0.073445
     4   Atom        0.007386     -0.007313     -0.000073
     5   Atom        0.001502      0.025294     -0.026795
 --------------------------------------------------------
                        XY            XZ            YZ
 --------------------------------------------------------
     1   Atom       -1.013560     -0.044764      0.167703
     2   Atom        0.009756      0.000506      0.001235
     3   Atom        0.081870     -0.024407     -0.015509
     4   Atom       -0.002617      0.007247     -0.002252
     5   Atom       -0.015795     -0.000721      0.002225
 --------------------------------------------------------


 ---------------------------------------------------------------------------------
              Anisotropic Spin Dipole Couplings in Principal Axis System
 ---------------------------------------------------------------------------------

       Atom             a.u.   MegaHertz   Gauss  10(-4) cm-1        Axes

              Baa    -1.4869   107.591    38.391    35.888  0.0086 -0.0400  0.9992
     1 O(17)  Bbb    -1.2761    92.335    32.947    30.800  0.9655  0.2603  0.0021
              Bcc     2.7630  -199.926   -71.339   -66.688 -0.2601  0.9647  0.0409
 
              Baa    -0.0247   -13.190    -4.706    -4.400  0.0071 -0.0953  0.9954
     2 H(1)   Bbb    -0.0129    -6.906    -2.464    -2.304 -0.1967  0.9759  0.0948
              Bcc     0.0377    20.096     7.171     6.703  0.9804  0.1965  0.0119
 
              Baa    -0.0775     5.609     2.002     1.871  0.0882  0.1209  0.9887
     3 O(17)  Bbb    -0.0577     4.173     1.489     1.392 -0.5076  0.8595 -0.0598
              Bcc     0.1352    -9.782    -3.491    -3.263  0.8571  0.4966 -0.1372
 
              Baa    -0.0080    -4.262    -1.521    -1.422  0.0618  0.9734  0.2204
     4 H(1)   Bbb    -0.0044    -2.351    -0.839    -0.784 -0.5418 -0.1527  0.8265
              Bcc     0.0124     6.614     2.360     2.206  0.8382 -0.1705  0.5180
 
              Baa    -0.0269    -2.890    -1.031    -0.964  0.0020 -0.0420  0.9991
     5 I(127) Bbb    -0.0064    -0.685    -0.244    -0.228  0.8952  0.4454  0.0169
              Bcc     0.0333     3.575     1.276     1.193 -0.4457  0.8944  0.0385
 

 ---------------------------------------------------------------------------------



 FLOATING POINT NUMBERS ARE LIKE SANDPILES:
 EVERY TIME THAT YOU MOVE ONE, YOU LOSE A LITTLE SAND 
 AND YOU PICK UP A LITTLE DIRT.
 Error termination request processed by link 9999.
 Error termination via Lnk1e in C:\G09W\l9999.exe at Tue Feb 02 04:27:33 2021.
 Job cpu time:  0 days  0 hours  2 minutes 36.0 seconds.
 File lengths (MBytes):  RWF=     18 Int=      0 D2E=      0 Chk=      2 Scr=      1
