 Entering Link 1 = C:\G09W\l1.exe PID=      3644.
  
 Copyright (c) 1988,1990,1992,1993,1995,1998,2003,2009, Gaussian, Inc.
                  All Rights Reserved.
  
 This is part of the Gaussian(R) 09 program.  It is based on
 the Gaussian(R) 03 system (copyright 2003, Gaussian, Inc.),
 the Gaussian(R) 98 system (copyright 1998, Gaussian, Inc.),
 the Gaussian(R) 94 system (copyright 1995, Gaussian, Inc.),
 the Gaussian 92(TM) system (copyright 1992, Gaussian, Inc.),
 the Gaussian 90(TM) system (copyright 1990, Gaussian, Inc.),
 the Gaussian 88(TM) system (copyright 1988, Gaussian, Inc.),
 the Gaussian 86(TM) system (copyright 1986, Carnegie Mellon
 University), and the Gaussian 82(TM) system (copyright 1983,
 Carnegie Mellon University). Gaussian is a federally registered
 trademark of Gaussian, Inc.
  
 This software contains proprietary and confidential information,
 including trade secrets, belonging to Gaussian, Inc.
  
 This software is provided under written license and may be
 used, copied, transmitted, or stored only in accord with that
 written license.
  
 The following legend is applicable only to US Government
 contracts under FAR:
  
                    RESTRICTED RIGHTS LEGEND
  
 Use, reproduction and disclosure by the US Government is
 subject to restrictions as set forth in subparagraphs (a)
 and (c) of the Commercial Computer Software - Restricted
 Rights clause in FAR 52.227-19.
  
 Gaussian, Inc.
 340 Quinnipiac St., Bldg. 40, Wallingford CT 06492
  
  
 ---------------------------------------------------------------
 Warning -- This program may not be used in any manner that
 competes with the business of Gaussian, Inc. or will provide
 assistance to any competitor of Gaussian, Inc.  The licensee
 of this program is prohibited from giving any competitor of
 Gaussian, Inc. access to this program.  By using this program,
 the user acknowledges that Gaussian, Inc. is engaged in the
 business of creating and licensing software in the field of
 computational chemistry and represents and warrants to the
 licensee that it is not a competitor of Gaussian, Inc. and that
 it will not use this program in any manner prohibited above.
 ---------------------------------------------------------------
  

 Cite this work as:
 Gaussian 09, Revision A.02,
 M. J. Frisch, G. W. Trucks, H. B. Schlegel, G. E. Scuseria, 
 M. A. Robb, J. R. Cheeseman, G. Scalmani, V. Barone, B. Mennucci, 
 G. A. Petersson, H. Nakatsuji, M. Caricato, X. Li, H. P. Hratchian, 
 A. F. Izmaylov, J. Bloino, G. Zheng, J. L. Sonnenberg, M. Hada, 
 M. Ehara, K. Toyota, R. Fukuda, J. Hasegawa, M. Ishida, T. Nakajima, 
 Y. Honda, O. Kitao, H. Nakai, T. Vreven, J. A. Montgomery, Jr., 
 J. E. Peralta, F. Ogliaro, M. Bearpark, J. J. Heyd, E. Brothers, 
 K. N. Kudin, V. N. Staroverov, R. Kobayashi, J. Normand, 
 K. Raghavachari, A. Rendell, J. C. Burant, S. S. Iyengar, J. Tomasi, 
 M. Cossi, N. Rega, J. M. Millam, M. Klene, J. E. Knox, J. B. Cross, 
 V. Bakken, C. Adamo, J. Jaramillo, R. Gomperts, R. E. Stratmann, 
 O. Yazyev, A. J. Austin, R. Cammi, C. Pomelli, J. W. Ochterski, 
 R. L. Martin, K. Morokuma, V. G. Zakrzewski, G. A. Voth, 
 P. Salvador, J. J. Dannenberg, S. Dapprich, A. D. Daniels, 
 O. Farkas, J. B. Foresman, J. V. Ortiz, J. Cioslowski, 
 and D. J. Fox, Gaussian, Inc., Wallingford CT, 2009.
 
 ******************************************
 Gaussian 09:  IA32W-G09RevA.02 11-Jun-2009
                02-Feb-2021 
 ******************************************
 %chk=D:\Documents\rayGit\FQ\quimicaComputacional\proyecto\decompositionHydrogenP
 eroxide\decompositionCatalyzedByIodine\step1\ts\ts.chk
 %mem=1500MB
 %nprocshared=4
 Will use up to    4 processors via shared memory.
 ----------------------------------------------------------------------
 # opt=(readfc,ts,noeigen) geom=check guess=check freq=noraman lanl2dz 
 scrf=smd iop(1/8=3) m062x
 ----------------------------------------------------------------------
 1/5=1,8=3,10=3,11=1,14=-1,18=20,26=3,29=2,38=1/1,3;
 2/9=110,12=2,40=1/2;
 3/5=6,6=3,11=2,14=-4,16=1,25=1,30=1,70=32201,71=1,72=1,74=-55,116=-2/1,2,3;
 4/5=1/1;
 5/5=2,38=6/2;
 6/7=2,8=2,9=2,10=2,28=1/1;
 7//1,2,3,16;
 1/5=1,8=3,11=1,14=-1,18=20/3(2);
 2/9=110/2;
 99//99;
 2/9=110/2;
 3/5=6,6=3,11=2,14=-2,16=1,25=1,30=1,70=32205,71=1,74=-55/1,2,3;
 4/5=5,16=3/1;
 5/5=2,38=5/2;
 7//1,2,3,16;
 1/5=1,8=3,11=1,14=-1,18=20/3(-5);
 2/9=110/2;
 6/7=2,8=2,9=2,10=2,19=2,28=1/1;
 99/9=1/99;
 -------------------------------
 Hydrogen peroxide with iodine 3
 -------------------------------
 Redundant internal coordinates taken from checkpoint file:
 D:\Documents\rayGit\FQ\quimicaComputacional\proyecto\decompositionHydrogenPeroxide\decompositionCatalyzedByIodine\step1\ts\ts.chk
 Charge =  0 Multiplicity = 2
 O,0,-1.5853318025,0.714971685,0.0826174202
 H,0,-0.0299052749,0.8023938665,-0.6152465257
 O,0,0.694523796,0.7143408129,0.220636142
 H,0,1.1351484266,1.5817025945,0.2300442609
 I,0,-3.4169632051,0.633247771,0.8492799726
 Recover connectivity data from disk.

 GradGradGradGradGradGradGradGradGradGradGradGradGradGradGradGradGradGrad
 Berny optimization.
 Initialization pass.
 Force constant matrix read from checkpoint file:
 D:\Documents\rayGit\FQ\quimicaComputacional\proyecto\decompositionHydrogenPeroxi
 de\decompositionCatalyzedByIodine\step1\ts\ts.chk
                           ----------------------------
                           !    Initial Parameters    !
                           ! (Angstroms and Degrees)  !
 --------------------------                            --------------------------
 ! Name  Definition              Value          Derivative Info.                !
 --------------------------------------------------------------------------------
 ! R1    R(1,2)                  1.707          D2E/DX2 =   -0.0227             !
 ! R2    R(1,3)                  2.284          D2E/DX2 =    0.0122             !
 ! R3    R(1,5)                  1.9873         D2E/DX2 =    0.1471             !
 ! R4    R(2,3)                  1.1096         D2E/DX2 =    0.1373             !
 ! R5    R(3,4)                  0.9729         D2E/DX2 =    0.5868             !
 ! A1    A(2,1,5)              178.4389         D2E/DX2 =    0.0036             !
 ! A2    A(3,1,5)              153.7231         D2E/DX2 =    0.0016             !
 ! A3    A(1,3,4)              116.898          D2E/DX2 =   -0.0907             !
 ! A4    A(2,3,4)              103.4276         D2E/DX2 =   -0.1387             !
 ! D1    D(5,1,3,4)            -96.5003         D2E/DX2 =   -0.1256             !
 --------------------------------------------------------------------------------
 Trust Radius=3.00D-02 FncErr=1.00D-07 GrdErr=1.00D-06
 Number of steps in this run=  20 maximum allowed number of steps= 100.
 Search for a saddle point of order  1.
 GradGradGradGradGradGradGradGradGradGradGradGradGradGradGradGradGradGrad

                          Input orientation:                          
 ---------------------------------------------------------------------
 Center     Atomic      Atomic             Coordinates (Angstroms)
 Number     Number       Type             X           Y           Z
 ---------------------------------------------------------------------
      1          8           0       -1.585332    0.714972    0.082617
      2          1           0       -0.029905    0.802394   -0.615247
      3          8           0        0.694524    0.714341    0.220636
      4          1           0        1.135148    1.581703    0.230044
      5         53           0       -3.416963    0.633248    0.849280
 ---------------------------------------------------------------------
                    Distance matrix (angstroms):
                    1          2          3          4          5
     1  O    0.000000
     2  H    1.707047   0.000000
     3  O    2.284030   1.109617   0.000000
     4  H    2.859016   1.636823   0.972911   0.000000
     5  I    1.987291   3.693996   4.160059   4.690921   0.000000
 Stoichiometry    H2IO2(2)
 Framework group  C1[X(H2IO2)]
 Deg. of freedom     9
 Full point group                 C1      NOp   1
 Largest Abelian subgroup         C1      NOp   1
 Largest concise Abelian subgroup C1      NOp   1
                         Standard orientation:                         
 ---------------------------------------------------------------------
 Center     Atomic      Atomic             Coordinates (Angstroms)
 Number     Number       Type             X           Y           Z
 ---------------------------------------------------------------------
      1          8           0        1.143539    0.365817    0.011107
      2          1           0        2.806838    0.748754    0.039472
      3          8           0        3.351383   -0.206235   -0.111254
      4          1           0        3.820213   -0.334431    0.731550
      5         53           0       -0.803518   -0.031905    0.000569
 ---------------------------------------------------------------------
 Rotational constants (GHZ):    116.7878779      1.6708349      1.6547474
 Standard basis: LANL2DZ (5D, 7F)
 There are    30 symmetry adapted basis functions of A   symmetry.
 Integral buffers will be    262144 words long.
 Raffenetti 2 integral format.
 Two-electron integral symmetry is turned on.
    30 basis functions,    70 primitive gaussians,    30 cartesian basis functions
    13 alpha electrons       12 beta electrons
       nuclear repulsion energy        51.1059682819 Hartrees.
 NAtoms=    5 NActive=    5 NUniq=    5 SFac= 7.50D-01 NAtFMM=   80 NAOKFM=F Big=F
 ------------------------------------------------------------------------------
 Polarizable Continuum Model (PCM)
 =================================
 Model                : PCM.
 Atomic radii         : SMD-Coulomb.
 Polarization charges : Total charges.
 Charge compensation  : None.
 Solution method      : Matrix inversion.
 Cavity type          : VdW (van der Waals Surface) (Alpha=1.000).
 Cavity algorithm     : GePol (No added spheres)
                        Default sphere list used, NSphG=    5.
                        Lebedev-Laikov grids with approx.  5.0 points / Ang**2.
                        Smoothing algorithm: Karplus/York (Gamma=1.0000).
                        Polarization charges: spherical gaussians, with
                                              point-specific exponents (IZeta= 3).
                        Self-potential: point-specific (ISelfS= 7).
                        Self-field    : sphere-specific E.n sum rule (ISelfD= 2).
 1st derivatives      : Analytical E(r).r(x)/FMM algorithm (CHGder, D1EAlg=3).
                        Cavity 1st derivative terms included.
 Solvent              : Water, Eps=  78.355300 Eps(inf)=   1.777849
 ------------------------------------------------------------------------------
 Spheres list:
 ISph  on   Nord    Re0     Alpha      Xe            Ye            Ze
    1   O      1    1.520   1.000      1.143539      0.365817      0.011107
    2   H      2    1.200   1.000      2.806838      0.748754      0.039472
    3   O      3    1.520   1.000      3.351383     -0.206235     -0.111254
    4   H      4    1.200   1.000      3.820213     -0.334431      0.731550
    5   I      5    1.980   1.000     -0.803518     -0.031905      0.000569
 ------------------------------------------------------------------------------
 ------------------------------------------------------------------------------
 Atomic radii for non-electrostatic terms: SMD-CDS.
 ------------------------------------------------------------------------------
 Nuclear repulsion after PCM non-electrostatic terms =       51.1078520448 Hartrees.
 One-electron integrals computed using PRISM.
   1 Symmetry operations used in ECPInt.
 ECPInt:  NShTT=     171 NPrTT=    1054 LenC2=     172 LenP2D=     909.
 LDataN:  DoStor=T MaxTD1= 4 Len=   56
 NBasis=    30 RedAO= T  NBF=    30
 NBsUse=    30 1.00D-06 NBFU=    30
 Defaulting to unpruned grid for atomic number  53.
 Initial guess read from the checkpoint file:  D:\Documents\rayGit\FQ\quimicaComp
 utacional\proyecto\decompositionHydrogenPeroxide\decompositionCatalyzedByIodine\
 step1\ts\ts.chk
 B after Tr=     0.000000    0.000000    0.000000
         Rot=    1.000000    0.000000    0.000000    0.000000 Ang=   0.00 deg.
 Initial guess orbital symmetries:
 Alpha Orbitals:
       Occupied  (A) (A) (A) (A) (A) (A) (A) (A) (A) (A) (A) (A)
                 (A)
       Virtual   (A) (A) (A) (A) (A) (A) (A) (A) (A) (A) (A) (A)
                 (A) (A) (A) (A) (A)
 Beta  Orbitals:
       Occupied  (A) (A) (A) (A) (A) (A) (A) (A) (A) (A) (A) (A)
       Virtual   (A) (A) (A) (A) (A) (A) (A) (A) (A) (A) (A) (A)
                 (A) (A) (A) (A) (A) (A)
 Initial guess <Sx>= 0.0000 <Sy>= 0.0000 <Sz>= 0.5000 <S**2>= 0.7582 S= 0.5041
 Requested convergence on RMS density matrix=1.00D-08 within 128 cycles.
 Requested convergence on MAX density matrix=1.00D-06.
 Requested convergence on             energy=1.00D-06.
 No special actions if energy rises.
 Keep R1 and R2 ints in memory in canonical form, NReq=3527753.
 Defaulting to unpruned grid for atomic number  53.
 Defaulting to unpruned grid for atomic number  53.
 Defaulting to unpruned grid for atomic number  53.
 Defaulting to unpruned grid for atomic number  53.
 Error on total polarization charges =  0.06004
 SCF Done:  E(UM062X) =  -162.811561667     A.U. after    1 cycles
             Convg  =    0.5519D-08             -V/T =  2.0589
 <Sx>= 0.0000 <Sy>= 0.0000 <Sz>= 0.5000 <S**2>= 0.7582 S= 0.5041
 <L.S>= 0.000000000000E+00
 SMD-CDS (non-electrostatic) energy             (kcal/mol) =       1.18
 (included in total energy above)
 Annihilation of the first spin contaminant:
 S**2 before annihilation     0.7582,   after     0.7500

 **********************************************************************

            Population analysis using the SCF density.

 **********************************************************************

 Orbital symmetries:
 Alpha Orbitals:
       Occupied  (A) (A) (A) (A) (A) (A) (A) (A) (A) (A) (A) (A)
                 (A)
       Virtual   (A) (A) (A) (A) (A) (A) (A) (A) (A) (A) (A) (A)
                 (A) (A) (A) (A) (A)
 Beta  Orbitals:
       Occupied  (A) (A) (A) (A) (A) (A) (A) (A) (A) (A) (A) (A)
       Virtual   (A) (A) (A) (A) (A) (A) (A) (A) (A) (A) (A) (A)
                 (A) (A) (A) (A) (A) (A)
 The electronic state is 2-A.
 Alpha  occ. eigenvalues --  -19.70199 -19.62653  -1.11967  -1.08992  -0.74871
 Alpha  occ. eigenvalues --   -0.57287  -0.49223  -0.47177  -0.44863  -0.43345
 Alpha  occ. eigenvalues --   -0.37212  -0.32517  -0.31181
 Alpha virt. eigenvalues --   -0.05018   0.14904   0.22149   0.40934   0.41533
 Alpha virt. eigenvalues --    0.41819   0.63571   0.66823   0.74533   0.74952
 Alpha virt. eigenvalues --    0.83563   0.92314   1.03084   1.06350   1.29702
 Alpha virt. eigenvalues --    1.56915   9.11907
  Beta  occ. eigenvalues --  -19.68900 -19.62572  -1.10153  -1.04781  -0.73035
  Beta  occ. eigenvalues --   -0.56807  -0.46015  -0.42450  -0.42115  -0.37689
  Beta  occ. eigenvalues --   -0.34410  -0.30323
  Beta virt. eigenvalues --   -0.11553  -0.03594   0.15141   0.22326   0.41102
  Beta virt. eigenvalues --    0.41696   0.42019   0.64329   0.70316   0.75098
  Beta virt. eigenvalues --    0.77544   0.84026   0.92567   1.03188   1.07372
  Beta virt. eigenvalues --    1.32778   1.57055   9.11804
          Condensed to atoms (all electrons):
              1          2          3          4          5
     1  O    8.608451   0.002528  -0.053060   0.001983   0.066289
     2  H    0.002528   0.307146   0.257972  -0.021908   0.000720
     3  O   -0.053060   0.257972   8.374589   0.273167   0.004468
     4  H    0.001983  -0.021908   0.273167   0.325422  -0.000179
     5  I    0.066289   0.000720   0.004468  -0.000179   6.320431
 Mulliken atomic charges:
              1
     1  O   -0.626190
     2  H    0.453541
     3  O   -0.857136
     4  H    0.421514
     5  I    0.608271
 Sum of Mulliken atomic charges =   0.00000
 Mulliken charges with hydrogens summed into heavy atoms:
              1
     1  O   -0.626190
     3  O    0.017919
     5  I    0.608271
 Sum of Mulliken charges with hydrogens summed into heavy atoms =   0.00000
          Atomic-Atomic Spin Densities.
              1          2          3          4          5
     1  O    0.863399  -0.004986  -0.013217   0.000369  -0.086126
     2  H   -0.004986  -0.001070   0.002145  -0.000258   0.000175
     3  O   -0.013217   0.002145   0.035259  -0.000420   0.000394
     4  H    0.000369  -0.000258  -0.000420  -0.000214  -0.000011
     5  I   -0.086126   0.000175   0.000394  -0.000011   0.306494
 Mulliken atomic spin densities:
              1
     1  O    0.759439
     2  H   -0.003993
     3  O    0.024162
     4  H   -0.000535
     5  I    0.220927
 Sum of Mulliken atomic spin densities =   1.00000
 Electronic spatial extent (au):  <R**2>=            534.1686
 Charge=              0.0000 electrons
 Dipole moment (field-independent basis, Debye):
    X=             -4.2363    Y=              1.0335    Z=              2.4601  Tot=              5.0067
 Quadrupole moment (field-independent basis, Debye-Ang):
   XX=            -31.0811   YY=            -30.5468   ZZ=            -32.2641
   XY=              4.3079   XZ=              9.2580   YZ=             -0.6391
 Traceless Quadrupole moment (field-independent basis, Debye-Ang):
   XX=              0.2162   YY=              0.7505   ZZ=             -0.9668
   XY=              4.3079   XZ=              9.2580   YZ=             -0.6391
 Octapole moment (field-independent basis, Debye-Ang**2):
  XXX=            -54.6732  YYY=             -0.1243  ZZZ=              2.1450  XYY=            -12.0348
  XXY=              9.0825  XXZ=             35.0879  XZZ=            -10.9201  YZZ=             -0.8037
  YYZ=              0.7596  XYZ=             -2.6977
 Hexadecapole moment (field-independent basis, Debye-Ang**3):
 XXXX=           -582.3809 YYYY=            -49.0633 ZZZZ=            -47.0183 XXXY=             29.1163
 XXXZ=            134.6037 YYYX=              6.3084 YYYZ=             -0.3051 ZZZX=              8.1337
 ZZZY=             -0.6141 XXYY=           -102.6909 XXZZ=           -100.2852 YYZZ=            -16.2680
 XXYZ=            -10.0715 YYXZ=              2.7131 ZZXY=             -0.2563
 N-N= 5.110785204477D+01 E-N=-7.185882817647D+02  KE= 2.293686920120D+02
                          Isotropic Fermi Contact Couplings
        Atom                 a.u.       MegaHertz       Gauss      10(-4) cm-1
     1  O(17)              0.09390     -56.92066     -20.31071     -18.98669
     2  H(1)              -0.00051      -2.28327      -0.81473      -0.76162
     3  O(17)              0.01911     -11.58357      -4.13331      -3.86386
     4  H(1)              -0.00033      -1.45917      -0.52067      -0.48673
     5  I(127)             0.00000       0.00094       0.00034       0.00031
 --------------------------------------------------------
       Center         ----  Spin Dipole Couplings  ----
                      3XX-RR        3YY-RR        3ZZ-RR
 --------------------------------------------------------
     1   Atom       -1.002744      2.482540     -1.479796
     2   Atom        0.035703     -0.011097     -0.024606
     3   Atom        0.083850     -0.010405     -0.073445
     4   Atom        0.007386     -0.007313     -0.000073
     5   Atom        0.001502      0.025294     -0.026795
 --------------------------------------------------------
                        XY            XZ            YZ
 --------------------------------------------------------
     1   Atom       -1.013560     -0.044765      0.167703
     2   Atom        0.009756      0.000506      0.001235
     3   Atom        0.081870     -0.024407     -0.015509
     4   Atom       -0.002617      0.007247     -0.002252
     5   Atom       -0.015795     -0.000721      0.002225
 --------------------------------------------------------


 ---------------------------------------------------------------------------------
              Anisotropic Spin Dipole Couplings in Principal Axis System
 ---------------------------------------------------------------------------------

       Atom             a.u.   MegaHertz   Gauss  10(-4) cm-1        Axes

              Baa    -1.4869   107.591    38.391    35.888  0.0086 -0.0400  0.9992
     1 O(17)  Bbb    -1.2761    92.335    32.947    30.800  0.9655  0.2603  0.0021
              Bcc     2.7630  -199.926   -71.339   -66.688 -0.2601  0.9647  0.0409
 
              Baa    -0.0247   -13.190    -4.706    -4.400  0.0071 -0.0953  0.9954
     2 H(1)   Bbb    -0.0129    -6.906    -2.464    -2.304 -0.1967  0.9759  0.0948
              Bcc     0.0377    20.096     7.171     6.703  0.9804  0.1965  0.0119
 
              Baa    -0.0775     5.609     2.002     1.871  0.0882  0.1209  0.9887
     3 O(17)  Bbb    -0.0577     4.173     1.489     1.392 -0.5076  0.8595 -0.0598
              Bcc     0.1352    -9.782    -3.491    -3.263  0.8571  0.4966 -0.1372
 
              Baa    -0.0080    -4.262    -1.521    -1.422  0.0618  0.9734  0.2204
     4 H(1)   Bbb    -0.0044    -2.351    -0.839    -0.784 -0.5418 -0.1527  0.8265
              Bcc     0.0124     6.614     2.360     2.206  0.8382 -0.1705  0.5180
 
              Baa    -0.0269    -2.890    -1.031    -0.964  0.0020 -0.0420  0.9991
     5 I(127) Bbb    -0.0064    -0.685    -0.244    -0.228  0.8952  0.4454  0.0169
              Bcc     0.0333     3.575     1.276     1.193 -0.4457  0.8944  0.0385
 

 ---------------------------------------------------------------------------------

   1 Symmetry operations used in ECPInt.
 ECPInt:  NShTT=     171 NPrTT=    1054 LenC2=     172 LenP2D=     909.
 LDataN:  DoStor=T MaxTD1= 5 Len=  102
 D1PCM: PCM CHGder 1st derivatives, ID1Alg=3 FixD1E=F DoIter=F DoCFld=F I1PDM=0.
 Calling FoFJK, ICntrl=      2127 FMM=F ISym2X=0 I1Cent= 0 IOpClX= 1 NMat=1 NMatS=1 NMatT=0.
 Defaulting to unpruned grid for atomic number  53.
 Defaulting to unpruned grid for atomic number  53.
 Defaulting to unpruned grid for atomic number  53.
 Defaulting to unpruned grid for atomic number  53.
 ***** Axes restored to original set *****
 -------------------------------------------------------------------
 Center     Atomic                   Forces (Hartrees/Bohr)
 Number     Number              X              Y              Z
 -------------------------------------------------------------------
      1        8          -0.033157611   -0.000483808   -0.001078174
      2        1           0.051647946   -0.011162895    0.064349393
      3        8          -0.032266799    0.006176295   -0.065613554
      4        1           0.007378552    0.005307374    0.004591555
      5       53           0.006397912    0.000163035   -0.002249220
 -------------------------------------------------------------------
 Cartesian Forces:  Max     0.065613554 RMS     0.030075386

 GradGradGradGradGradGradGradGradGradGradGradGradGradGradGradGradGradGrad
 Berny optimization.
 Internal  Forces:  Max     0.078552426 RMS     0.027234285
 Search for a saddle point.
 Step number   1 out of a maximum of   20
 All quantities printed in internal units (Hartrees-Bohrs-Radians)
 Swaping is turned off.
 Second derivative matrix not updated -- first step.
 The second derivative matrix:
                          R1        R2        R3        R4        R5
           R1          -0.02274
           R2           0.01033   0.01218
           R3          -0.00582   0.02322   0.14713
           R4           0.00370  -0.02116   0.00249   0.13733
           R5           0.00047   0.00613  -0.00143  -0.00596   0.58682
           A1           0.00335   0.00408   0.00243  -0.01191   0.00031
           A2           0.00597  -0.01212   0.00466  -0.01509   0.00237
           A3           0.01379  -0.02606   0.00249   0.00318  -0.00460
           A4          -0.02451   0.02723  -0.00115  -0.01048   0.01342
           D1           0.01991  -0.01534   0.00146   0.01905  -0.00003
                          A1        A2        A3        A4        D1
           A1           0.00361
           A2           0.00990   0.00158
           A3          -0.00134  -0.01143  -0.09071
           A4           0.00340   0.00243   0.14536  -0.13873
           D1          -0.00513  -0.00269  -0.11928   0.17678  -0.12559
     Eigenvalues ---   -0.40915  -0.02614  -0.01493   0.00855   0.02208
     Eigenvalues ---    0.05002   0.14319   0.15164   0.587271000.00000
 Eigenvectors required to have negative eigenvalues:
                          A4        D1        A3        A1        R2
   1                    0.61751  -0.57736  -0.48444   0.12013  -0.11214
                          A2        R1        R4        R5        R3
   1                    0.10291   0.09280   0.06543  -0.00980   0.00892
 RFO step:  Lambda0=3.257530655D-05 Lambda=-4.32124588D-02.
 Linear search not attempted -- option 19 set.
 Maximum step size (   0.030) exceeded in Quadratic search.
    -- Step size scaled by   0.053
 Iteration  1 RMS(Cart)=  0.01262923 RMS(Int)=  0.00009648
 Iteration  2 RMS(Cart)=  0.00009412 RMS(Int)=  0.00000572
 Iteration  3 RMS(Cart)=  0.00000004 RMS(Int)=  0.00000572
 Variable       Old X    -DE/DX   Delta X   Delta X   Delta X     New X
                                 (Linear)    (Quad)   (Total)
    R1        3.22585  -0.00078   0.00000  -0.00012  -0.00012   3.22573
    R2        4.31619   0.02527   0.00000   0.01908   0.01908   4.33527
    R3        3.75543  -0.00672   0.00000  -0.00415  -0.00415   3.75128
    R4        2.09687  -0.07855   0.00000  -0.02004  -0.02004   2.07684
    R5        1.83853   0.00808   0.00000   0.00016   0.00016   1.83870
    A1        3.11435   0.01627   0.00000   0.00250   0.00251   3.11685
    A2        2.68297   0.01295   0.00000   0.00820   0.00821   2.69119
    A3        2.04026   0.00357   0.00000   0.00290   0.00290   2.04316
    A4        1.80515   0.00685   0.00000   0.00582   0.00582   1.81097
    D1       -1.68425   0.00216   0.00000  -0.00111  -0.00111  -1.68536
         Item               Value     Threshold  Converged?
 Maximum Force            0.078552     0.000450     NO 
 RMS     Force            0.027234     0.000300     NO 
 Maximum Displacement     0.025236     0.001800     NO 
 RMS     Displacement     0.012688     0.001200     NO 
 Predicted change in Energy=-2.239156D-03
 GradGradGradGradGradGradGradGradGradGradGradGradGradGradGradGradGradGrad

                          Input orientation:                          
 ---------------------------------------------------------------------
 Center     Atomic      Atomic             Coordinates (Angstroms)
 Number     Number       Type             X           Y           Z
 ---------------------------------------------------------------------
      1          8           0       -1.590793    0.715205    0.085967
      2          1           0       -0.031104    0.804691   -0.601892
      3          8           0        0.699760    0.714782    0.213942
      4          1           0        1.142732    1.581032    0.224357
      5         53           0       -3.423123    0.630947    0.844958
 ---------------------------------------------------------------------
                    Distance matrix (angstroms):
                    1          2          3          4          5
     1  O    0.000000
     2  H    1.706983   0.000000
     3  O    2.294126   1.099014   0.000000
     4  H    2.870708   1.631957   0.972996   0.000000
     5  I    1.985094   3.691796   4.171735   4.704767   0.000000
 Stoichiometry    H2IO2(2)
 Framework group  C1[X(H2IO2)]
 Deg. of freedom     9
 Full point group                 C1      NOp   1
 Largest Abelian subgroup         C1      NOp   1
 Largest concise Abelian subgroup C1      NOp   1
                         Standard orientation:                         
 ---------------------------------------------------------------------
 Center     Atomic      Atomic             Coordinates (Angstroms)
 Number     Number       Type             X           Y           Z
 ---------------------------------------------------------------------
      1          8           0        1.141046    0.360346    0.011365
      2          1           0        2.806336    0.734254    0.039493
      3          8           0        3.361801   -0.202005   -0.111207
      4          1           0        3.833318   -0.329397    0.730318
      5         53           0       -0.804952   -0.031539    0.000546
 ---------------------------------------------------------------------
 Rotational constants (GHZ):    120.1388627      1.6631147      1.6478019
 Standard basis: LANL2DZ (5D, 7F)
 There are    30 symmetry adapted basis functions of A   symmetry.
 Integral buffers will be    262144 words long.
 Raffenetti 2 integral format.
 Two-electron integral symmetry is turned on.
    30 basis functions,    70 primitive gaussians,    30 cartesian basis functions
    13 alpha electrons       12 beta electrons
       nuclear repulsion energy        51.0669998621 Hartrees.
 NAtoms=    5 NActive=    5 NUniq=    5 SFac= 7.50D-01 NAtFMM=   80 NAOKFM=F Big=F
 ------------------------------------------------------------------------------
 Polarizable Continuum Model (PCM)
 =================================
 Model                : PCM.
 Atomic radii         : SMD-Coulomb.
 Polarization charges : Total charges.
 Charge compensation  : None.
 Solution method      : Matrix inversion.
 Cavity type          : VdW (van der Waals Surface) (Alpha=1.000).
 Cavity algorithm     : GePol (No added spheres)
                        Default sphere list used, NSphG=    5.
                        Lebedev-Laikov grids with approx.  5.0 points / Ang**2.
                        Smoothing algorithm: Karplus/York (Gamma=1.0000).
                        Polarization charges: spherical gaussians, with
                                              point-specific exponents (IZeta= 3).
                        Self-potential: point-specific (ISelfS= 7).
                        Self-field    : sphere-specific E.n sum rule (ISelfD= 2).
 1st derivatives      : Analytical E(r).r(x)/FMM algorithm (CHGder, D1EAlg=3).
                        Cavity 1st derivative terms included.
 Solvent              : Water, Eps=  78.355300 Eps(inf)=   1.777849
 ------------------------------------------------------------------------------
 Spheres list:
 ISph  on   Nord    Re0     Alpha      Xe            Ye            Ze
    1   O      1    1.520   1.000      1.141046      0.360346      0.011365
    2   H      2    1.200   1.000      2.806336      0.734254      0.039493
    3   O      3    1.520   1.000      3.361801     -0.202005     -0.111207
    4   H      4    1.200   1.000      3.833318     -0.329397      0.730318
    5   I      5    1.980   1.000     -0.804952     -0.031539      0.000546
 ------------------------------------------------------------------------------
 ------------------------------------------------------------------------------
 Atomic radii for non-electrostatic terms: SMD-CDS.
 ------------------------------------------------------------------------------
 Nuclear repulsion after PCM non-electrostatic terms =       51.0688702569 Hartrees.
 One-electron integrals computed using PRISM.
   1 Symmetry operations used in ECPInt.
 ECPInt:  NShTT=     171 NPrTT=    1054 LenC2=     172 LenP2D=     910.
 LDataN:  DoStor=T MaxTD1= 4 Len=   56
 NBasis=    30 RedAO= T  NBF=    30
 NBsUse=    30 1.00D-06 NBFU=    30
 Defaulting to unpruned grid for atomic number  53.
 Initial guess read from the read-write file.
 B after Tr=     0.000000    0.000000    0.000000
         Rot=    1.000000    0.000000    0.000000    0.000000 Ang=   0.00 deg.
 Initial guess orbital symmetries:
 Alpha Orbitals:
       Occupied  (A) (A) (A) (A) (A) (A) (A) (A) (A) (A) (A) (A)
                 (A)
       Virtual   (A) (A) (A) (A) (A) (A) (A) (A) (A) (A) (A) (A)
                 (A) (A) (A) (A) (A)
 Beta  Orbitals:
       Occupied  (A) (A) (A) (A) (A) (A) (A) (A) (A) (A) (A) (A)
       Virtual   (A) (A) (A) (A) (A) (A) (A) (A) (A) (A) (A) (A)
                 (A) (A) (A) (A) (A) (A)
 Initial guess <Sx>= 0.0000 <Sy>= 0.0000 <Sz>= 0.5000 <S**2>= 0.7582 S= 0.5041
 Harris functional with IExCor= 1009 diagonalized for initial guess.
 ExpMin= 1.05D-01 ExpMax= 7.82D+03 ExpMxC= 2.73D+02 IAcc=1 IRadAn=         1 AccDes= 0.00D+00
 HarFok:  IExCor= 1009 AccDes= 0.00D+00 IRadAn=         1 IDoV= 1
 ScaDFX=  1.000000  1.000000  1.000000  1.000000
 Defaulting to unpruned grid for atomic number  53.
 Defaulting to unpruned grid for atomic number  53.
 Defaulting to unpruned grid for atomic number  53.
 Defaulting to unpruned grid for atomic number  53.
 FoFCou: FMM=F IPFlag=           0 FMFlag=      100000 FMFlg1=           0
         NFxFlg=           0 DoJE=T BraDBF=F KetDBF=T FulRan=T
         Omega=  0.000000  0.000000  1.000000  0.000000  0.000000 ICntrl=     500 IOpCl=  0
         NMat0=    1 NMatS0=    1 NMatT0=    0 NMatD0=    1 NMtDS0=    0 NMtDT0=    0
         I1Cent=           4 NGrid=           0.
 Petite list used in FoFCou.
 Requested convergence on RMS density matrix=1.00D-08 within 128 cycles.
 Requested convergence on MAX density matrix=1.00D-06.
 Requested convergence on             energy=1.00D-06.
 No special actions if energy rises.
 Keep R1 and R2 ints in memory in canonical form, NReq=3526480.
 Defaulting to unpruned grid for atomic number  53.
 Defaulting to unpruned grid for atomic number  53.
 Defaulting to unpruned grid for atomic number  53.
 Defaulting to unpruned grid for atomic number  53.
 Error on total polarization charges =  0.05995
 SCF Done:  E(UM062X) =  -162.813793903     A.U. after   19 cycles
             Convg  =    0.2384D-08             -V/T =  2.0589
 <Sx>= 0.0000 <Sy>= 0.0000 <Sz>= 0.5000 <S**2>= 0.7580 S= 0.5040
 <L.S>= 0.000000000000E+00
 SMD-CDS (non-electrostatic) energy             (kcal/mol) =       1.17
 (included in total energy above)
 Annihilation of the first spin contaminant:
 S**2 before annihilation     0.7580,   after     0.7500
   1 Symmetry operations used in ECPInt.
 ECPInt:  NShTT=     171 NPrTT=    1054 LenC2=     172 LenP2D=     910.
 LDataN:  DoStor=T MaxTD1= 5 Len=  102
 D1PCM: PCM CHGder 1st derivatives, ID1Alg=3 FixD1E=F DoIter=F DoCFld=F I1PDM=0.
 Calling FoFJK, ICntrl=      2127 FMM=F ISym2X=0 I1Cent= 0 IOpClX= 1 NMat=1 NMatS=1 NMatT=0.
 Defaulting to unpruned grid for atomic number  53.
 Defaulting to unpruned grid for atomic number  53.
 Defaulting to unpruned grid for atomic number  53.
 Defaulting to unpruned grid for atomic number  53.
 ***** Axes restored to original set *****
 -------------------------------------------------------------------
 Center     Atomic                   Forces (Hartrees/Bohr)
 Number     Number              X              Y              Z
 -------------------------------------------------------------------
      1        8          -0.032293363   -0.000463642   -0.001006387
      2        1           0.049972878   -0.010970212    0.060608973
      3        8          -0.031076162    0.006361342   -0.061822243
      4        1           0.007188630    0.004914599    0.004405312
      5       53           0.006208017    0.000157913   -0.002185655
 -------------------------------------------------------------------
 Cartesian Forces:  Max     0.061822243 RMS     0.028637892

 GradGradGradGradGradGradGradGradGradGradGradGradGradGradGradGradGradGrad
 Berny optimization.
 Internal  Forces:  Max     0.074950190 RMS     0.026062009
 Search for a saddle point.
 Step number   2 out of a maximum of   20
 All quantities printed in internal units (Hartrees-Bohrs-Radians)
 Swaping is turned off.
 Update second derivatives using D2CorX and points    1    2
 The second derivative matrix:
                          R1        R2        R3        R4        R5
           R1          -0.02265
           R2           0.01209   0.00136
           R3          -0.00627   0.02437   0.14720
           R4           0.00143  -0.01723   0.00324   0.14309
           R5           0.00049   0.00600  -0.00141  -0.00587   0.58682
           A1           0.00391   0.00841   0.00107  -0.01904   0.00033
           A2           0.00742  -0.00458   0.00194  -0.02962   0.00240
           A3           0.01388  -0.03075   0.00347   0.00782  -0.00464
           A4          -0.02365   0.02966  -0.00231  -0.01690   0.01342
           D1           0.01964  -0.01774   0.00219   0.02283  -0.00005
                          A1        A2        A3        A4        D1
           A1           0.00618
           A2           0.01600   0.01567
           A3          -0.00174  -0.01298  -0.09154
           A4           0.00671   0.00983   0.14414  -0.13501
           D1          -0.00643  -0.00582  -0.11912   0.17507  -0.12493
     Eigenvalues ---   -0.40343  -0.02731  -0.01365   0.00484   0.02114
     Eigenvalues ---    0.05045   0.15133   0.15725   0.587281000.00000
 Eigenvectors required to have negative eigenvalues:
                          A4        D1        A3        R2        A1
   1                    0.60764  -0.57553  -0.48552  -0.13545   0.13393
                          A2        R1        R4        R3        R5
   1                    0.10232   0.09391   0.08920   0.01379  -0.00950
 RFO step:  Lambda0=9.494492796D-05 Lambda=-4.00131434D-02.
 Linear search not attempted -- option 19 set.
 Maximum step size (   0.030) exceeded in Quadratic search.
    -- Step size scaled by   0.053
 Iteration  1 RMS(Cart)=  0.01187390 RMS(Int)=  0.00009736
 Iteration  2 RMS(Cart)=  0.00010223 RMS(Int)=  0.00000907
 Iteration  3 RMS(Cart)=  0.00000009 RMS(Int)=  0.00000907
 Variable       Old X    -DE/DX   Delta X   Delta X   Delta X     New X
                                 (Linear)    (Quad)   (Total)
    R1        3.22573  -0.00097   0.00000  -0.00168  -0.00168   3.22405
    R2        4.33527   0.02491   0.00000   0.02134   0.02134   4.35661
    R3        3.75128  -0.00652   0.00000  -0.00434  -0.00434   3.74695
    R4        2.07684  -0.07495   0.00000  -0.01752  -0.01753   2.05931
    R5        1.83870   0.00767   0.00000   0.00015   0.00015   1.83884
    A1        3.11685   0.01555   0.00000   0.00721   0.00719   3.12404
    A2        2.69119   0.01226   0.00000   0.00339   0.00337   2.69456
    A3        2.04316   0.00374   0.00000   0.00255   0.00255   2.04571
    A4        1.81097   0.00639   0.00000   0.00612   0.00612   1.81709
    D1       -1.68536   0.00222   0.00000  -0.00296  -0.00296  -1.68832
         Item               Value     Threshold  Converged?
 Maximum Force            0.074950     0.000450     NO 
 RMS     Force            0.026062     0.000300     NO 
 Maximum Displacement     0.025140     0.001800     NO 
 RMS     Displacement     0.011944     0.001200     NO 
 Predicted change in Energy=-2.034746D-03
 GradGradGradGradGradGradGradGradGradGradGradGradGradGradGradGradGradGrad

                          Input orientation:                          
 ---------------------------------------------------------------------
 Center     Atomic      Atomic             Coordinates (Angstroms)
 Number     Number       Type             X           Y           Z
 ---------------------------------------------------------------------
      1          8           0       -1.597171    0.716019    0.085887
      2          1           0       -0.032661    0.806257   -0.588589
      3          8           0        0.704992    0.715347    0.208365
      4          1           0        1.150234    1.580512    0.219353
      5         53           0       -3.427922    0.628522    0.842315
 ---------------------------------------------------------------------
                    Distance matrix (angstroms):
                    1          2          3          4          5
     1  O    0.000000
     2  H    1.706092   0.000000
     3  O    2.305418   1.089739   0.000000
     4  H    2.883296   1.628338   0.973074   0.000000
     5  I    1.982798   3.688749   4.182153   4.717402   0.000000
 Stoichiometry    H2IO2(2)
 Framework group  C1[X(H2IO2)]
 Deg. of freedom     9
 Full point group                 C1      NOp   1
 Largest Abelian subgroup         C1      NOp   1
 Largest concise Abelian subgroup C1      NOp   1
                         Standard orientation:                         
 ---------------------------------------------------------------------
 Center     Atomic      Atomic             Coordinates (Angstroms)
 Number     Number       Type             X           Y           Z
 ---------------------------------------------------------------------
      1          8           0        1.137844    0.358976    0.011650
      2          1           0        2.805175    0.719672    0.037278
      3          8           0        3.371191   -0.199662   -0.110988
      4          1           0        3.845433   -0.324454    0.729486
      5         53           0       -0.806092   -0.031504    0.000527
 ---------------------------------------------------------------------
 Rotational constants (GHZ):    121.8010538      1.6565591      1.6416510
 Standard basis: LANL2DZ (5D, 7F)
 There are    30 symmetry adapted basis functions of A   symmetry.
 Integral buffers will be    262144 words long.
 Raffenetti 2 integral format.
 Two-electron integral symmetry is turned on.
    30 basis functions,    70 primitive gaussians,    30 cartesian basis functions
    13 alpha electrons       12 beta electrons
       nuclear repulsion energy        51.0210125775 Hartrees.
 NAtoms=    5 NActive=    5 NUniq=    5 SFac= 7.50D-01 NAtFMM=   80 NAOKFM=F Big=F
 ------------------------------------------------------------------------------
 Polarizable Continuum Model (PCM)
 =================================
 Model                : PCM.
 Atomic radii         : SMD-Coulomb.
 Polarization charges : Total charges.
 Charge compensation  : None.
 Solution method      : Matrix inversion.
 Cavity type          : VdW (van der Waals Surface) (Alpha=1.000).
 Cavity algorithm     : GePol (No added spheres)
                        Default sphere list used, NSphG=    5.
                        Lebedev-Laikov grids with approx.  5.0 points / Ang**2.
                        Smoothing algorithm: Karplus/York (Gamma=1.0000).
                        Polarization charges: spherical gaussians, with
                                              point-specific exponents (IZeta= 3).
                        Self-potential: point-specific (ISelfS= 7).
                        Self-field    : sphere-specific E.n sum rule (ISelfD= 2).
 1st derivatives      : Analytical E(r).r(x)/FMM algorithm (CHGder, D1EAlg=3).
                        Cavity 1st derivative terms included.
 Solvent              : Water, Eps=  78.355300 Eps(inf)=   1.777849
 ------------------------------------------------------------------------------
 Spheres list:
 ISph  on   Nord    Re0     Alpha      Xe            Ye            Ze
    1   O      1    1.520   1.000      1.137844      0.358976      0.011650
    2   H      2    1.200   1.000      2.805175      0.719672      0.037278
    3   O      3    1.520   1.000      3.371191     -0.199662     -0.110988
    4   H      4    1.200   1.000      3.845433     -0.324454      0.729486
    5   I      5    1.980   1.000     -0.806092     -0.031504      0.000527
 ------------------------------------------------------------------------------
 ------------------------------------------------------------------------------
 Atomic radii for non-electrostatic terms: SMD-CDS.
 ------------------------------------------------------------------------------
 Nuclear repulsion after PCM non-electrostatic terms =       51.0228692734 Hartrees.
 One-electron integrals computed using PRISM.
   1 Symmetry operations used in ECPInt.
 ECPInt:  NShTT=     171 NPrTT=    1054 LenC2=     172 LenP2D=     910.
 LDataN:  DoStor=T MaxTD1= 4 Len=   56
 NBasis=    30 RedAO= T  NBF=    30
 NBsUse=    30 1.00D-06 NBFU=    30
 Defaulting to unpruned grid for atomic number  53.
 Initial guess read from the read-write file.
 B after Tr=     0.000000    0.000000    0.000000
         Rot=    1.000000    0.000000    0.000000    0.000000 Ang=   0.00 deg.
 Initial guess orbital symmetries:
 Alpha Orbitals:
       Occupied  (A) (A) (A) (A) (A) (A) (A) (A) (A) (A) (A) (A)
                 (A)
       Virtual   (A) (A) (A) (A) (A) (A) (A) (A) (A) (A) (A) (A)
                 (A) (A) (A) (A) (A)
 Beta  Orbitals:
       Occupied  (A) (A) (A) (A) (A) (A) (A) (A) (A) (A) (A) (A)
       Virtual   (A) (A) (A) (A) (A) (A) (A) (A) (A) (A) (A) (A)
                 (A) (A) (A) (A) (A) (A)
 Initial guess <Sx>= 0.0000 <Sy>= 0.0000 <Sz>= 0.5000 <S**2>= 0.7580 S= 0.5040
 Harris functional with IExCor= 1009 diagonalized for initial guess.
 ExpMin= 1.05D-01 ExpMax= 7.82D+03 ExpMxC= 2.73D+02 IAcc=1 IRadAn=         1 AccDes= 0.00D+00
 HarFok:  IExCor= 1009 AccDes= 0.00D+00 IRadAn=         1 IDoV= 1
 ScaDFX=  1.000000  1.000000  1.000000  1.000000
 Defaulting to unpruned grid for atomic number  53.
 Defaulting to unpruned grid for atomic number  53.
 Defaulting to unpruned grid for atomic number  53.
 Defaulting to unpruned grid for atomic number  53.
 FoFCou: FMM=F IPFlag=           0 FMFlag=      100000 FMFlg1=           0
         NFxFlg=           0 DoJE=T BraDBF=F KetDBF=T FulRan=T
         Omega=  0.000000  0.000000  1.000000  0.000000  0.000000 ICntrl=     500 IOpCl=  0
         NMat0=    1 NMatS0=    1 NMatT0=    0 NMatD0=    1 NMtDS0=    0 NMtDT0=    0
         I1Cent=           4 NGrid=           0.
 Petite list used in FoFCou.
 Requested convergence on RMS density matrix=1.00D-08 within 128 cycles.
 Requested convergence on MAX density matrix=1.00D-06.
 Requested convergence on             energy=1.00D-06.
 No special actions if energy rises.
 Keep R1 and R2 ints in memory in canonical form, NReq=3526407.
 Defaulting to unpruned grid for atomic number  53.
 Defaulting to unpruned grid for atomic number  53.
 Defaulting to unpruned grid for atomic number  53.
 Defaulting to unpruned grid for atomic number  53.
 Error on total polarization charges =  0.05985
 SCF Done:  E(UM062X) =  -162.815823438     A.U. after   18 cycles
             Convg  =    0.4067D-08             -V/T =  2.0588
 <Sx>= 0.0000 <Sy>= 0.0000 <Sz>= 0.5000 <S**2>= 0.7578 S= 0.5039
 <L.S>= 0.000000000000E+00
 SMD-CDS (non-electrostatic) energy             (kcal/mol) =       1.17
 (included in total energy above)
 Annihilation of the first spin contaminant:
 S**2 before annihilation     0.7578,   after     0.7500
   1 Symmetry operations used in ECPInt.
 ECPInt:  NShTT=     171 NPrTT=    1054 LenC2=     172 LenP2D=     910.
 LDataN:  DoStor=T MaxTD1= 5 Len=  102
 D1PCM: PCM CHGder 1st derivatives, ID1Alg=3 FixD1E=F DoIter=F DoCFld=F I1PDM=0.
 Calling FoFJK, ICntrl=      2127 FMM=F ISym2X=0 I1Cent= 0 IOpClX= 1 NMat=1 NMatS=1 NMatT=0.
 Defaulting to unpruned grid for atomic number  53.
 Defaulting to unpruned grid for atomic number  53.
 Defaulting to unpruned grid for atomic number  53.
 Defaulting to unpruned grid for atomic number  53.
 ***** Axes restored to original set *****
 -------------------------------------------------------------------
 Center     Atomic                   Forces (Hartrees/Bohr)
 Number     Number              X              Y              Z
 -------------------------------------------------------------------
      1        8          -0.031217463   -0.000414579   -0.000960578
      2        1           0.048313180   -0.010658418    0.057111097
      3        8          -0.029999819    0.006378818   -0.058179634
      4        1           0.006948043    0.004546007    0.004181967
      5       53           0.005956059    0.000148172   -0.002152852
 -------------------------------------------------------------------
 Cartesian Forces:  Max     0.058179634 RMS     0.027248458

 GradGradGradGradGradGradGradGradGradGradGradGradGradGradGradGradGradGrad
 Berny optimization.
 Internal  Forces:  Max     0.071850792 RMS     0.024995204
 Search for a saddle point.
 Step number   3 out of a maximum of   20
 All quantities printed in internal units (Hartrees-Bohrs-Radians)
 Swaping is turned off.
 Update second derivatives using D2CorX and points    1    2    3
 The second derivative matrix:
                          R1        R2        R3        R4        R5
           R1          -0.02324
           R2           0.01797  -0.01113
           R3          -0.00736   0.02402   0.14791
           R4          -0.00370  -0.00655   0.00360   0.13396
           R5           0.00051   0.00626  -0.00149  -0.00611   0.58683
           A1           0.00509   0.01667  -0.00161  -0.02635   0.00051
           A2           0.00791   0.01100  -0.00211  -0.04330   0.00262
           A3           0.01525  -0.04647   0.00649   0.02155  -0.00472
           A4          -0.02302   0.05086  -0.00780  -0.03552   0.01370
           D1           0.01960  -0.03154   0.00555   0.03495  -0.00021
                          A1        A2        A3        A4        D1
           A1           0.01250
           A2           0.02391   0.02435
           A3          -0.00537  -0.01505  -0.09462
           A4           0.01735   0.02146   0.14148  -0.11942
           D1          -0.01249  -0.01207  -0.11841   0.16672  -0.12060
     Eigenvalues ---   -0.38924  -0.02686  -0.01072  -0.00017   0.02291
     Eigenvalues ---    0.05416   0.15115   0.16321   0.587341000.00000
 Eigenvectors required to have negative eigenvalues:
                          A4        D1        A3        R2        A1
   1                    0.56840  -0.55596  -0.48705  -0.23139   0.16215
                          R4        A2        R1        R3        R5
   1                    0.15458   0.12364   0.10264   0.03155  -0.00843
 RFO step:  Lambda0=5.090736793D-04 Lambda=-3.65193962D-02.
 Linear search not attempted -- option 19 set.
 Maximum step size (   0.030) exceeded in Quadratic search.
    -- Step size scaled by   0.052
 Iteration  1 RMS(Cart)=  0.00918222 RMS(Int)=  0.00074087
 Iteration  2 RMS(Cart)=  0.00068722 RMS(Int)=  0.00051508
 Iteration  3 RMS(Cart)=  0.00000612 RMS(Int)=  0.00051507
 Iteration  4 RMS(Cart)=  0.00000303 RMS(Int)=  0.00051507
 Iteration  5 RMS(Cart)=  0.00000148 RMS(Int)=  0.00051507
 Iteration  6 RMS(Cart)=  0.00000073 RMS(Int)=  0.00051507
 Variable       Old X    -DE/DX   Delta X   Delta X   Delta X     New X
                                 (Linear)    (Quad)   (Total)
    R1        3.22405  -0.00139   0.00000  -0.00916  -0.00899   3.21505
    R2        4.35661   0.02473   0.00000   0.01142   0.01127   4.36788
    R3        3.74695  -0.00628   0.00000  -0.00255  -0.00255   3.74439
    R4        2.05931  -0.07185   0.00000  -0.01799  -0.01793   2.04138
    R5        1.83884   0.00725   0.00000   0.00017   0.00017   1.83901
    A1        3.12404   0.01443   0.00000   0.01591   0.01474   3.13879
    A2        2.69456   0.01089   0.00000  -0.00640  -0.00640   2.68816
    A3        2.04571   0.00428   0.00000  -0.00550  -0.00607   2.03964
    A4        1.81709   0.00527   0.00000   0.00539   0.00620   1.82329
    D1       -1.68832   0.00262   0.00000  -0.00144  -0.00195  -1.69027
         Item               Value     Threshold  Converged?
 Maximum Force            0.071851     0.000450     NO 
 RMS     Force            0.024995     0.000300     NO 
 Maximum Displacement     0.019915     0.001800     NO 
 RMS     Displacement     0.009287     0.001200     NO 
 Predicted change in Energy=-1.714208D-03
 GradGradGradGradGradGradGradGradGradGradGradGradGradGradGradGradGradGrad

                          Input orientation:                          
 ---------------------------------------------------------------------
 Center     Atomic      Atomic             Coordinates (Angstroms)
 Number     Number       Type             X           Y           Z
 ---------------------------------------------------------------------
      1          8           0       -1.600383    0.719620    0.078607
      2          1           0       -0.033125    0.803526   -0.578050
      3          8           0        0.707636    0.714472    0.203155
      4          1           0        1.149050    1.581612    0.219622
      5         53           0       -3.425708    0.627427    0.843997
 ---------------------------------------------------------------------
                    Distance matrix (angstroms):
                    1          2          3          4          5
     1  O    0.000000
     2  H    1.701334   0.000000
     3  O    2.311383   1.080250   0.000000
     4  H    2.884839   1.624573   0.973165   0.000000
     5  I    1.981447   3.682777   4.183633   4.714735   0.000000
 Stoichiometry    H2IO2(2)
 Framework group  C1[X(H2IO2)]
 Deg. of freedom     9
 Full point group                 C1      NOp   1
 Largest Abelian subgroup         C1      NOp   1
 Largest concise Abelian subgroup C1      NOp   1
                         Standard orientation:                         
 ---------------------------------------------------------------------
 Center     Atomic      Atomic             Coordinates (Angstroms)
 Number     Number       Type             X           Y           Z
 ---------------------------------------------------------------------
      1          8           0        1.135311    0.365253    0.013543
      2          1           0        2.802152    0.705726    0.029574
      3          8           0        3.372892   -0.200565   -0.111249
      4          1           0        3.842528   -0.325598    0.731875
      5         53           0       -0.805855   -0.032031    0.000381
 ---------------------------------------------------------------------
 Rotational constants (GHZ):    119.8180051      1.6565045      1.6412757
 Standard basis: LANL2DZ (5D, 7F)
 There are    30 symmetry adapted basis functions of A   symmetry.
 Integral buffers will be    262144 words long.
 Raffenetti 2 integral format.
 Two-electron integral symmetry is turned on.
    30 basis functions,    70 primitive gaussians,    30 cartesian basis functions
    13 alpha electrons       12 beta electrons
       nuclear repulsion energy        51.0334903984 Hartrees.
 NAtoms=    5 NActive=    5 NUniq=    5 SFac= 7.50D-01 NAtFMM=   80 NAOKFM=F Big=F
 ------------------------------------------------------------------------------
 Polarizable Continuum Model (PCM)
 =================================
 Model                : PCM.
 Atomic radii         : SMD-Coulomb.
 Polarization charges : Total charges.
 Charge compensation  : None.
 Solution method      : Matrix inversion.
 Cavity type          : VdW (van der Waals Surface) (Alpha=1.000).
 Cavity algorithm     : GePol (No added spheres)
                        Default sphere list used, NSphG=    5.
                        Lebedev-Laikov grids with approx.  5.0 points / Ang**2.
                        Smoothing algorithm: Karplus/York (Gamma=1.0000).
                        Polarization charges: spherical gaussians, with
                                              point-specific exponents (IZeta= 3).
                        Self-potential: point-specific (ISelfS= 7).
                        Self-field    : sphere-specific E.n sum rule (ISelfD= 2).
 1st derivatives      : Analytical E(r).r(x)/FMM algorithm (CHGder, D1EAlg=3).
                        Cavity 1st derivative terms included.
 Solvent              : Water, Eps=  78.355300 Eps(inf)=   1.777849
 ------------------------------------------------------------------------------
 Spheres list:
 ISph  on   Nord    Re0     Alpha      Xe            Ye            Ze
    1   O      1    1.520   1.000      1.135311      0.365253      0.013543
    2   H      2    1.200   1.000      2.802152      0.705726      0.029574
    3   O      3    1.520   1.000      3.372892     -0.200565     -0.111249
    4   H      4    1.200   1.000      3.842528     -0.325598      0.731875
    5   I      5    1.980   1.000     -0.805855     -0.032031      0.000381
 ------------------------------------------------------------------------------
 ------------------------------------------------------------------------------
 Atomic radii for non-electrostatic terms: SMD-CDS.
 ------------------------------------------------------------------------------
 Nuclear repulsion after PCM non-electrostatic terms =       51.0353337336 Hartrees.
 One-electron integrals computed using PRISM.
   1 Symmetry operations used in ECPInt.
 ECPInt:  NShTT=     171 NPrTT=    1054 LenC2=     172 LenP2D=     910.
 LDataN:  DoStor=T MaxTD1= 4 Len=   56
 NBasis=    30 RedAO= T  NBF=    30
 NBsUse=    30 1.00D-06 NBFU=    30
 Defaulting to unpruned grid for atomic number  53.
 Initial guess read from the read-write file.
 B after Tr=     0.000000    0.000000    0.000000
         Rot=    1.000000    0.000000    0.000000    0.000000 Ang=   0.00 deg.
 Initial guess orbital symmetries:
 Alpha Orbitals:
       Occupied  (A) (A) (A) (A) (A) (A) (A) (A) (A) (A) (A) (A)
                 (A)
       Virtual   (A) (A) (A) (A) (A) (A) (A) (A) (A) (A) (A) (A)
                 (A) (A) (A) (A) (A)
 Beta  Orbitals:
       Occupied  (A) (A) (A) (A) (A) (A) (A) (A) (A) (A) (A) (A)
       Virtual   (A) (A) (A) (A) (A) (A) (A) (A) (A) (A) (A) (A)
                 (A) (A) (A) (A) (A) (A)
 Initial guess <Sx>= 0.0000 <Sy>= 0.0000 <Sz>= 0.5000 <S**2>= 0.7578 S= 0.5039
 Requested convergence on RMS density matrix=1.00D-08 within 128 cycles.
 Requested convergence on MAX density matrix=1.00D-06.
 Requested convergence on             energy=1.00D-06.
 No special actions if energy rises.
 Keep R1 and R2 ints in memory in canonical form, NReq=3526407.
 Defaulting to unpruned grid for atomic number  53.
 Defaulting to unpruned grid for atomic number  53.
 Defaulting to unpruned grid for atomic number  53.
 Defaulting to unpruned grid for atomic number  53.
 Error on total polarization charges =  0.05978
 SCF Done:  E(UM062X) =  -162.817551365     A.U. after   17 cycles
             Convg  =    0.5505D-08             -V/T =  2.0587
 <Sx>= 0.0000 <Sy>= 0.0000 <Sz>= 0.5000 <S**2>= 0.7576 S= 0.5038
 <L.S>= 0.000000000000E+00
 SMD-CDS (non-electrostatic) energy             (kcal/mol) =       1.16
 (included in total energy above)
 Annihilation of the first spin contaminant:
 S**2 before annihilation     0.7576,   after     0.7500
   1 Symmetry operations used in ECPInt.
 ECPInt:  NShTT=     171 NPrTT=    1054 LenC2=     172 LenP2D=     910.
 LDataN:  DoStor=T MaxTD1= 5 Len=  102
 D1PCM: PCM CHGder 1st derivatives, ID1Alg=3 FixD1E=F DoIter=F DoCFld=F I1PDM=0.
 Calling FoFJK, ICntrl=      2127 FMM=F ISym2X=0 I1Cent= 0 IOpClX= 1 NMat=1 NMatS=1 NMatT=0.
 Defaulting to unpruned grid for atomic number  53.
 Defaulting to unpruned grid for atomic number  53.
 Defaulting to unpruned grid for atomic number  53.
 Defaulting to unpruned grid for atomic number  53.
 ***** Axes restored to original set *****
 -------------------------------------------------------------------
 Center     Atomic                   Forces (Hartrees/Bohr)
 Number     Number              X              Y              Z
 -------------------------------------------------------------------
      1        8          -0.030637512   -0.000233254   -0.000886288
      2        1           0.046226925   -0.010162048    0.053543488
      3        8          -0.028012149    0.006075044   -0.054463030
      4        1           0.006641669    0.004224771    0.004019595
      5       53           0.005781068    0.000095487   -0.002213765
 -------------------------------------------------------------------
 Cartesian Forces:  Max     0.054463030 RMS     0.025756364

 GradGradGradGradGradGradGradGradGradGradGradGradGradGradGradGradGradGrad
 Berny optimization.
 Internal  Forces:  Max     0.071813436 RMS     0.024597676
 Search for a saddle point.
 Step number   4 out of a maximum of   20
 All quantities printed in internal units (Hartrees-Bohrs-Radians)
 Swaping is turned off.
 Update second derivatives using D2CorX and points    1    2    3    4
 The second derivative matrix:
                          R1        R2        R3        R4        R5
           R1          -0.02785
           R2           0.04292  -0.10029
           R3          -0.00897   0.03536   0.14720
           R4          -0.03414   0.10377  -0.01012  -0.00262
           R5           0.00032   0.00626  -0.00159  -0.00614   0.58684
           A1          -0.10676   0.23123  -0.05560  -0.30254   0.00392
           A2          -0.08740   0.22299  -0.04679  -0.31308   0.00489
           A3          -0.00808   0.01308  -0.00457  -0.05363  -0.00428
           A4           0.01132  -0.04086   0.00873   0.07986   0.01309
           D1           0.00004   0.01728  -0.00393  -0.02669   0.00021
                          A1        A2        A3        A4        D1
           A1           0.44161
           A2           0.15109  -0.05235
           A3          -0.02304  -0.07089  -0.11656
           A4           0.06613   0.12116   0.17854  -0.18139
           D1          -0.01388  -0.04836  -0.13463   0.19495  -0.13244
     Eigenvalues ---   -0.55851  -0.15656  -0.01286  -0.00116   0.03496
     Eigenvalues ---    0.06564   0.15098   0.44353   0.588401000.00000
 Eigenvectors required to have negative eigenvalues:
                          A2        R2        R4        R1        A4
   1                    0.61236  -0.52887   0.51977   0.23849  -0.08614
                          R3        A1        A3        R5        D1
   1                    0.08313   0.05400   0.03170   0.00402   0.00115
 RFO step:  Lambda0=5.244264302D-03 Lambda=-1.58278975D-01.
 Linear search not attempted -- option 19 set.
 Maximum step size (   0.030) exceeded in Quadratic search.
    -- Step size scaled by   0.051
 Iteration  1 RMS(Cart)=  0.00833739 RMS(Int)=  0.00041518
 Iteration  2 RMS(Cart)=  0.00038986 RMS(Int)=  0.00029248
 Iteration  3 RMS(Cart)=  0.00000810 RMS(Int)=  0.00029245
 Iteration  4 RMS(Cart)=  0.00000125 RMS(Int)=  0.00029245
 Iteration  5 RMS(Cart)=  0.00000019 RMS(Int)=  0.00029245
 Variable       Old X    -DE/DX   Delta X   Delta X   Delta X     New X
                                 (Linear)    (Quad)   (Total)
    R1        3.21505  -0.00186   0.00000   0.02532   0.02534   3.24040
    R2        4.36788   0.02658   0.00000  -0.00439  -0.00436   4.36352
    R3        3.74439  -0.00613   0.00000   0.00081   0.00081   3.74521
    R4        2.04138  -0.07181   0.00000  -0.01048  -0.01060   2.03078
    R5        1.83901   0.00683   0.00000   0.00039   0.00039   1.83941
    A1        3.13879  -0.00082   0.00000  -0.00138  -0.00204   3.13674
    A2        2.68816  -0.00198   0.00000   0.00308   0.00266   2.69082
    A3        2.03964   0.00089   0.00000  -0.00082  -0.00106   2.03858
    A4        1.82329   0.00968   0.00000  -0.00122  -0.00087   1.82242
    D1       -1.69027  -0.00045   0.00000   0.01075   0.01053  -1.67974
         Item               Value     Threshold  Converged?
 Maximum Force            0.071813     0.000450     NO 
 RMS     Force            0.024598     0.000300     NO 
 Maximum Displacement     0.018774     0.001800     NO 
 RMS     Displacement     0.008442     0.001200     NO 
 Predicted change in Energy=-5.841411D-04
 GradGradGradGradGradGradGradGradGradGradGradGradGradGradGradGradGradGrad

                          Input orientation:                          
 ---------------------------------------------------------------------
 Center     Atomic      Atomic             Coordinates (Angstroms)
 Number     Number       Type             X           Y           Z
 ---------------------------------------------------------------------
      1          8           0       -1.601220    0.718351    0.081410
      2          1           0       -0.023190    0.802531   -0.584238
      3          8           0        0.704735    0.714333    0.201384
      4          1           0        1.144630    1.582371    0.222754
      5         53           0       -3.427483    0.629071    0.846021
 ---------------------------------------------------------------------
                    Distance matrix (angstroms):
                    1          2          3          4          5
     1  O    0.000000
     2  H    1.714745   0.000000
     3  O    2.309077   1.074642   0.000000
     4  H    2.882047   1.619626   0.973372   0.000000
     5  I    1.981877   3.696612   4.183067   4.711842   0.000000
 Stoichiometry    H2IO2(2)
 Framework group  C1[X(H2IO2)]
 Deg. of freedom     9
 Full point group                 C1      NOp   1
 Largest Abelian subgroup         C1      NOp   1
 Largest concise Abelian subgroup C1      NOp   1
                         Standard orientation:                         
 ---------------------------------------------------------------------
 Center     Atomic      Atomic             Coordinates (Angstroms)
 Number     Number       Type             X           Y           Z
 ---------------------------------------------------------------------
      1          8           0        1.136071    0.362929    0.014811
      2          1           0        2.815492    0.708627    0.034543
      3          8           0        3.372176   -0.198802   -0.112199
      4          1           0        3.838859   -0.335857    0.730936
      5         53           0       -0.806044   -0.031807    0.000257
 ---------------------------------------------------------------------
 Rotational constants (GHZ):    120.5691586      1.6563186      1.6412541
 Standard basis: LANL2DZ (5D, 7F)
 There are    30 symmetry adapted basis functions of A   symmetry.
 Integral buffers will be    262144 words long.
 Raffenetti 2 integral format.
 Two-electron integral symmetry is turned on.
    30 basis functions,    70 primitive gaussians,    30 cartesian basis functions
    13 alpha electrons       12 beta electrons
       nuclear repulsion energy        51.0450270741 Hartrees.
 NAtoms=    5 NActive=    5 NUniq=    5 SFac= 7.50D-01 NAtFMM=   80 NAOKFM=F Big=F
 ------------------------------------------------------------------------------
 Polarizable Continuum Model (PCM)
 =================================
 Model                : PCM.
 Atomic radii         : SMD-Coulomb.
 Polarization charges : Total charges.
 Charge compensation  : None.
 Solution method      : Matrix inversion.
 Cavity type          : VdW (van der Waals Surface) (Alpha=1.000).
 Cavity algorithm     : GePol (No added spheres)
                        Default sphere list used, NSphG=    5.
                        Lebedev-Laikov grids with approx.  5.0 points / Ang**2.
                        Smoothing algorithm: Karplus/York (Gamma=1.0000).
                        Polarization charges: spherical gaussians, with
                                              point-specific exponents (IZeta= 3).
                        Self-potential: point-specific (ISelfS= 7).
                        Self-field    : sphere-specific E.n sum rule (ISelfD= 2).
 1st derivatives      : Analytical E(r).r(x)/FMM algorithm (CHGder, D1EAlg=3).
                        Cavity 1st derivative terms included.
 Solvent              : Water, Eps=  78.355300 Eps(inf)=   1.777849
 ------------------------------------------------------------------------------
 Spheres list:
 ISph  on   Nord    Re0     Alpha      Xe            Ye            Ze
    1   O      1    1.520   1.000      1.136071      0.362929      0.014811
    2   H      2    1.200   1.000      2.815492      0.708627      0.034543
    3   O      3    1.520   1.000      3.372176     -0.198802     -0.112199
    4   H      4    1.200   1.000      3.838859     -0.335857      0.730936
    5   I      5    1.980   1.000     -0.806044     -0.031807      0.000257
 ------------------------------------------------------------------------------
 ------------------------------------------------------------------------------
 Atomic radii for non-electrostatic terms: SMD-CDS.
 ------------------------------------------------------------------------------
 Nuclear repulsion after PCM non-electrostatic terms =       51.0468782819 Hartrees.
 One-electron integrals computed using PRISM.
   1 Symmetry operations used in ECPInt.
 ECPInt:  NShTT=     171 NPrTT=    1054 LenC2=     172 LenP2D=     910.
 LDataN:  DoStor=T MaxTD1= 4 Len=   56
 NBasis=    30 RedAO= T  NBF=    30
 NBsUse=    30 1.00D-06 NBFU=    30
 Defaulting to unpruned grid for atomic number  53.
 Initial guess read from the read-write file.
 B after Tr=     0.000000    0.000000    0.000000
         Rot=    1.000000    0.000000    0.000000    0.000000 Ang=   0.00 deg.
 Initial guess orbital symmetries:
 Alpha Orbitals:
       Occupied  (A) (A) (A) (A) (A) (A) (A) (A) (A) (A) (A) (A)
                 (A)
       Virtual   (A) (A) (A) (A) (A) (A) (A) (A) (A) (A) (A) (A)
                 (A) (A) (A) (A) (A)
 Beta  Orbitals:
       Occupied  (A) (A) (A) (A) (A) (A) (A) (A) (A) (A) (A) (A)
       Virtual   (A) (A) (A) (A) (A) (A) (A) (A) (A) (A) (A) (A)
                 (A) (A) (A) (A) (A) (A)
 Initial guess <Sx>= 0.0000 <Sy>= 0.0000 <Sz>= 0.5000 <S**2>= 0.7576 S= 0.5038
 Requested convergence on RMS density matrix=1.00D-08 within 128 cycles.
 Requested convergence on MAX density matrix=1.00D-06.
 Requested convergence on             energy=1.00D-06.
 No special actions if energy rises.
 Keep R1 and R2 ints in memory in canonical form, NReq=3523836.
 Defaulting to unpruned grid for atomic number  53.
 Defaulting to unpruned grid for atomic number  53.
 Defaulting to unpruned grid for atomic number  53.
 Defaulting to unpruned grid for atomic number  53.
 Error on total polarization charges =  0.05980
 SCF Done:  E(UM062X) =  -162.818124010     A.U. after   17 cycles
             Convg  =    0.5852D-08             -V/T =  2.0587
 <Sx>= 0.0000 <Sy>= 0.0000 <Sz>= 0.5000 <S**2>= 0.7577 S= 0.5039
 <L.S>= 0.000000000000E+00
 SMD-CDS (non-electrostatic) energy             (kcal/mol) =       1.16
 (included in total energy above)
 Annihilation of the first spin contaminant:
 S**2 before annihilation     0.7577,   after     0.7500
   1 Symmetry operations used in ECPInt.
 ECPInt:  NShTT=     171 NPrTT=    1054 LenC2=     172 LenP2D=     910.
 LDataN:  DoStor=T MaxTD1= 5 Len=  102
 D1PCM: PCM CHGder 1st derivatives, ID1Alg=3 FixD1E=F DoIter=F DoCFld=F I1PDM=0.
 Calling FoFJK, ICntrl=      2127 FMM=F ISym2X=0 I1Cent= 0 IOpClX= 1 NMat=1 NMatS=1 NMatT=0.
 Defaulting to unpruned grid for atomic number  53.
 Defaulting to unpruned grid for atomic number  53.
 Defaulting to unpruned grid for atomic number  53.
 Defaulting to unpruned grid for atomic number  53.
 ***** Axes restored to original set *****
 -------------------------------------------------------------------
 Center     Atomic                   Forces (Hartrees/Bohr)
 Number     Number              X              Y              Z
 -------------------------------------------------------------------
      1        8          -0.030524594   -0.000223469   -0.000898939
      2        1           0.044080608   -0.010091073    0.052281317
      3        8          -0.025804387    0.006252896   -0.053468881
      4        1           0.006602619    0.004010550    0.004193497
      5       53           0.005645754    0.000051096   -0.002106994
 -------------------------------------------------------------------
 Cartesian Forces:  Max     0.053468881 RMS     0.025017783

 GradGradGradGradGradGradGradGradGradGradGradGradGradGradGradGradGradGrad
 Berny optimization.
 Internal  Forces:  Max     0.067772238 RMS     0.023492618
 Search for a saddle point.
 Step number   5 out of a maximum of   20
 All quantities printed in internal units (Hartrees-Bohrs-Radians)
 Swaping is turned off.
 Update second derivatives using D2CorX and points    1    2    3    4    5
 The second derivative matrix:
                          R1        R2        R3        R4        R5
           R1          -0.00024
           R2           0.03531  -0.06864
           R3          -0.00793   0.03150   0.14748
           R4          -0.09257   0.06466  -0.00275   0.13196
           R5          -0.00147   0.00532  -0.00138  -0.00489   0.58674
           A1          -0.33460   0.07449  -0.02171  -0.00729  -0.00236
           A2          -0.21060   0.12425  -0.02380  -0.14640   0.00151
           A3          -0.07521  -0.01585   0.00313   0.02893  -0.00566
           A4           0.09917   0.01241  -0.00266  -0.04517   0.01485
           D1          -0.05513  -0.02124   0.00408   0.03376  -0.00217
                          A1        A2        A3        A4        D1
           A1           0.33263
           A2           0.05798  -0.15011
           A3          -0.04110  -0.09360  -0.10997
           A4           0.03441   0.10625   0.16071  -0.14187
           D1          -0.11688  -0.10330  -0.15630   0.21494  -0.18050
     Eigenvalues ---   -0.32574  -0.07420  -0.01075   0.00848   0.02292
     Eigenvalues ---    0.06073   0.15092   0.22580   0.587231000.00000
 Eigenvectors required to have negative eigenvalues:
                          R2        A2        D1        A4        R4
   1                    0.44950  -0.42718   0.42465  -0.35738  -0.35674
                          A3        R1        A1        R3        R5
   1                    0.29473  -0.27930  -0.10149  -0.07042   0.00401
 RFO step:  Lambda0=3.830966020D-03 Lambda=-7.63881534D-02.
 Linear search not attempted -- option 19 set.
 Maximum step size (   0.030) exceeded in Quadratic search.
    -- Step size scaled by   0.052
 Iteration  1 RMS(Cart)=  0.01004897 RMS(Int)=  0.00226489
 Iteration  2 RMS(Cart)=  0.00172447 RMS(Int)=  0.00159248
 Iteration  3 RMS(Cart)=  0.00012546 RMS(Int)=  0.00159190
 Iteration  4 RMS(Cart)=  0.00007246 RMS(Int)=  0.00159172
 Iteration  5 RMS(Cart)=  0.00004135 RMS(Int)=  0.00159166
 Iteration  6 RMS(Cart)=  0.00002360 RMS(Int)=  0.00159164
 Iteration  7 RMS(Cart)=  0.00001347 RMS(Int)=  0.00159163
 Iteration  8 RMS(Cart)=  0.00000769 RMS(Int)=  0.00159163
 Iteration  9 RMS(Cart)=  0.00000439 RMS(Int)=  0.00159163
 Iteration 10 RMS(Cart)=  0.00000251 RMS(Int)=  0.00159163
 Iteration 11 RMS(Cart)=  0.00000143 RMS(Int)=  0.00159163
 Iteration 12 RMS(Cart)=  0.00000082 RMS(Int)=  0.00159163
 Variable       Old X    -DE/DX   Delta X   Delta X   Delta X     New X
                                 (Linear)    (Quad)   (Total)
    R1        3.24040  -0.00221   0.00000   0.01725   0.01668   3.25708
    R2        4.36352   0.02608   0.00000   0.01668   0.01760   4.38112
    R3        3.74521  -0.00596   0.00000  -0.00204  -0.00204   3.74316
    R4        2.03078  -0.06777   0.00000  -0.00472  -0.00579   2.02499
    R5        1.83941   0.00663   0.00000   0.00020   0.00020   1.83960
    A1        3.13674   0.00966   0.00000   0.00280  -0.00062   3.13613
    A2        2.69082   0.00396   0.00000   0.00896   0.00593   2.69676
    A3        2.03858   0.00487   0.00000   0.00505   0.00580   2.04438
    A4        1.82242   0.00431   0.00000   0.00810   0.00702   1.82945
    D1       -1.67974   0.00317   0.00000  -0.01088  -0.01019  -1.68993
         Item               Value     Threshold  Converged?
 Maximum Force            0.067772     0.000450     NO 
 RMS     Force            0.023493     0.000300     NO 
 Maximum Displacement     0.016421     0.001800     NO 
 RMS     Displacement     0.009743     0.001200     NO 
 Predicted change in Energy=-8.578275D-04
 GradGradGradGradGradGradGradGradGradGradGradGradGradGradGradGradGradGrad

                          Input orientation:                          
 ---------------------------------------------------------------------
 Center     Atomic      Atomic             Coordinates (Angstroms)
 Number     Number       Type             X           Y           Z
 ---------------------------------------------------------------------
      1          8           0       -1.607735    0.721528    0.086004
      2          1           0       -0.020822    0.801731   -0.581815
      3          8           0        0.707884    0.716357    0.199197
      4          1           0        1.153319    1.581700    0.219810
      5         53           0       -3.435175    0.625341    0.844135
 ---------------------------------------------------------------------
                    Distance matrix (angstroms):
                    1          2          3          4          5
     1  O    0.000000
     2  H    1.723574   0.000000
     3  O    2.318390   1.071579   0.000000
     4  H    2.895033   1.621592   0.973476   0.000000
     5  I    1.980796   3.704356   4.193945   4.728497   0.000000
 Stoichiometry    H2IO2(2)
 Framework group  C1[X(H2IO2)]
 Deg. of freedom     9
 Full point group                 C1      NOp   1
 Largest Abelian subgroup         C1      NOp   1
 Largest concise Abelian subgroup C1      NOp   1
                         Standard orientation:                         
 ---------------------------------------------------------------------
 Center     Atomic      Atomic             Coordinates (Angstroms)
 Number     Number       Type             X           Y           Z
 ---------------------------------------------------------------------
      1          8           0        1.134332    0.358492    0.015630
      2          1           0        2.822367    0.706545    0.025865
      3          8           0        3.381551   -0.197186   -0.111486
      4          1           0        3.854981   -0.327242    0.729112
      5         53           0       -0.807630   -0.031505    0.000224
 ---------------------------------------------------------------------
 Rotational constants (GHZ):    122.8367654      1.6486632      1.6340931
 Standard basis: LANL2DZ (5D, 7F)
 There are    30 symmetry adapted basis functions of A   symmetry.
 Integral buffers will be    262144 words long.
 Raffenetti 2 integral format.
 Two-electron integral symmetry is turned on.
    30 basis functions,    70 primitive gaussians,    30 cartesian basis functions
    13 alpha electrons       12 beta electrons
       nuclear repulsion energy        50.9622040151 Hartrees.
 NAtoms=    5 NActive=    5 NUniq=    5 SFac= 7.50D-01 NAtFMM=   80 NAOKFM=F Big=F
 ------------------------------------------------------------------------------
 Polarizable Continuum Model (PCM)
 =================================
 Model                : PCM.
 Atomic radii         : SMD-Coulomb.
 Polarization charges : Total charges.
 Charge compensation  : None.
 Solution method      : Matrix inversion.
 Cavity type          : VdW (van der Waals Surface) (Alpha=1.000).
 Cavity algorithm     : GePol (No added spheres)
                        Default sphere list used, NSphG=    5.
                        Lebedev-Laikov grids with approx.  5.0 points / Ang**2.
                        Smoothing algorithm: Karplus/York (Gamma=1.0000).
                        Polarization charges: spherical gaussians, with
                                              point-specific exponents (IZeta= 3).
                        Self-potential: point-specific (ISelfS= 7).
                        Self-field    : sphere-specific E.n sum rule (ISelfD= 2).
 1st derivatives      : Analytical E(r).r(x)/FMM algorithm (CHGder, D1EAlg=3).
                        Cavity 1st derivative terms included.
 Solvent              : Water, Eps=  78.355300 Eps(inf)=   1.777849
 ------------------------------------------------------------------------------
 Spheres list:
 ISph  on   Nord    Re0     Alpha      Xe            Ye            Ze
    1   O      1    1.520   1.000      1.134332      0.358492      0.015630
    2   H      2    1.200   1.000      2.822367      0.706545      0.025865
    3   O      3    1.520   1.000      3.381551     -0.197186     -0.111486
    4   H      4    1.200   1.000      3.854981     -0.327242      0.729112
[...]
                        Cavity 1st derivative terms included.
 Solvent              : Water, Eps=  78.355300 Eps(inf)=   1.777849
 ------------------------------------------------------------------------------
 Spheres list:
 ISph  on   Nord    Re0     Alpha      Xe            Ye            Ze
    1   O      1    1.520   1.000      1.109981      0.281343      0.012776
    2   H      2    1.200   1.000      2.810827      0.554219      0.035761
    3   O      3    1.520   1.000      3.512347     -0.148966     -0.109788
    4   H      4    1.200   1.000      4.014653     -0.248634      0.719420
    5   I      5    1.980   1.000     -0.826493     -0.025747      0.000395
 ------------------------------------------------------------------------------
 ------------------------------------------------------------------------------
 Atomic radii for non-electrostatic terms: SMD-CDS.
 ------------------------------------------------------------------------------
 Nuclear repulsion after PCM non-electrostatic terms =       50.3047112946 Hartrees.
 One-electron integrals computed using PRISM.
   1 Symmetry operations used in ECPInt.
 ECPInt:  NShTT=     171 NPrTT=    1054 LenC2=     172 LenP2D=     910.
 LDataN:  DoStor=T MaxTD1= 4 Len=   56
 NBasis=    30 RedAO= T  NBF=    30
 NBsUse=    30 1.00D-06 NBFU=    30
 Defaulting to unpruned grid for atomic number  53.
 Initial guess read from the read-write file.
 B after Tr=     0.000000    0.000000    0.000000
         Rot=    1.000000    0.000000    0.000000    0.000000 Ang=   0.00 deg.
 Initial guess orbital symmetries:
 Alpha Orbitals:
       Occupied  (A) (A) (A) (A) (A) (A) (A) (A) (A) (A) (A) (A)
                 (A)
       Virtual   (A) (A) (A) (A) (A) (A) (A) (A) (A) (A) (A) (A)
                 (A) (A) (A) (A) (A)
 Beta  Orbitals:
       Occupied  (A) (A) (A) (A) (A) (A) (A) (A) (A) (A) (A) (A)
       Virtual   (A) (A) (A) (A) (A) (A) (A) (A) (A) (A) (A) (A)
                 (A) (A) (A) (A) (A) (A)
 Initial guess <Sx>= 0.0000 <Sy>= 0.0000 <Sz>= 0.5000 <S**2>= 0.7561 S= 0.5030
 Requested convergence on RMS density matrix=1.00D-08 within 128 cycles.
 Requested convergence on MAX density matrix=1.00D-06.
 Requested convergence on             energy=1.00D-06.
 No special actions if energy rises.
 Keep R1 and R2 ints in memory in canonical form, NReq=3531587.
 Defaulting to unpruned grid for atomic number  53.
 Defaulting to unpruned grid for atomic number  53.
 Defaulting to unpruned grid for atomic number  53.
 Defaulting to unpruned grid for atomic number  53.
 Error on total polarization charges =  0.05949
 SCF Done:  E(UM062X) =  -162.831049356     A.U. after   19 cycles
             Convg  =    0.4345D-08             -V/T =  2.0582
 <Sx>= 0.0000 <Sy>= 0.0000 <Sz>= 0.5000 <S**2>= 0.7560 S= 0.5030
 <L.S>= 0.000000000000E+00
 SMD-CDS (non-electrostatic) energy             (kcal/mol) =       1.09
 (included in total energy above)
 Annihilation of the first spin contaminant:
 S**2 before annihilation     0.7560,   after     0.7500
   1 Symmetry operations used in ECPInt.
 ECPInt:  NShTT=     171 NPrTT=    1054 LenC2=     172 LenP2D=     910.
 LDataN:  DoStor=T MaxTD1= 5 Len=  102
 D1PCM: PCM CHGder 1st derivatives, ID1Alg=3 FixD1E=F DoIter=F DoCFld=F I1PDM=0.
 Calling FoFJK, ICntrl=      2127 FMM=F ISym2X=0 I1Cent= 0 IOpClX= 1 NMat=1 NMatS=1 NMatT=0.
 Defaulting to unpruned grid for atomic number  53.
 Defaulting to unpruned grid for atomic number  53.
 Defaulting to unpruned grid for atomic number  53.
 Defaulting to unpruned grid for atomic number  53.
 ***** Axes restored to original set *****
 -------------------------------------------------------------------
 Center     Atomic                   Forces (Hartrees/Bohr)
 Number     Number              X              Y              Z
 -------------------------------------------------------------------
      1        8          -0.018639377   -0.000152905   -0.001106033
      2        1           0.017337616   -0.005321263    0.016937966
      3        8          -0.004989764    0.004889116   -0.016506626
      4        1           0.002930412    0.000498396    0.001437444
      5       53           0.003361114    0.000086656   -0.000762750
 -------------------------------------------------------------------
 Cartesian Forces:  Max     0.018639377 RMS     0.009340003

 GradGradGradGradGradGradGradGradGradGradGradGradGradGradGradGradGradGrad
 Berny optimization.
 Internal  Forces:  Max     0.026828975 RMS     0.010762158
 Search for a saddle point.
 Step number  20 out of a maximum of   20
 All quantities printed in internal units (Hartrees-Bohrs-Radians)
 Swaping is turned off.
 Update second derivatives using D2CorX and points   10   11   12   13   14
                                                     15   16   17   18   19
                                                     20
 The second derivative matrix:
                          R1        R2        R3        R4        R5
           R1          -0.09402
           R2           0.12419  -0.03262
           R3          -0.01447   0.02301   0.15033
           R4          -0.08808   0.04083  -0.00285   0.26585
           R5          -0.00415   0.00742  -0.00149  -0.00478   0.58659
           A1          -0.21838   0.02407  -0.00890   0.11913  -0.00345
           A2          -0.28952   0.08635  -0.02472  -0.11893  -0.00269
           A3           0.10618  -0.02408   0.01575   0.04105  -0.00143
           A4          -0.05143   0.03633  -0.01410  -0.05642   0.01437
           D1          -0.03645  -0.02208  -0.00033   0.04154  -0.00216
                          A1        A2        A3        A4        D1
           A1           0.92283
           A2          -0.18260  -0.42737
           A3          -0.23254  -0.32161  -0.28386
           A4          -0.12587   0.22005   0.25873  -0.02691
           D1           0.23831  -0.03341  -0.13107   0.02832   0.04927
     Eigenvalues ---   -0.52072  -0.00800   0.01568   0.03884   0.07373
     Eigenvalues ---    0.15113   0.27367   0.31054   0.587081000.00000
 Eigenvectors required to have negative eigenvalues:
                          R1        A2        R2        A4        A3
   1                    0.64419   0.59145  -0.32511   0.19678  -0.19114
                          R4        D1        R3        A1        R5
   1                    0.18689  -0.12246   0.05663   0.03329   0.00398
 RFO step:  Lambda0=4.290664014D-04 Lambda=-1.07753915D-02.
 Linear search not attempted -- option 19 set.
 Maximum step size (   0.030) exceeded in Quadratic search.
    -- Step size scaled by   0.056
 Iteration  1 RMS(Cart)=  0.01258834 RMS(Int)=  0.00017637
 Iteration  2 RMS(Cart)=  0.00014263 RMS(Int)=  0.00005908
 Iteration  3 RMS(Cart)=  0.00000132 RMS(Int)=  0.00005908
 Iteration  4 RMS(Cart)=  0.00000002 RMS(Int)=  0.00005908
 Variable       Old X    -DE/DX   Delta X   Delta X   Delta X     New X
                                 (Linear)    (Quad)   (Total)
    R1        3.25553  -0.00469   0.00000   0.00561   0.00561   3.26114
    R2        4.61788   0.01960   0.00000   0.02698   0.02699   4.64486
    R3        3.70521  -0.00341   0.00000  -0.00256  -0.00256   3.70265
    R4        1.89707  -0.02683   0.00000  -0.00250  -0.00252   1.89455
    R5        1.84171   0.00187   0.00000  -0.00017  -0.00017   1.84155
    A1        3.13434   0.00199   0.00000  -0.00111  -0.00124   3.13309
    A2        2.80247  -0.00083   0.00000   0.01050   0.01042   2.81288
    A3        2.07376   0.00205   0.00000  -0.00292  -0.00297   2.07079
    A4        1.88435   0.00276   0.00000   0.00196   0.00203   1.88638
    D1       -1.72170   0.00070   0.00000  -0.00203  -0.00206  -1.72376
         Item               Value     Threshold  Converged?
 Maximum Force            0.026829     0.000450     NO 
 RMS     Force            0.010762     0.000300     NO 
 Maximum Displacement     0.019459     0.001800     NO 
 RMS     Displacement     0.012594     0.001200     NO 
 Predicted change in Energy=-5.538399D-04
 Optimization stopped.
    -- Number of steps exceeded,  NStep=  20
    -- Flag reset to prevent archiving.
                           ----------------------------
                           ! Non-Optimized Parameters !
                           ! (Angstroms and Degrees)  !
 --------------------------                            --------------------------
 ! Name  Definition              Value          Derivative Info.                !
 --------------------------------------------------------------------------------
 ! R1    R(1,2)                  1.7257         -DE/DX =   -0.0047              !
 ! R2    R(1,3)                  2.458          -DE/DX =    0.0196              !
 ! R3    R(1,5)                  1.9594         -DE/DX =   -0.0034              !
 ! R4    R(2,3)                  1.0026         -DE/DX =   -0.0268              !
 ! R5    R(3,4)                  0.9745         -DE/DX =    0.0019              !
 ! A1    A(2,1,5)              179.5131         -DE/DX =    0.002               !
 ! A2    A(3,1,5)              161.1664         -DE/DX =   -0.0008              !
 ! A3    A(1,3,4)              118.6473         -DE/DX =    0.0021              !
 ! A4    A(2,3,4)              108.0816         -DE/DX =    0.0028              !
 ! D1    D(5,1,3,4)            -98.7641         -DE/DX =    0.0007              !
 --------------------------------------------------------------------------------
 GradGradGradGradGradGradGradGradGradGradGradGradGradGradGradGradGradGrad

                          Input orientation:                          
 ---------------------------------------------------------------------
 Center     Atomic      Atomic             Coordinates (Angstroms)
 Number     Number       Type             X           Y           Z
 ---------------------------------------------------------------------
      1          8           0       -1.666733    0.718783    0.137819
      2          1           0       -0.046594    0.835724   -0.436064
      3          8           0        0.776914    0.719548    0.126183
      4          1           0        1.246549    1.573151    0.151427
      5         53           0       -3.512663    0.599451    0.787967
 ---------------------------------------------------------------------
                    Distance matrix (angstroms):
                    1          2          3          4          5
     1  O    0.000000
     2  H    1.722750   0.000000
     3  O    2.443675   1.003884   0.000000
     4  H    3.036008   1.600363   0.974593   0.000000
     5  I    1.960711   3.683437   4.341987   4.899323   0.000000
 Stoichiometry    H2IO2(2)
 Framework group  C1[X(H2IO2)]
 Deg. of freedom     9
 Full point group                 C1      NOp   1
 Largest Abelian subgroup         C1      NOp   1
 Largest concise Abelian subgroup C1      NOp   1
                         Standard orientation:                         
 ---------------------------------------------------------------------
 Center     Atomic      Atomic             Coordinates (Angstroms)
 Number     Number       Type             X           Y           Z
 ---------------------------------------------------------------------
      1          8           0        1.109981    0.281343    0.012776
      2          1           0        2.810827    0.554219    0.035761
      3          8           0        3.512347   -0.148966   -0.109788
      4          1           0        4.014653   -0.248634    0.719420
      5         53           0       -0.826493   -0.025747    0.000395
 ---------------------------------------------------------------------
 Rotational constants (GHZ):    183.2412603      1.5549263      1.5481649

 **********************************************************************

            Population analysis using the SCF density.

 **********************************************************************

 Orbital symmetries:
 Alpha Orbitals:
       Occupied  (A) (A) (A) (A) (A) (A) (A) (A) (A) (A) (A) (A)
                 (A)
       Virtual   (A) (A) (A) (A) (A) (A) (A) (A) (A) (A) (A) (A)
                 (A) (A) (A) (A) (A)
 Beta  Orbitals:
       Occupied  (A) (A) (A) (A) (A) (A) (A) (A) (A) (A) (A) (A)
       Virtual   (A) (A) (A) (A) (A) (A) (A) (A) (A) (A) (A) (A)
                 (A) (A) (A) (A) (A) (A)
 The electronic state is 2-A.
 Alpha  occ. eigenvalues --  -19.69668 -19.61838  -1.12305  -1.10111  -0.75158
 Alpha  occ. eigenvalues --   -0.59494  -0.48845  -0.47186  -0.45107  -0.43578
 Alpha  occ. eigenvalues --   -0.38009  -0.32838  -0.31276
 Alpha virt. eigenvalues --   -0.04660   0.16857   0.26330   0.41167   0.41353
 Alpha virt. eigenvalues --    0.41664   0.63962   0.64732   0.73308   0.74210
 Alpha virt. eigenvalues --    0.82098   0.96326   1.03213   1.10699   1.30310
 Alpha virt. eigenvalues --    1.58050   9.10378
  Beta  occ. eigenvalues --  -19.68437 -19.61809  -1.11431  -1.05584  -0.73131
  Beta  occ. eigenvalues --   -0.59253  -0.45760  -0.42974  -0.42415  -0.38222
  Beta  occ. eigenvalues --   -0.35552  -0.30366
  Beta virt. eigenvalues --   -0.12076  -0.03384   0.16974   0.26527   0.41351
  Beta virt. eigenvalues --    0.41509   0.41861   0.64681   0.67778   0.73575
  Beta virt. eigenvalues --    0.76903   0.82819   0.96604   1.03340   1.11387
  Beta virt. eigenvalues --    1.33266   1.58140   9.10256
          Condensed to atoms (all electrons):
              1          2          3          4          5
     1  O    8.625059   0.012214  -0.032094   0.001548   0.065374
     2  H    0.012214   0.291022   0.274713  -0.024350   0.000301
     3  O   -0.032094   0.274713   8.351124   0.281798   0.002353
     4  H    0.001548  -0.024350   0.281798   0.315332  -0.000087
     5  I    0.065374   0.000301   0.002353  -0.000087   6.253926
 Mulliken atomic charges:
              1
     1  O   -0.672100
     2  H    0.446100
     3  O   -0.877893
     4  H    0.425759
     5  I    0.678134
 Sum of Mulliken atomic charges =   0.00000
 Mulliken charges with hydrogens summed into heavy atoms:
              1
     1  O   -0.672100
     3  O   -0.006034
     5  I    0.678134
 Sum of Mulliken charges with hydrogens summed into heavy atoms =   0.00000
          Atomic-Atomic Spin Densities.
              1          2          3          4          5
     1  O    0.811873  -0.004891  -0.003145   0.000135  -0.094776
     2  H   -0.004891  -0.000535   0.001768  -0.000210   0.000145
     3  O   -0.003145   0.001768   0.009857  -0.000038   0.000036
     4  H    0.000135  -0.000210  -0.000038  -0.000154  -0.000002
     5  I   -0.094776   0.000145   0.000036  -0.000002   0.380915
 Mulliken atomic spin densities:
              1
     1  O    0.709196
     2  H   -0.003723
     3  O    0.008478
     4  H   -0.000270
     5  I    0.286318
 Sum of Mulliken atomic spin densities =   1.00000
 Electronic spatial extent (au):  <R**2>=            568.7104
 Charge=              0.0000 electrons
 Dipole moment (field-independent basis, Debye):
    X=             -5.4137    Y=              0.7898    Z=              2.4950  Tot=              6.0131
 Quadrupole moment (field-independent basis, Debye-Ang):
   XX=            -33.7151   YY=            -30.7580   ZZ=            -32.0965
   XY=              3.4110   XZ=              9.8547   YZ=             -0.4792
 Traceless Quadrupole moment (field-independent basis, Debye-Ang):
   XX=             -1.5252   YY=              1.4319   ZZ=              0.0934
   XY=              3.4110   XZ=              9.8547   YZ=             -0.4792
 Octapole moment (field-independent basis, Debye-Ang**2):
  XXX=            -66.6758  YYY=             -0.3591  ZZZ=              2.1632  XYY=            -14.7635
  XXY=              6.8870  XXZ=             39.0224  XZZ=            -11.3856  YZZ=             -0.5941
  YYZ=              0.6393  XYZ=             -2.1464
 Hexadecapole moment (field-independent basis, Debye-Ang**3):
 XXXX=           -648.2183 YYYY=            -45.4318 ZZZZ=            -46.5225 XXXY=             20.4915
 XXXZ=            156.6161 YYYX=              4.5737 YYYZ=             -0.2245 ZZZX=              8.6381
 ZZZY=             -0.4438 XXYY=           -115.7053 XXZZ=           -106.5701 YYZZ=            -15.4786
 XXYZ=             -8.2950 YYXZ=              2.4241 ZZXY=             -0.0625
 N-N= 5.030471129457D+01 E-N=-7.165765045657D+02  KE= 2.296290278831D+02
                          Isotropic Fermi Contact Couplings
        Atom                 a.u.       MegaHertz       Gauss      10(-4) cm-1
     1  O(17)              0.09270     -56.19247     -20.05087     -18.74379
     2  H(1)              -0.00016      -0.72608      -0.25908      -0.24219
     3  O(17)              0.00447      -2.71137      -0.96748      -0.90441
     4  H(1)              -0.00016      -0.72890      -0.26009      -0.24314
     5  I(127)             0.00000       0.00100       0.00036       0.00033
 --------------------------------------------------------
       Center         ----  Spin Dipole Couplings  ----
                      3XX-RR        3YY-RR        3ZZ-RR
 --------------------------------------------------------
     1   Atom       -1.113400      2.502591     -1.389190
     2   Atom        0.035478     -0.013976     -0.021503
     3   Atom        0.022488      0.009353     -0.031841
     4   Atom        0.006626     -0.004568     -0.002058
     5   Atom       -0.004647      0.034892     -0.030245
 --------------------------------------------------------
                        XY            XZ            YZ
 --------------------------------------------------------
     1   Atom       -0.707889     -0.023210      0.125524
     2   Atom        0.006882      0.000432      0.000575
     3   Atom        0.033710     -0.006384     -0.006537
     4   Atom       -0.001483      0.004115     -0.000834
     5   Atom       -0.011327     -0.000318      0.002107
 --------------------------------------------------------


 ---------------------------------------------------------------------------------
              Anisotropic Spin Dipole Couplings in Principal Axis System
 ---------------------------------------------------------------------------------

       Atom             a.u.   MegaHertz   Gauss  10(-4) cm-1        Axes

              Baa    -1.3932   100.814    35.973    33.628  0.0027 -0.0317  0.9995
     1 O(17)  Bbb    -1.2470    90.235    32.198    30.099  0.9827  0.1854  0.0033
              Bcc     2.6403  -191.049   -68.171   -63.727 -0.1854  0.9822  0.0317
 
              Baa    -0.0215   -11.496    -4.102    -3.835  0.0018 -0.0774  0.9970
     2 H(1)   Bbb    -0.0149    -7.937    -2.832    -2.648 -0.1356  0.9878  0.0769
              Bcc     0.0364    19.433     6.934     6.482  0.9908  0.1354  0.0087
 
              Baa    -0.0329     2.381     0.849     0.794  0.0407  0.1210  0.9918
     3 O(17)  Bbb    -0.0184     1.328     0.474     0.443 -0.6413  0.7644 -0.0669
              Bcc     0.0513    -3.709    -1.323    -1.237  0.7662  0.6333 -0.1087
 
              Baa    -0.0048    -2.577    -0.920    -0.860  0.0446  0.9730  0.2265
     4 H(1)   Bbb    -0.0037    -1.950    -0.696    -0.650 -0.3884 -0.1920  0.9012
              Bcc     0.0085     4.527     1.615     1.510  0.9204 -0.1282  0.3694
 
              Baa    -0.0303    -3.258    -1.163    -1.087 -0.0020 -0.0327  0.9995
     5 I(127) Bbb    -0.0077    -0.823    -0.294    -0.275  0.9664  0.2568  0.0104
              Bcc     0.0380     4.082     1.456     1.362 -0.2570  0.9659  0.0310
 

 ---------------------------------------------------------------------------------



 NATURE WILL TELL YOU A DIRECT LIE IF SHE CAN.

                                -- CHARLES DARWIN
 Error termination request processed by link 9999.
 Error termination via Lnk1e in C:\G09W\l9999.exe at Tue Feb 02 04:34:35 2021.
 Job cpu time:  0 days  0 hours  2 minutes 40.0 seconds.
 File lengths (MBytes):  RWF=     18 Int=      0 D2E=      0 Chk=      2 Scr=      1
