 Entering Link 1 = C:\G09W\l1.exe PID=     12468.
  
 Copyright (c) 1988,1990,1992,1993,1995,1998,2003,2009, Gaussian, Inc.
                  All Rights Reserved.
  
 This is part of the Gaussian(R) 09 program.  It is based on
 the Gaussian(R) 03 system (copyright 2003, Gaussian, Inc.),
 the Gaussian(R) 98 system (copyright 1998, Gaussian, Inc.),
 the Gaussian(R) 94 system (copyright 1995, Gaussian, Inc.),
 the Gaussian 92(TM) system (copyright 1992, Gaussian, Inc.),
 the Gaussian 90(TM) system (copyright 1990, Gaussian, Inc.),
 the Gaussian 88(TM) system (copyright 1988, Gaussian, Inc.),
 the Gaussian 86(TM) system (copyright 1986, Carnegie Mellon
 University), and the Gaussian 82(TM) system (copyright 1983,
 Carnegie Mellon University). Gaussian is a federally registered
 trademark of Gaussian, Inc.
  
 This software contains proprietary and confidential information,
 including trade secrets, belonging to Gaussian, Inc.
  
 This software is provided under written license and may be
 used, copied, transmitted, or stored only in accord with that
 written license.
  
 The following legend is applicable only to US Government
 contracts under FAR:
  
                    RESTRICTED RIGHTS LEGEND
  
 Use, reproduction and disclosure by the US Government is
 subject to restrictions as set forth in subparagraphs (a)
 and (c) of the Commercial Computer Software - Restricted
 Rights clause in FAR 52.227-19.
  
 Gaussian, Inc.
 340 Quinnipiac St., Bldg. 40, Wallingford CT 06492
  
  
 ---------------------------------------------------------------
 Warning -- This program may not be used in any manner that
 competes with the business of Gaussian, Inc. or will provide
 assistance to any competitor of Gaussian, Inc.  The licensee
 of this program is prohibited from giving any competitor of
 Gaussian, Inc. access to this program.  By using this program,
 the user acknowledges that Gaussian, Inc. is engaged in the
 business of creating and licensing software in the field of
 computational chemistry and represents and warrants to the
 licensee that it is not a competitor of Gaussian, Inc. and that
 it will not use this program in any manner prohibited above.
 ---------------------------------------------------------------
  

 Cite this work as:
 Gaussian 09, Revision A.02,
 M. J. Frisch, G. W. Trucks, H. B. Schlegel, G. E. Scuseria, 
 M. A. Robb, J. R. Cheeseman, G. Scalmani, V. Barone, B. Mennucci, 
 G. A. Petersson, H. Nakatsuji, M. Caricato, X. Li, H. P. Hratchian, 
 A. F. Izmaylov, J. Bloino, G. Zheng, J. L. Sonnenberg, M. Hada, 
 M. Ehara, K. Toyota, R. Fukuda, J. Hasegawa, M. Ishida, T. Nakajima, 
 Y. Honda, O. Kitao, H. Nakai, T. Vreven, J. A. Montgomery, Jr., 
 J. E. Peralta, F. Ogliaro, M. Bearpark, J. J. Heyd, E. Brothers, 
 K. N. Kudin, V. N. Staroverov, R. Kobayashi, J. Normand, 
 K. Raghavachari, A. Rendell, J. C. Burant, S. S. Iyengar, J. Tomasi, 
 M. Cossi, N. Rega, J. M. Millam, M. Klene, J. E. Knox, J. B. Cross, 
 V. Bakken, C. Adamo, J. Jaramillo, R. Gomperts, R. E. Stratmann, 
 O. Yazyev, A. J. Austin, R. Cammi, C. Pomelli, J. W. Ochterski, 
 R. L. Martin, K. Morokuma, V. G. Zakrzewski, G. A. Voth, 
 P. Salvador, J. J. Dannenberg, S. Dapprich, A. D. Daniels, 
 O. Farkas, J. B. Foresman, J. V. Ortiz, J. Cioslowski, 
 and D. J. Fox, Gaussian, Inc., Wallingford CT, 2009.
 
 ******************************************
 Gaussian 09:  IA32W-G09RevA.02 11-Jun-2009
                02-Feb-2021 
 ******************************************
 %chk=D:\Documents\rayGit\FQ\quimicaComputacional\proyecto\decompositionHydrogenP
 eroxide\decompositionCatalyzedByIodine\step1\ts\ts.chk
 %mem=1500MB
 %nprocshared=4
 Will use up to    4 processors via shared memory.
 ----------------------------------------------------------------------
 # opt=(readfc,ts,noeigen) geom=check guess=check freq=noraman lanl2dz 
 scrf=smd iop(1/8=3) m062x
 ----------------------------------------------------------------------
 1/5=1,8=3,10=3,11=1,14=-1,18=20,26=3,29=2,38=1/1,3;
 2/9=110,12=2,40=1/2;
 3/5=6,6=3,11=2,14=-4,16=1,25=1,30=1,70=32201,71=1,72=1,74=-55,116=-2/1,2,3;
 4/5=1/1;
 5/5=2,38=6/2;
 6/7=2,8=2,9=2,10=2,28=1/1;
 7//1,2,3,16;
 1/5=1,8=3,11=1,14=-1,18=20/3(2);
 2/9=110/2;
 99//99;
 2/9=110/2;
 3/5=6,6=3,11=2,14=-2,16=1,25=1,30=1,70=32205,71=1,74=-55/1,2,3;
 4/5=5,16=3/1;
 5/5=2,38=5/2;
 7//1,2,3,16;
 1/5=1,8=3,11=1,14=-1,18=20/3(-5);
 2/9=110/2;
 6/7=2,8=2,9=2,10=2,19=2,28=1/1;
 99/9=1/99;
 -------------------------------
 Hydrogen peroxide with iodine 4
 -------------------------------
 Redundant internal coordinates taken from checkpoint file:
 D:\Documents\rayGit\FQ\quimicaComputacional\proyecto\decompositionHydrogenPeroxide\decompositionCatalyzedByIodine\step1\ts\ts.chk
 Charge =  0 Multiplicity = 2
 O,0,-1.6667334691,0.7187827925,0.1378186423
 H,0,-0.0465941658,0.8357242198,-0.4360637093
 O,0,0.7769137604,0.7195482858,0.1261826168
 H,0,1.2465486659,1.5731509004,0.1514265392
 I,0,-3.5126628514,0.5994505315,0.7879671809
 Recover connectivity data from disk.

 GradGradGradGradGradGradGradGradGradGradGradGradGradGradGradGradGradGrad
 Berny optimization.
 Initialization pass.
 Force constant matrix read from checkpoint file:
 D:\Documents\rayGit\FQ\quimicaComputacional\proyecto\decompositionHydrogenPeroxi
 de\decompositionCatalyzedByIodine\step1\ts\ts.chk
                           ----------------------------
                           !    Initial Parameters    !
                           ! (Angstroms and Degrees)  !
 --------------------------                            --------------------------
 ! Name  Definition              Value          Derivative Info.                !
 --------------------------------------------------------------------------------
 ! R1    R(1,2)                  1.7228         D2E/DX2 =   -0.094              !
 ! R2    R(1,3)                  2.4437         D2E/DX2 =   -0.0326             !
 ! R3    R(1,5)                  1.9607         D2E/DX2 =    0.1503             !
 ! R4    R(2,3)                  1.0039         D2E/DX2 =    0.2659             !
 ! R5    R(3,4)                  0.9746         D2E/DX2 =    0.5866             !
 ! A1    A(2,1,5)              179.5842         D2E/DX2 =    0.9228             !
 ! A2    A(3,1,5)              160.5696         D2E/DX2 =   -0.4274             !
 ! A3    A(1,3,4)              118.8176         D2E/DX2 =   -0.2839             !
 ! A4    A(2,3,4)              107.9654         D2E/DX2 =   -0.0269             !
 ! D1    D(5,1,3,4)            -98.6459         D2E/DX2 =    0.0493             !
 --------------------------------------------------------------------------------
 Trust Radius=3.00D-02 FncErr=1.00D-07 GrdErr=1.00D-06
 Number of steps in this run=  20 maximum allowed number of steps= 100.
 Search for a saddle point of order  1.
 GradGradGradGradGradGradGradGradGradGradGradGradGradGradGradGradGradGrad

                          Input orientation:                          
 ---------------------------------------------------------------------
 Center     Atomic      Atomic             Coordinates (Angstroms)
 Number     Number       Type             X           Y           Z
 ---------------------------------------------------------------------
      1          8           0       -1.666733    0.718783    0.137819
      2          1           0       -0.046594    0.835724   -0.436064
      3          8           0        0.776914    0.719548    0.126183
      4          1           0        1.246549    1.573151    0.151427
      5         53           0       -3.512663    0.599451    0.787967
 ---------------------------------------------------------------------
                    Distance matrix (angstroms):
                    1          2          3          4          5
     1  O    0.000000
     2  H    1.722750   0.000000
     3  O    2.443675   1.003884   0.000000
     4  H    3.036008   1.600363   0.974593   0.000000
     5  I    1.960711   3.683437   4.341987   4.899323   0.000000
 Stoichiometry    H2IO2(2)
 Framework group  C1[X(H2IO2)]
 Deg. of freedom     9
 Full point group                 C1      NOp   1
 Largest Abelian subgroup         C1      NOp   1
 Largest concise Abelian subgroup C1      NOp   1
                         Standard orientation:                         
 ---------------------------------------------------------------------
 Center     Atomic      Atomic             Coordinates (Angstroms)
 Number     Number       Type             X           Y           Z
 ---------------------------------------------------------------------
      1          8           0        1.109981    0.281343    0.012776
      2          1           0        2.810827    0.554219    0.035761
      3          8           0        3.512347   -0.148966   -0.109788
      4          1           0        4.014653   -0.248634    0.719420
      5         53           0       -0.826493   -0.025747    0.000395
 ---------------------------------------------------------------------
 Rotational constants (GHZ):    183.2412603      1.5549263      1.5481649
 Standard basis: LANL2DZ (5D, 7F)
 There are    30 symmetry adapted basis functions of A   symmetry.
 Integral buffers will be    262144 words long.
 Raffenetti 2 integral format.
 Two-electron integral symmetry is turned on.
    30 basis functions,    70 primitive gaussians,    30 cartesian basis functions
    13 alpha electrons       12 beta electrons
       nuclear repulsion energy        50.3029786238 Hartrees.
 NAtoms=    5 NActive=    5 NUniq=    5 SFac= 7.50D-01 NAtFMM=   80 NAOKFM=F Big=F
 ------------------------------------------------------------------------------
 Polarizable Continuum Model (PCM)
 =================================
 Model                : PCM.
 Atomic radii         : SMD-Coulomb.
 Polarization charges : Total charges.
 Charge compensation  : None.
 Solution method      : Matrix inversion.
 Cavity type          : VdW (van der Waals Surface) (Alpha=1.000).
 Cavity algorithm     : GePol (No added spheres)
                        Default sphere list used, NSphG=    5.
                        Lebedev-Laikov grids with approx.  5.0 points / Ang**2.
                        Smoothing algorithm: Karplus/York (Gamma=1.0000).
                        Polarization charges: spherical gaussians, with
                                              point-specific exponents (IZeta= 3).
                        Self-potential: point-specific (ISelfS= 7).
                        Self-field    : sphere-specific E.n sum rule (ISelfD= 2).
 1st derivatives      : Analytical E(r).r(x)/FMM algorithm (CHGder, D1EAlg=3).
                        Cavity 1st derivative terms included.
 Solvent              : Water, Eps=  78.355300 Eps(inf)=   1.777849
 ------------------------------------------------------------------------------
 Spheres list:
 ISph  on   Nord    Re0     Alpha      Xe            Ye            Ze
    1   O      1    1.520   1.000      1.109981      0.281343      0.012776
    2   H      2    1.200   1.000      2.810827      0.554219      0.035761
    3   O      3    1.520   1.000      3.512347     -0.148966     -0.109788
    4   H      4    1.200   1.000      4.014653     -0.248634      0.719420
    5   I      5    1.980   1.000     -0.826493     -0.025747      0.000395
 ------------------------------------------------------------------------------
 ------------------------------------------------------------------------------
 Atomic radii for non-electrostatic terms: SMD-CDS.
 ------------------------------------------------------------------------------
 Nuclear repulsion after PCM non-electrostatic terms =       50.3047112946 Hartrees.
 One-electron integrals computed using PRISM.
   1 Symmetry operations used in ECPInt.
 ECPInt:  NShTT=     171 NPrTT=    1054 LenC2=     172 LenP2D=     910.
 LDataN:  DoStor=T MaxTD1= 4 Len=   56
 NBasis=    30 RedAO= T  NBF=    30
 NBsUse=    30 1.00D-06 NBFU=    30
 Defaulting to unpruned grid for atomic number  53.
 Initial guess read from the checkpoint file:  D:\Documents\rayGit\FQ\quimicaComp
 utacional\proyecto\decompositionHydrogenPeroxide\decompositionCatalyzedByIodine\
 step1\ts\ts.chk
 B after Tr=     0.000000    0.000000    0.000000
         Rot=    1.000000    0.000000    0.000000    0.000000 Ang=   0.00 deg.
 Initial guess orbital symmetries:
 Alpha Orbitals:
       Occupied  (A) (A) (A) (A) (A) (A) (A) (A) (A) (A) (A) (A)
                 (A)
       Virtual   (A) (A) (A) (A) (A) (A) (A) (A) (A) (A) (A) (A)
                 (A) (A) (A) (A) (A)
 Beta  Orbitals:
       Occupied  (A) (A) (A) (A) (A) (A) (A) (A) (A) (A) (A) (A)
       Virtual   (A) (A) (A) (A) (A) (A) (A) (A) (A) (A) (A) (A)
                 (A) (A) (A) (A) (A) (A)
 Initial guess <Sx>= 0.0000 <Sy>= 0.0000 <Sz>= 0.5000 <S**2>= 0.7560 S= 0.5030
 Requested convergence on RMS density matrix=1.00D-08 within 128 cycles.
 Requested convergence on MAX density matrix=1.00D-06.
 Requested convergence on             energy=1.00D-06.
 No special actions if energy rises.
 Keep R1 and R2 ints in memory in canonical form, NReq=3531587.
 Defaulting to unpruned grid for atomic number  53.
 Defaulting to unpruned grid for atomic number  53.
 Defaulting to unpruned grid for atomic number  53.
 Defaulting to unpruned grid for atomic number  53.
 Error on total polarization charges =  0.05949
 SCF Done:  E(UM062X) =  -162.831049356     A.U. after    1 cycles
             Convg  =    0.3133D-09             -V/T =  2.0582
 <Sx>= 0.0000 <Sy>= 0.0000 <Sz>= 0.5000 <S**2>= 0.7560 S= 0.5030
 <L.S>= 0.000000000000E+00
 SMD-CDS (non-electrostatic) energy             (kcal/mol) =       1.09
 (included in total energy above)
 Annihilation of the first spin contaminant:
 S**2 before annihilation     0.7560,   after     0.7500

 **********************************************************************

            Population analysis using the SCF density.

 **********************************************************************

 Orbital symmetries:
 Alpha Orbitals:
       Occupied  (A) (A) (A) (A) (A) (A) (A) (A) (A) (A) (A) (A)
                 (A)
       Virtual   (A) (A) (A) (A) (A) (A) (A) (A) (A) (A) (A) (A)
                 (A) (A) (A) (A) (A)
 Beta  Orbitals:
       Occupied  (A) (A) (A) (A) (A) (A) (A) (A) (A) (A) (A) (A)
       Virtual   (A) (A) (A) (A) (A) (A) (A) (A) (A) (A) (A) (A)
                 (A) (A) (A) (A) (A) (A)
 The electronic state is 2-A.
 Alpha  occ. eigenvalues --  -19.69668 -19.61838  -1.12305  -1.10111  -0.75158
 Alpha  occ. eigenvalues --   -0.59494  -0.48845  -0.47186  -0.45107  -0.43578
 Alpha  occ. eigenvalues --   -0.38009  -0.32838  -0.31276
 Alpha virt. eigenvalues --   -0.04660   0.16857   0.26330   0.41167   0.41353
 Alpha virt. eigenvalues --    0.41664   0.63962   0.64732   0.73308   0.74210
 Alpha virt. eigenvalues --    0.82098   0.96326   1.03213   1.10699   1.30310
 Alpha virt. eigenvalues --    1.58050   9.10378
  Beta  occ. eigenvalues --  -19.68437 -19.61809  -1.11431  -1.05584  -0.73131
  Beta  occ. eigenvalues --   -0.59253  -0.45760  -0.42974  -0.42415  -0.38222
  Beta  occ. eigenvalues --   -0.35552  -0.30366
  Beta virt. eigenvalues --   -0.12076  -0.03384   0.16974   0.26527   0.41351
  Beta virt. eigenvalues --    0.41509   0.41861   0.64681   0.67778   0.73575
  Beta virt. eigenvalues --    0.76903   0.82819   0.96604   1.03340   1.11387
  Beta virt. eigenvalues --    1.33266   1.58140   9.10256
          Condensed to atoms (all electrons):
              1          2          3          4          5
     1  O    8.625059   0.012214  -0.032094   0.001548   0.065374
     2  H    0.012214   0.291022   0.274713  -0.024350   0.000301
     3  O   -0.032094   0.274713   8.351124   0.281798   0.002353
     4  H    0.001548  -0.024350   0.281798   0.315332  -0.000087
     5  I    0.065374   0.000301   0.002353  -0.000087   6.253926
 Mulliken atomic charges:
              1
     1  O   -0.672100
     2  H    0.446100
     3  O   -0.877893
     4  H    0.425759
     5  I    0.678134
 Sum of Mulliken atomic charges =   0.00000
 Mulliken charges with hydrogens summed into heavy atoms:
              1
     1  O   -0.672100
     3  O   -0.006034
     5  I    0.678134
 Sum of Mulliken charges with hydrogens summed into heavy atoms =   0.00000
          Atomic-Atomic Spin Densities.
              1          2          3          4          5
     1  O    0.811873  -0.004891  -0.003145   0.000135  -0.094776
     2  H   -0.004891  -0.000535   0.001768  -0.000210   0.000145
     3  O   -0.003145   0.001768   0.009857  -0.000038   0.000036
     4  H    0.000135  -0.000210  -0.000038  -0.000154  -0.000002
     5  I   -0.094776   0.000145   0.000036  -0.000002   0.380915
 Mulliken atomic spin densities:
              1
     1  O    0.709196
     2  H   -0.003723
     3  O    0.008478
     4  H   -0.000270
     5  I    0.286318
 Sum of Mulliken atomic spin densities =   1.00000
 Electronic spatial extent (au):  <R**2>=            568.7104
 Charge=              0.0000 electrons
 Dipole moment (field-independent basis, Debye):
    X=             -5.4137    Y=              0.7898    Z=              2.4950  Tot=              6.0131
 Quadrupole moment (field-independent basis, Debye-Ang):
   XX=            -33.7151   YY=            -30.7580   ZZ=            -32.0965
   XY=              3.4110   XZ=              9.8547   YZ=             -0.4792
 Traceless Quadrupole moment (field-independent basis, Debye-Ang):
   XX=             -1.5252   YY=              1.4319   ZZ=              0.0934
   XY=              3.4110   XZ=              9.8547   YZ=             -0.4792
 Octapole moment (field-independent basis, Debye-Ang**2):
  XXX=            -66.6758  YYY=             -0.3591  ZZZ=              2.1632  XYY=            -14.7635
  XXY=              6.8870  XXZ=             39.0224  XZZ=            -11.3856  YZZ=             -0.5941
  YYZ=              0.6393  XYZ=             -2.1464
 Hexadecapole moment (field-independent basis, Debye-Ang**3):
 XXXX=           -648.2183 YYYY=            -45.4318 ZZZZ=            -46.5225 XXXY=             20.4915
 XXXZ=            156.6161 YYYX=              4.5737 YYYZ=             -0.2245 ZZZX=              8.6381
 ZZZY=             -0.4438 XXYY=           -115.7053 XXZZ=           -106.5701 YYZZ=            -15.4786
 XXYZ=             -8.2950 YYXZ=              2.4241 ZZXY=             -0.0625
 N-N= 5.030471129457D+01 E-N=-7.165765043932D+02  KE= 2.296290278223D+02
                          Isotropic Fermi Contact Couplings
        Atom                 a.u.       MegaHertz       Gauss      10(-4) cm-1
     1  O(17)              0.09270     -56.19247     -20.05087     -18.74379
     2  H(1)              -0.00016      -0.72608      -0.25908      -0.24220
     3  O(17)              0.00447      -2.71137      -0.96748      -0.90442
     4  H(1)              -0.00016      -0.72891      -0.26009      -0.24314
     5  I(127)             0.00000       0.00100       0.00036       0.00033
 --------------------------------------------------------
       Center         ----  Spin Dipole Couplings  ----
                      3XX-RR        3YY-RR        3ZZ-RR
 --------------------------------------------------------
     1   Atom       -1.113400      2.502591     -1.389190
     2   Atom        0.035478     -0.013976     -0.021503
     3   Atom        0.022488      0.009353     -0.031841
     4   Atom        0.006626     -0.004568     -0.002058
     5   Atom       -0.004647      0.034892     -0.030245
 --------------------------------------------------------
                        XY            XZ            YZ
 --------------------------------------------------------
     1   Atom       -0.707889     -0.023210      0.125524
     2   Atom        0.006882      0.000432      0.000575
     3   Atom        0.033710     -0.006384     -0.006537
     4   Atom       -0.001483      0.004115     -0.000834
     5   Atom       -0.011327     -0.000318      0.002107
 --------------------------------------------------------


 ---------------------------------------------------------------------------------
              Anisotropic Spin Dipole Couplings in Principal Axis System
 ---------------------------------------------------------------------------------

       Atom             a.u.   MegaHertz   Gauss  10(-4) cm-1        Axes

              Baa    -1.3932   100.814    35.973    33.628  0.0027 -0.0317  0.9995
     1 O(17)  Bbb    -1.2470    90.235    32.198    30.099  0.9827  0.1854  0.0033
              Bcc     2.6403  -191.049   -68.171   -63.727 -0.1854  0.9822  0.0317
 
              Baa    -0.0215   -11.496    -4.102    -3.835  0.0018 -0.0774  0.9970
     2 H(1)   Bbb    -0.0149    -7.937    -2.832    -2.648 -0.1356  0.9878  0.0769
              Bcc     0.0364    19.433     6.934     6.482  0.9908  0.1354  0.0087
 
              Baa    -0.0329     2.381     0.849     0.794  0.0407  0.1210  0.9918
     3 O(17)  Bbb    -0.0184     1.328     0.474     0.443 -0.6413  0.7644 -0.0669
              Bcc     0.0513    -3.709    -1.323    -1.237  0.7662  0.6333 -0.1087
 
              Baa    -0.0048    -2.577    -0.920    -0.860  0.0446  0.9730  0.2265
     4 H(1)   Bbb    -0.0037    -1.950    -0.696    -0.650 -0.3884 -0.1920  0.9012
              Bcc     0.0085     4.527     1.615     1.510  0.9204 -0.1282  0.3694
 
              Baa    -0.0303    -3.258    -1.163    -1.087 -0.0020 -0.0327  0.9995
     5 I(127) Bbb    -0.0077    -0.823    -0.294    -0.275  0.9664  0.2568  0.0104
              Bcc     0.0380     4.082     1.456     1.362 -0.2570  0.9659  0.0310
 

 ---------------------------------------------------------------------------------

   1 Symmetry operations used in ECPInt.
 ECPInt:  NShTT=     171 NPrTT=    1054 LenC2=     172 LenP2D=     910.
 LDataN:  DoStor=T MaxTD1= 5 Len=  102
 D1PCM: PCM CHGder 1st derivatives, ID1Alg=3 FixD1E=F DoIter=F DoCFld=F I1PDM=0.
 Calling FoFJK, ICntrl=      2127 FMM=F ISym2X=0 I1Cent= 0 IOpClX= 1 NMat=1 NMatS=1 NMatT=0.
 Defaulting to unpruned grid for atomic number  53.
 Defaulting to unpruned grid for atomic number  53.
 Defaulting to unpruned grid for atomic number  53.
 Defaulting to unpruned grid for atomic number  53.
 ***** Axes restored to original set *****
 -------------------------------------------------------------------
 Center     Atomic                   Forces (Hartrees/Bohr)
 Number     Number              X              Y              Z
 -------------------------------------------------------------------
      1        8          -0.018639377   -0.000152905   -0.001106033
      2        1           0.017337616   -0.005321263    0.016937966
      3        8          -0.004989764    0.004889116   -0.016506626
      4        1           0.002930412    0.000498396    0.001437444
      5       53           0.003361114    0.000086656   -0.000762750
 -------------------------------------------------------------------
 Cartesian Forces:  Max     0.018639377 RMS     0.009340003

 GradGradGradGradGradGradGradGradGradGradGradGradGradGradGradGradGradGrad
 Berny optimization.
 Internal  Forces:  Max     0.026828975 RMS     0.010762158
 Search for a saddle point.
 Step number   1 out of a maximum of   20
 All quantities printed in internal units (Hartrees-Bohrs-Radians)
 Swaping is turned off.
 Second derivative matrix not updated -- first step.
 The second derivative matrix:
                          R1        R2        R3        R4        R5
           R1          -0.09402
           R2           0.12419  -0.03262
           R3          -0.01447   0.02301   0.15033
           R4          -0.08808   0.04083  -0.00285   0.26585
           R5          -0.00415   0.00742  -0.00149  -0.00478   0.58659
           A1          -0.21838   0.02407  -0.00890   0.11913  -0.00345
           A2          -0.28952   0.08635  -0.02472  -0.11893  -0.00269
           A3           0.10618  -0.02408   0.01575   0.04105  -0.00143
           A4          -0.05143   0.03633  -0.01410  -0.05642   0.01437
           D1          -0.03645  -0.02208  -0.00033   0.04154  -0.00216
                          A1        A2        A3        A4        D1
           A1           0.92283
           A2          -0.18260  -0.42737
           A3          -0.23254  -0.32161  -0.28386
           A4          -0.12587   0.22005   0.25873  -0.02691
           D1           0.23831  -0.03341  -0.13107   0.02832   0.04927
     Eigenvalues ---   -0.52072  -0.00800   0.01568   0.03884   0.07373
     Eigenvalues ---    0.15113   0.27367   0.31054   0.587081000.00000
 Eigenvectors required to have negative eigenvalues:
                          R1        A2        R2        A4        A3
   1                    0.64419   0.59145  -0.32511   0.19678  -0.19114
                          R4        D1        R3        A1        R5
   1                    0.18689  -0.12246   0.05663   0.03329   0.00398
 RFO step:  Lambda0=4.290663716D-04 Lambda=-1.07753915D-02.
 Linear search not attempted -- option 19 set.
 Maximum step size (   0.030) exceeded in Quadratic search.
    -- Step size scaled by   0.056
 Iteration  1 RMS(Cart)=  0.01258834 RMS(Int)=  0.00017637
 Iteration  2 RMS(Cart)=  0.00014263 RMS(Int)=  0.00005908
 Iteration  3 RMS(Cart)=  0.00000132 RMS(Int)=  0.00005908
 Iteration  4 RMS(Cart)=  0.00000002 RMS(Int)=  0.00005908
 Variable       Old X    -DE/DX   Delta X   Delta X   Delta X     New X
                                 (Linear)    (Quad)   (Total)
    R1        3.25553  -0.00469   0.00000   0.00561   0.00561   3.26114
    R2        4.61788   0.01960   0.00000   0.02698   0.02699   4.64486
    R3        3.70521  -0.00341   0.00000  -0.00256  -0.00256   3.70265
    R4        1.89707  -0.02683   0.00000  -0.00250  -0.00252   1.89455
    R5        1.84171   0.00187   0.00000  -0.00017  -0.00017   1.84155
    A1        3.13434   0.00199   0.00000  -0.00111  -0.00124   3.13309
    A2        2.80247  -0.00083   0.00000   0.01050   0.01042   2.81288
    A3        2.07376   0.00205   0.00000  -0.00292  -0.00297   2.07079
    A4        1.88435   0.00276   0.00000   0.00196   0.00203   1.88638
    D1       -1.72170   0.00070   0.00000  -0.00203  -0.00206  -1.72376
         Item               Value     Threshold  Converged?
 Maximum Force            0.026829     0.000450     NO 
 RMS     Force            0.010762     0.000300     NO 
 Maximum Displacement     0.019459     0.001800     NO 
 RMS     Displacement     0.012594     0.001200     NO 
 Predicted change in Energy=-5.538399D-04
 GradGradGradGradGradGradGradGradGradGradGradGradGradGradGradGradGradGrad

                          Input orientation:                          
 ---------------------------------------------------------------------
 Center     Atomic      Atomic             Coordinates (Angstroms)
 Number     Number       Type             X           Y           Z
 ---------------------------------------------------------------------
      1          8           0       -1.672411    0.718451    0.143704
      2          1           0       -0.047714    0.837512   -0.425767
      3          8           0        0.785422    0.719025    0.119167
      4          1           0        1.252717    1.573728    0.147023
      5         53           0       -3.520543    0.597941    0.783203
 ---------------------------------------------------------------------
                    Distance matrix (angstroms):
                    1          2          3          4          5
     1  O    0.000000
     2  H    1.725720   0.000000
     3  O    2.457955   1.002551   0.000000
     4  H    3.047603   1.600383   0.974504   0.000000
     5  I    1.959356   3.685043   4.358548   4.913339   0.000000
 Stoichiometry    H2IO2(2)
 Framework group  C1[X(H2IO2)]
 Deg. of freedom     9
 Full point group                 C1      NOp   1
 Largest Abelian subgroup         C1      NOp   1
 Largest concise Abelian subgroup C1      NOp   1
                         Standard orientation:                         
 ---------------------------------------------------------------------
 Center     Atomic      Atomic             Coordinates (Angstroms)
 Number     Number       Type             X           Y           Z
 ---------------------------------------------------------------------
      1          8           0        1.107827    0.273356    0.013154
      2          1           0        2.812164    0.543100    0.037348
      3          8           0        3.526900   -0.144291   -0.110142
      4          1           0        4.026736   -0.243921    0.720457
      5         53           0       -0.828617   -0.025126    0.000342
 ---------------------------------------------------------------------
 Rotational constants (GHZ):    190.7360112      1.5449491      1.5388022
 Standard basis: LANL2DZ (5D, 7F)
 There are    30 symmetry adapted basis functions of A   symmetry.
 Integral buffers will be    262144 words long.
 Raffenetti 2 integral format.
 Two-electron integral symmetry is turned on.
    30 basis functions,    70 primitive gaussians,    30 cartesian basis functions
    13 alpha electrons       12 beta electrons
       nuclear repulsion energy        50.2008582129 Hartrees.
 NAtoms=    5 NActive=    5 NUniq=    5 SFac= 7.50D-01 NAtFMM=   80 NAOKFM=F Big=F
 ------------------------------------------------------------------------------
 Polarizable Continuum Model (PCM)
 =================================
 Model                : PCM.
 Atomic radii         : SMD-Coulomb.
 Polarization charges : Total charges.
 Charge compensation  : None.
 Solution method      : Matrix inversion.
 Cavity type          : VdW (van der Waals Surface) (Alpha=1.000).
 Cavity algorithm     : GePol (No added spheres)
                        Default sphere list used, NSphG=    5.
                        Lebedev-Laikov grids with approx.  5.0 points / Ang**2.
                        Smoothing algorithm: Karplus/York (Gamma=1.0000).
                        Polarization charges: spherical gaussians, with
                                              point-specific exponents (IZeta= 3).
                        Self-potential: point-specific (ISelfS= 7).
                        Self-field    : sphere-specific E.n sum rule (ISelfD= 2).
 1st derivatives      : Analytical E(r).r(x)/FMM algorithm (CHGder, D1EAlg=3).
                        Cavity 1st derivative terms included.
 Solvent              : Water, Eps=  78.355300 Eps(inf)=   1.777849
 ------------------------------------------------------------------------------
 Spheres list:
 ISph  on   Nord    Re0     Alpha      Xe            Ye            Ze
    1   O      1    1.520   1.000      1.107827      0.273356      0.013154
    2   H      2    1.200   1.000      2.812164      0.543100      0.037348
    3   O      3    1.520   1.000      3.526900     -0.144291     -0.110142
    4   H      4    1.200   1.000      4.026736     -0.243921      0.720457
    5   I      5    1.980   1.000     -0.828617     -0.025126      0.000342
 ------------------------------------------------------------------------------
 ------------------------------------------------------------------------------
 Atomic radii for non-electrostatic terms: SMD-CDS.
 ------------------------------------------------------------------------------
 Nuclear repulsion after PCM non-electrostatic terms =       50.2025821643 Hartrees.
 One-electron integrals computed using PRISM.
   1 Symmetry operations used in ECPInt.
 ECPInt:  NShTT=     171 NPrTT=    1054 LenC2=     172 LenP2D=     908.
 LDataN:  DoStor=T MaxTD1= 4 Len=   56
 NBasis=    30 RedAO= T  NBF=    30
 NBsUse=    30 1.00D-06 NBFU=    30
 Defaulting to unpruned grid for atomic number  53.
 Initial guess read from the read-write file.
 B after Tr=     0.000000    0.000000    0.000000
         Rot=    1.000000    0.000000    0.000000    0.000000 Ang=   0.00 deg.
 Initial guess orbital symmetries:
 Alpha Orbitals:
       Occupied  (A) (A) (A) (A) (A) (A) (A) (A) (A) (A) (A) (A)
                 (A)
       Virtual   (A) (A) (A) (A) (A) (A) (A) (A) (A) (A) (A) (A)
                 (A) (A) (A) (A) (A)
 Beta  Orbitals:
       Occupied  (A) (A) (A) (A) (A) (A) (A) (A) (A) (A) (A) (A)
       Virtual   (A) (A) (A) (A) (A) (A) (A) (A) (A) (A) (A) (A)
                 (A) (A) (A) (A) (A) (A)
 Initial guess <Sx>= 0.0000 <Sy>= 0.0000 <Sz>= 0.5000 <S**2>= 0.7560 S= 0.5030
 Requested convergence on RMS density matrix=1.00D-08 within 128 cycles.
 Requested convergence on MAX density matrix=1.00D-06.
 Requested convergence on             energy=1.00D-06.
 No special actions if energy rises.
 Keep R1 and R2 ints in memory in canonical form, NReq=3532808.
 Defaulting to unpruned grid for atomic number  53.
 Defaulting to unpruned grid for atomic number  53.
 Defaulting to unpruned grid for atomic number  53.
 Defaulting to unpruned grid for atomic number  53.
 Error on total polarization charges =  0.05949
 SCF Done:  E(UM062X) =  -162.831602120     A.U. after   20 cycles
             Convg  =    0.4994D-08             -V/T =  2.0582
 <Sx>= 0.0000 <Sy>= 0.0000 <Sz>= 0.5000 <S**2>= 0.7559 S= 0.5030
 <L.S>= 0.000000000000E+00
 SMD-CDS (non-electrostatic) energy             (kcal/mol) =       1.08
 (included in total energy above)
 Annihilation of the first spin contaminant:
 S**2 before annihilation     0.7559,   after     0.7500
   1 Symmetry operations used in ECPInt.
 ECPInt:  NShTT=     171 NPrTT=    1054 LenC2=     172 LenP2D=     908.
 LDataN:  DoStor=T MaxTD1= 5 Len=  102
 D1PCM: PCM CHGder 1st derivatives, ID1Alg=3 FixD1E=F DoIter=F DoCFld=F I1PDM=0.
 Calling FoFJK, ICntrl=      2127 FMM=F ISym2X=0 I1Cent= 0 IOpClX= 1 NMat=1 NMatS=1 NMatT=0.
 Defaulting to unpruned grid for atomic number  53.
 Defaulting to unpruned grid for atomic number  53.
 Defaulting to unpruned grid for atomic number  53.
 Defaulting to unpruned grid for atomic number  53.
 ***** Axes restored to original set *****
 -------------------------------------------------------------------
 Center     Atomic                   Forces (Hartrees/Bohr)
 Number     Number              X              Y              Z
 -------------------------------------------------------------------
      1        8          -0.017474570   -0.000105270   -0.001169433
      2        1           0.016525376   -0.005176877    0.015957781
      3        8          -0.005054242    0.004698756   -0.015483206
      4        1           0.002819086    0.000512343    0.001327029
      5       53           0.003184350    0.000071048   -0.000632171
 -------------------------------------------------------------------
 Cartesian Forces:  Max     0.017474570 RMS     0.008828541

 GradGradGradGradGradGradGradGradGradGradGradGradGradGradGradGradGradGrad
 Berny optimization.
 Internal  Forces:  Max     0.025227470 RMS     0.010235023
 Search for a saddle point.
 Step number   2 out of a maximum of   20
 All quantities printed in internal units (Hartrees-Bohrs-Radians)
 Swaping is turned off.
 Update second derivatives using D2CorX and points    1    2
 The second derivative matrix:
                          R1        R2        R3        R4        R5
           R1          -0.09264
           R2           0.12972  -0.01125
           R3          -0.01507   0.02064   0.15059
           R4          -0.08739   0.04466  -0.00318   0.26495
           R5          -0.00457   0.00543  -0.00130  -0.00463   0.58662
           A1          -0.20807   0.07395  -0.01362   0.11418  -0.00366
           A2          -0.28904   0.08665  -0.02488  -0.11671  -0.00340
           A3           0.11146   0.00188   0.01332   0.03797  -0.00138
           A4          -0.05912  -0.00106  -0.01058  -0.05247   0.01446
           D1          -0.03222  -0.00134  -0.00228   0.03914  -0.00215
                          A1        A2        A3        A4        D1
           A1           0.91796
           A2          -0.16295  -0.43032
           A3          -0.23946  -0.31069  -0.28991
           A4          -0.12014   0.20499   0.26508  -0.03280
           D1           0.23337  -0.02478  -0.13558   0.03294   0.04593
     Eigenvalues ---   -0.45793  -0.01224   0.01762   0.07290   0.14961
     Eigenvalues ---    0.16731   0.21321   0.30459   0.587061000.00000
 Eigenvectors required to have negative eigenvalues:
                          R1        A3        A2        A4        R2
   1                    0.65387  -0.43441   0.37201   0.30934  -0.28446
                          R4        D1        A1        R3        R5
   1                    0.18503  -0.15807   0.07845   0.05807   0.00154
 RFO step:  Lambda0=3.947313701D-04 Lambda=-1.42643476D-02.
 Linear search not attempted -- option 19 set.
 Maximum step size (   0.030) exceeded in Quadratic search.
    -- Step size scaled by   0.059
 Iteration  1 RMS(Cart)=  0.01216997 RMS(Int)=  0.00039093
 Iteration  2 RMS(Cart)=  0.00031419 RMS(Int)=  0.00021843
 Iteration  3 RMS(Cart)=  0.00001436 RMS(Int)=  0.00021834
 Iteration  4 RMS(Cart)=  0.00000119 RMS(Int)=  0.00021834
 Iteration  5 RMS(Cart)=  0.00000010 RMS(Int)=  0.00021834
 Variable       Old X    -DE/DX   Delta X   Delta X   Delta X     New X
                                 (Linear)    (Quad)   (Total)
    R1        3.26114  -0.00479   0.00000   0.00078   0.00069   3.26183
    R2        4.64486   0.01854   0.00000   0.02376   0.02388   4.66874
    R3        3.70265  -0.00321   0.00000  -0.00207  -0.00207   3.70058
    R4        1.89455  -0.02523   0.00000  -0.00332  -0.00348   1.89106
    R5        1.84155   0.00182   0.00000  -0.00014  -0.00014   1.84141
    A1        3.13309   0.00427   0.00000   0.00395   0.00349   3.13658
    A2        2.81288   0.00099   0.00000   0.00870   0.00825   2.82114
    A3        2.07079   0.00277   0.00000  -0.00403  -0.00411   2.06668
    A4        1.88638   0.00161   0.00000   0.00390   0.00398   1.89036
    D1       -1.72376   0.00118   0.00000  -0.01403  -0.01408  -1.73784
         Item               Value     Threshold  Converged?
 Maximum Force            0.025227     0.000450     NO 
 RMS     Force            0.010235     0.000300     NO 
 Maximum Displacement     0.021476     0.001800     NO 
 RMS     Displacement     0.012193     0.001200     NO 
 Predicted change in Energy=-5.273095D-04
 GradGradGradGradGradGradGradGradGradGradGradGradGradGradGradGradGradGrad

                          Input orientation:                          
 ---------------------------------------------------------------------
 Center     Atomic      Atomic             Coordinates (Angstroms)
 Number     Number       Type             X           Y           Z
 ---------------------------------------------------------------------
      1          8           0       -1.677275    0.721607    0.148291
      2          1           0       -0.049595    0.837419   -0.414402
      3          8           0        0.793050    0.718498    0.112119
      4          1           0        1.258267    1.574159    0.142665
      5         53           0       -3.526974    0.594973    0.778659
 ---------------------------------------------------------------------
                    Distance matrix (angstroms):
                    1          2          3          4          5
     1  O    0.000000
     2  H    1.726087   0.000000
     3  O    2.470592   1.000708   0.000000
     4  H    3.056842   1.601129   0.974431   0.000000
     5  I    1.958261   3.684337   4.372887   4.925629   0.000000
 Stoichiometry    H2IO2(2)
 Framework group  C1[X(H2IO2)]
 Deg. of freedom     9
 Full point group                 C1      NOp   1
 Largest Abelian subgroup         C1      NOp   1
 Largest concise Abelian subgroup C1      NOp   1
                         Standard orientation:                         
 ---------------------------------------------------------------------
 Center     Atomic      Atomic             Coordinates (Angstroms)
 Number     Number       Type             X           Y           Z
 ---------------------------------------------------------------------
      1          8           0        1.105990    0.266784    0.012509
      2          1           0        2.811645    0.531177    0.027176
      3          8           0        3.539502   -0.141910   -0.109187
      4          1           0        4.037539   -0.227272    0.723992
      5         53           0       -0.830436   -0.024583    0.000420
 ---------------------------------------------------------------------
 Rotational constants (GHZ):    197.4952661      1.5364306      1.5307833
 Standard basis: LANL2DZ (5D, 7F)
 There are    30 symmetry adapted basis functions of A   symmetry.
 Integral buffers will be    262144 words long.
 Raffenetti 2 integral format.
 Two-electron integral symmetry is turned on.
    30 basis functions,    70 primitive gaussians,    30 cartesian basis functions
    13 alpha electrons       12 beta electrons
       nuclear repulsion energy        50.1180790560 Hartrees.
 NAtoms=    5 NActive=    5 NUniq=    5 SFac= 7.50D-01 NAtFMM=   80 NAOKFM=F Big=F
 ------------------------------------------------------------------------------
 Polarizable Continuum Model (PCM)
 =================================
 Model                : PCM.
 Atomic radii         : SMD-Coulomb.
 Polarization charges : Total charges.
 Charge compensation  : None.
 Solution method      : Matrix inversion.
 Cavity type          : VdW (van der Waals Surface) (Alpha=1.000).
 Cavity algorithm     : GePol (No added spheres)
                        Default sphere list used, NSphG=    5.
                        Lebedev-Laikov grids with approx.  5.0 points / Ang**2.
                        Smoothing algorithm: Karplus/York (Gamma=1.0000).
                        Polarization charges: spherical gaussians, with
                                              point-specific exponents (IZeta= 3).
                        Self-potential: point-specific (ISelfS= 7).
                        Self-field    : sphere-specific E.n sum rule (ISelfD= 2).
 1st derivatives      : Analytical E(r).r(x)/FMM algorithm (CHGder, D1EAlg=3).
                        Cavity 1st derivative terms included.
 Solvent              : Water, Eps=  78.355300 Eps(inf)=   1.777849
 ------------------------------------------------------------------------------
 Spheres list:
 ISph  on   Nord    Re0     Alpha      Xe            Ye            Ze
    1   O      1    1.520   1.000      1.105990      0.266784      0.012509
    2   H      2    1.200   1.000      2.811645      0.531177      0.027176
    3   O      3    1.520   1.000      3.539502     -0.141910     -0.109187
    4   H      4    1.200   1.000      4.037539     -0.227272      0.723992
    5   I      5    1.980   1.000     -0.830436     -0.024583      0.000420
 ------------------------------------------------------------------------------
 ------------------------------------------------------------------------------
 Atomic radii for non-electrostatic terms: SMD-CDS.
 ------------------------------------------------------------------------------
 Nuclear repulsion after PCM non-electrostatic terms =       50.1197930448 Hartrees.
 One-electron integrals computed using PRISM.
   1 Symmetry operations used in ECPInt.
 ECPInt:  NShTT=     171 NPrTT=    1054 LenC2=     172 LenP2D=     906.
 LDataN:  DoStor=T MaxTD1= 4 Len=   56
 NBasis=    30 RedAO= T  NBF=    30
 NBsUse=    30 1.00D-06 NBFU=    30
 Defaulting to unpruned grid for atomic number  53.
 Initial guess read from the read-write file.
 B after Tr=     0.000000    0.000000    0.000000
         Rot=    1.000000    0.000000    0.000000    0.000000 Ang=   0.00 deg.
 Initial guess orbital symmetries:
 Alpha Orbitals:
       Occupied  (A) (A) (A) (A) (A) (A) (A) (A) (A) (A) (A) (A)
                 (A)
       Virtual   (A) (A) (A) (A) (A) (A) (A) (A) (A) (A) (A) (A)
                 (A) (A) (A) (A) (A)
 Beta  Orbitals:
       Occupied  (A) (A) (A) (A) (A) (A) (A) (A) (A) (A) (A) (A)
       Virtual   (A) (A) (A) (A) (A) (A) (A) (A) (A) (A) (A) (A)
                 (A) (A) (A) (A) (A) (A)
 Initial guess <Sx>= 0.0000 <Sy>= 0.0000 <Sz>= 0.5000 <S**2>= 0.7559 S= 0.5030
 Harris functional with IExCor= 1009 diagonalized for initial guess.
 ExpMin= 1.05D-01 ExpMax= 7.82D+03 ExpMxC= 2.73D+02 IAcc=1 IRadAn=         1 AccDes= 0.00D+00
 HarFok:  IExCor= 1009 AccDes= 0.00D+00 IRadAn=         1 IDoV= 1
 ScaDFX=  1.000000  1.000000  1.000000  1.000000
 Defaulting to unpruned grid for atomic number  53.
 Defaulting to unpruned grid for atomic number  53.
 Defaulting to unpruned grid for atomic number  53.
 Defaulting to unpruned grid for atomic number  53.
 FoFCou: FMM=F IPFlag=           0 FMFlag=      100000 FMFlg1=           0
         NFxFlg=           0 DoJE=T BraDBF=F KetDBF=T FulRan=T
         Omega=  0.000000  0.000000  1.000000  0.000000  0.000000 ICntrl=     500 IOpCl=  0
         NMat0=    1 NMatS0=    1 NMatT0=    0 NMatD0=    1 NMtDS0=    0 NMtDT0=    0
         I1Cent=           4 NGrid=           0.
 Petite list used in FoFCou.
 Requested convergence on RMS density matrix=1.00D-08 within 128 cycles.
 Requested convergence on MAX density matrix=1.00D-06.
 Requested convergence on             energy=1.00D-06.
 No special actions if energy rises.
 Keep R1 and R2 ints in memory in canonical form, NReq=3535377.
 Defaulting to unpruned grid for atomic number  53.
 Defaulting to unpruned grid for atomic number  53.
 Defaulting to unpruned grid for atomic number  53.
 Defaulting to unpruned grid for atomic number  53.
 Error on total polarization charges =  0.05951
 SCF Done:  E(UM062X) =  -162.832125581     A.U. after   21 cycles
             Convg  =    0.2215D-08             -V/T =  2.0582
 <Sx>= 0.0000 <Sy>= 0.0000 <Sz>= 0.5000 <S**2>= 0.7559 S= 0.5029
 <L.S>= 0.000000000000E+00
 SMD-CDS (non-electrostatic) energy             (kcal/mol) =       1.08
 (included in total energy above)
 Annihilation of the first spin contaminant:
 S**2 before annihilation     0.7559,   after     0.7500
   1 Symmetry operations used in ECPInt.
 ECPInt:  NShTT=     171 NPrTT=    1054 LenC2=     172 LenP2D=     906.
 LDataN:  DoStor=T MaxTD1= 5 Len=  102
 D1PCM: PCM CHGder 1st derivatives, ID1Alg=3 FixD1E=F DoIter=F DoCFld=F I1PDM=0.
 Calling FoFJK, ICntrl=      2127 FMM=F ISym2X=0 I1Cent= 0 IOpClX= 1 NMat=1 NMatS=1 NMatT=0.
 Defaulting to unpruned grid for atomic number  53.
 Defaulting to unpruned grid for atomic number  53.
 Defaulting to unpruned grid for atomic number  53.
 Defaulting to unpruned grid for atomic number  53.
 ***** Axes restored to original set *****
 -------------------------------------------------------------------
 Center     Atomic                   Forces (Hartrees/Bohr)
 Number     Number              X              Y              Z
 -------------------------------------------------------------------
      1        8          -0.016552521   -0.000002037   -0.001189338
      2        1           0.015439441   -0.004885324    0.014733914
      3        8          -0.004529565    0.004312147   -0.014153666
      4        1           0.002552425    0.000515332    0.001160935
      5       53           0.003090219    0.000059883   -0.000551845
 -------------------------------------------------------------------
 Cartesian Forces:  Max     0.016552521 RMS     0.008214439

 GradGradGradGradGradGradGradGradGradGradGradGradGradGradGradGradGradGrad
 Berny optimization.
 Internal  Forces:  Max     0.021959492 RMS     0.009296639
 Search for a saddle point.
 Step number   3 out of a maximum of   20
 All quantities printed in internal units (Hartrees-Bohrs-Radians)
 Swaping is turned off.
 Update second derivatives using D2CorX and points    1    2    3
 The second derivative matrix:
                          R1        R2        R3        R4        R5
           R1          -0.09767
           R2           0.10345   0.08703
           R3          -0.01232   0.01667   0.15051
           R4          -0.08797  -0.01482   0.00153   0.27841
           R5          -0.00435   0.00566  -0.00135  -0.00438   0.58661
           A1          -0.21906  -0.01612  -0.00507   0.12075  -0.00304
           A2          -0.31178  -0.03302  -0.01238  -0.11914  -0.00238
           A3           0.11625  -0.00483   0.01317   0.04613  -0.00147
           A4          -0.06371   0.00266  -0.01023  -0.05963   0.01455
           D1          -0.01890  -0.02649  -0.00218   0.06337  -0.00236
                          A1        A2        A3        A4        D1
           A1           0.89856
           A2          -0.21248  -0.53318
           A3          -0.22459  -0.28890  -0.29020
           A4          -0.13398   0.18417   0.26572  -0.03372
           D1           0.27552   0.03571  -0.13549   0.03393   0.04885
     Eigenvalues ---   -0.53540  -0.02928   0.01688   0.07598   0.13892
     Eigenvalues ---    0.15145   0.30133   0.49676   0.587131000.00000
 Eigenvectors required to have negative eigenvalues:
                          A3        A4        R1        D1        R4
   1                    0.72240  -0.46310  -0.38886   0.23070  -0.16564
                          R2        A1        A2        R3        R5
   1                    0.13410  -0.10442   0.04484  -0.02987   0.00439
 RFO step:  Lambda0=1.061025095D-04 Lambda=-2.97456100D-02.
 Linear search not attempted -- option 19 set.
 Maximum step size (   0.030) exceeded in Quadratic search.
    -- Step size scaled by   0.100
 Iteration  1 RMS(Cart)=  0.01404156 RMS(Int)=  0.00043712
 Iteration  2 RMS(Cart)=  0.00038863 RMS(Int)=  0.00018051
 Iteration  3 RMS(Cart)=  0.00000326 RMS(Int)=  0.00018050
 Iteration  4 RMS(Cart)=  0.00000031 RMS(Int)=  0.00018050
 Variable       Old X    -DE/DX   Delta X   Delta X   Delta X     New X
                                 (Linear)    (Quad)   (Total)
    R1        3.26183  -0.00373   0.00000  -0.00432  -0.00444   3.25740
    R2        4.66874   0.01630   0.00000   0.02493   0.02507   4.69381
    R3        3.70058  -0.00310   0.00000  -0.00302  -0.00302   3.69756
    R4        1.89106  -0.02196   0.00000  -0.00424  -0.00439   1.88668
    R5        1.84141   0.00169   0.00000  -0.00015  -0.00015   1.84125
    A1        3.13658   0.00732   0.00000   0.00232   0.00195   3.13853
    A2        2.82114   0.00527   0.00000   0.00936   0.00903   2.83017
    A3        2.06668   0.00200   0.00000  -0.00342  -0.00333   2.06335
    A4        1.89036   0.00201   0.00000   0.00579   0.00568   1.89605
    D1       -1.73784   0.00079   0.00000  -0.00972  -0.00967  -1.74750
         Item               Value     Threshold  Converged?
 Maximum Force            0.021959     0.000450     NO 
 RMS     Force            0.009297     0.000300     NO 
 Maximum Displacement     0.028395     0.001800     NO 
 RMS     Displacement     0.014218     0.001200     NO 
 Predicted change in Energy=-5.730317D-04
 GradGradGradGradGradGradGradGradGradGradGradGradGradGradGradGradGradGrad

                          Input orientation:                          
 ---------------------------------------------------------------------
 Center     Atomic      Atomic             Coordinates (Angstroms)
 Number     Number       Type             X           Y           Z
 ---------------------------------------------------------------------
      1          8           0       -1.682160    0.723649    0.152440
      2          1           0       -0.053125    0.837763   -0.399376
      3          8           0        0.801205    0.718195    0.103218
      4          1           0        1.264612    1.574595    0.137722
      5         53           0       -3.533059    0.592455    0.773327
 ---------------------------------------------------------------------
                    Distance matrix (angstroms):
                    1          2          3          4          5
     1  O    0.000000
     2  H    1.723740   0.000000
     3  O    2.483858   0.998387   0.000000
     4  H    3.067212   1.602443   0.974349   0.000000
     5  I    1.956666   3.680401   4.387562   4.938242   0.000000
 Stoichiometry    H2IO2(2)
 Framework group  C1[X(H2IO2)]
 Deg. of freedom     9
 Full point group                 C1      NOp   1
 Largest Abelian subgroup         C1      NOp   1
 Largest concise Abelian subgroup C1      NOp   1
                         Standard orientation:                         
 ---------------------------------------------------------------------
 Center     Atomic      Atomic             Coordinates (Angstroms)
 Number     Number       Type             X           Y           Z
 ---------------------------------------------------------------------
      1          8           0        1.103731    0.259779    0.012339
      2          1           0        2.808488    0.514744    0.021158
      3          8           0        3.552508   -0.138206   -0.108709
      4          1           0        4.048656   -0.215005    0.726333
      5         53           0       -0.832209   -0.024006    0.000443
 ---------------------------------------------------------------------
 Rotational constants (GHZ):    205.5435968      1.5279309      1.5228165
 Standard basis: LANL2DZ (5D, 7F)
 There are    30 symmetry adapted basis functions of A   symmetry.
 Integral buffers will be    262144 words long.
 Raffenetti 2 integral format.
 Two-electron integral symmetry is turned on.
    30 basis functions,    70 primitive gaussians,    30 cartesian basis functions
    13 alpha electrons       12 beta electrons
       nuclear repulsion energy        50.0422740939 Hartrees.
 NAtoms=    5 NActive=    5 NUniq=    5 SFac= 7.50D-01 NAtFMM=   80 NAOKFM=F Big=F
 ------------------------------------------------------------------------------
 Polarizable Continuum Model (PCM)
 =================================
 Model                : PCM.
 Atomic radii         : SMD-Coulomb.
 Polarization charges : Total charges.
 Charge compensation  : None.
 Solution method      : Matrix inversion.
 Cavity type          : VdW (van der Waals Surface) (Alpha=1.000).
 Cavity algorithm     : GePol (No added spheres)
                        Default sphere list used, NSphG=    5.
                        Lebedev-Laikov grids with approx.  5.0 points / Ang**2.
                        Smoothing algorithm: Karplus/York (Gamma=1.0000).
                        Polarization charges: spherical gaussians, with
                                              point-specific exponents (IZeta= 3).
                        Self-potential: point-specific (ISelfS= 7).
                        Self-field    : sphere-specific E.n sum rule (ISelfD= 2).
 1st derivatives      : Analytical E(r).r(x)/FMM algorithm (CHGder, D1EAlg=3).
                        Cavity 1st derivative terms included.
 Solvent              : Water, Eps=  78.355300 Eps(inf)=   1.777849
 ------------------------------------------------------------------------------
 Spheres list:
 ISph  on   Nord    Re0     Alpha      Xe            Ye            Ze
    1   O      1    1.520   1.000      1.103731      0.259779      0.012339
    2   H      2    1.200   1.000      2.808488      0.514744      0.021158
    3   O      3    1.520   1.000      3.552508     -0.138206     -0.108709
    4   H      4    1.200   1.000      4.048656     -0.215005      0.726333
    5   I      5    1.980   1.000     -0.832209     -0.024006      0.000443
 ------------------------------------------------------------------------------
 ------------------------------------------------------------------------------
 Atomic radii for non-electrostatic terms: SMD-CDS.
 ------------------------------------------------------------------------------
 Nuclear repulsion after PCM non-electrostatic terms =       50.0439742509 Hartrees.
 One-electron integrals computed using PRISM.
   1 Symmetry operations used in ECPInt.
 ECPInt:  NShTT=     171 NPrTT=    1054 LenC2=     172 LenP2D=     904.
 LDataN:  DoStor=T MaxTD1= 4 Len=   56
 NBasis=    30 RedAO= T  NBF=    30
 NBsUse=    30 1.00D-06 NBFU=    30
 Defaulting to unpruned grid for atomic number  53.
 Initial guess read from the read-write file.
 B after Tr=     0.000000    0.000000    0.000000
         Rot=    1.000000    0.000000    0.000000    0.000000 Ang=   0.00 deg.
 Initial guess orbital symmetries:
 Alpha Orbitals:
       Occupied  (A) (A) (A) (A) (A) (A) (A) (A) (A) (A) (A) (A)
                 (A)
       Virtual   (A) (A) (A) (A) (A) (A) (A) (A) (A) (A) (A) (A)
                 (A) (A) (A) (A) (A)
 Beta  Orbitals:
       Occupied  (A) (A) (A) (A) (A) (A) (A) (A) (A) (A) (A) (A)
       Virtual   (A) (A) (A) (A) (A) (A) (A) (A) (A) (A) (A) (A)
                 (A) (A) (A) (A) (A) (A)
 Initial guess <Sx>= 0.0000 <Sy>= 0.0000 <Sz>= 0.5000 <S**2>= 0.7559 S= 0.5029
 Harris functional with IExCor= 1009 diagonalized for initial guess.
 ExpMin= 1.05D-01 ExpMax= 7.82D+03 ExpMxC= 2.73D+02 IAcc=1 IRadAn=         1 AccDes= 0.00D+00
 HarFok:  IExCor= 1009 AccDes= 0.00D+00 IRadAn=         1 IDoV= 1
 ScaDFX=  1.000000  1.000000  1.000000  1.000000
 Defaulting to unpruned grid for atomic number  53.
 Defaulting to unpruned grid for atomic number  53.
 Defaulting to unpruned grid for atomic number  53.
 Defaulting to unpruned grid for atomic number  53.
 FoFCou: FMM=F IPFlag=           0 FMFlag=      100000 FMFlg1=           0
         NFxFlg=           0 DoJE=T BraDBF=F KetDBF=T FulRan=T
         Omega=  0.000000  0.000000  1.000000  0.000000  0.000000 ICntrl=     500 IOpCl=  0
         NMat0=    1 NMatS0=    1 NMatT0=    0 NMatD0=    1 NMtDS0=    0 NMtDT0=    0
         I1Cent=           4 NGrid=           0.
 Petite list used in FoFCou.
 Requested convergence on RMS density matrix=1.00D-08 within 128 cycles.
 Requested convergence on MAX density matrix=1.00D-06.
 Requested convergence on             energy=1.00D-06.
 No special actions if energy rises.
 Keep R1 and R2 ints in memory in canonical form, NReq=3535351.
 Defaulting to unpruned grid for atomic number  53.
 Defaulting to unpruned grid for atomic number  53.
 Defaulting to unpruned grid for atomic number  53.
 Defaulting to unpruned grid for atomic number  53.
 Error on total polarization charges =  0.05951
 SCF Done:  E(UM062X) =  -162.832704350     A.U. after   21 cycles
             Convg  =    0.8447D-08             -V/T =  2.0582
 <Sx>= 0.0000 <Sy>= 0.0000 <Sz>= 0.5000 <S**2>= 0.7558 S= 0.5029
 <L.S>= 0.000000000000E+00
 SMD-CDS (non-electrostatic) energy             (kcal/mol) =       1.07
 (included in total energy above)
 Annihilation of the first spin contaminant:
 S**2 before annihilation     0.7558,   after     0.7500
   1 Symmetry operations used in ECPInt.
 ECPInt:  NShTT=     171 NPrTT=    1054 LenC2=     172 LenP2D=     904.
 LDataN:  DoStor=T MaxTD1= 5 Len=  102
 D1PCM: PCM CHGder 1st derivatives, ID1Alg=3 FixD1E=F DoIter=F DoCFld=F I1PDM=0.
 Calling FoFJK, ICntrl=      2127 FMM=F ISym2X=0 I1Cent= 0 IOpClX= 1 NMat=1 NMatS=1 NMatT=0.
 Defaulting to unpruned grid for atomic number  53.
 Defaulting to unpruned grid for atomic number  53.
 Defaulting to unpruned grid for atomic number  53.
 Defaulting to unpruned grid for atomic number  53.
 ***** Axes restored to original set *****
 -------------------------------------------------------------------
 Center     Atomic                   Forces (Hartrees/Bohr)
 Number     Number              X              Y              Z
 -------------------------------------------------------------------
      1        8          -0.015494505    0.000093927   -0.001234362
      2        1           0.014003209   -0.004393971    0.013171831
      3        8          -0.003562748    0.003751474   -0.012435801
      4        1           0.002179018    0.000512393    0.000934242
      5       53           0.002875026    0.000036177   -0.000435910
 -------------------------------------------------------------------
 Cartesian Forces:  Max     0.015494505 RMS     0.007421871

 GradGradGradGradGradGradGradGradGradGradGradGradGradGradGradGradGradGrad
 Berny optimization.
 Internal  Forces:  Max     0.019364085 RMS     0.008500140
 Search for a saddle point.
 Step number   4 out of a maximum of   20
 All quantities printed in internal units (Hartrees-Bohrs-Radians)
 Swaping is turned off.
 Update second derivatives using D2CorX and points    1    2    3    4
 The second derivative matrix:
                          R1        R2        R3        R4        R5
           R1          -0.09288
           R2           0.08593   0.09974
           R3          -0.01038   0.01362   0.15101
           R4          -0.08488  -0.00048   0.00026   0.27386
           R5          -0.00429   0.00582  -0.00136  -0.00451   0.58661
           A1          -0.22357   0.05479  -0.01270   0.10956  -0.00344
           A2          -0.31971   0.05066  -0.02190  -0.12663  -0.00281
           A3           0.11064   0.08787   0.00317   0.02849  -0.00208
           A4          -0.05838  -0.09998   0.00083  -0.03978   0.01524
           D1          -0.01513   0.01280  -0.00616   0.05245  -0.00273
                          A1        A2        A3        A4        D1
           A1           0.90211
           A2          -0.18789  -0.47925
           A3          -0.22976  -0.26926  -0.32007
           A4          -0.12617   0.16445   0.30312  -0.08001
           D1           0.25496   0.02497  -0.17972   0.08524   0.01422
     Eigenvalues ---   -0.80575  -0.05560   0.03480   0.06270   0.14611
     Eigenvalues ---    0.15173   0.29678   0.58677   0.685791000.00000
 Eigenvectors required to have negative eigenvalues:
                          A3        A4        A2        D1        R2
   1                    0.71842  -0.49793   0.41462   0.22889  -0.09016
                          R4        R1        R3        R5        A1
   1                   -0.05364  -0.02035   0.01000   0.00794  -0.00780
 RFO step:  Lambda0=4.373524458D-06 Lambda=-5.58091381D-02.
 Linear search not attempted -- option 19 set.
 Maximum step size (   0.030) exceeded in Quadratic search.
    -- Step size scaled by   0.163
 Iteration  1 RMS(Cart)=  0.01732727 RMS(Int)=  0.00113930
 Iteration  2 RMS(Cart)=  0.00091911 RMS(Int)=  0.00080198
 Iteration  3 RMS(Cart)=  0.00039843 RMS(Int)=  0.00085104
 Iteration  4 RMS(Cart)=  0.00077499 RMS(Int)=  0.00091962
 Iteration  5 RMS(Cart)=  0.00067947 RMS(Int)=  0.00088267
 Iteration  6 RMS(Cart)=  0.00051769 RMS(Int)=  0.00084652
 Iteration  7 RMS(Cart)=  0.00040451 RMS(Int)=  0.00083472
 Iteration  8 RMS(Cart)=  0.00038884 RMS(Int)=  0.00083973
 Iteration  9 RMS(Cart)=  0.00039337 RMS(Int)=  0.00083365
 Iteration 10 RMS(Cart)=  0.00040992 RMS(Int)=  0.00084654
 Iteration 11 RMS(Cart)=  0.00040472 RMS(Int)=  0.00083476
 Iteration 12 RMS(Cart)=  0.00038908 RMS(Int)=  0.00083978
 Iteration 13 RMS(Cart)=  0.00039344 RMS(Int)=  0.00083366
 Iteration 14 RMS(Cart)=  0.00040974 RMS(Int)=  0.00084649
 Iteration 15 RMS(Cart)=  0.00040462 RMS(Int)=  0.00083475
 Iteration 16 RMS(Cart)=  0.00038921 RMS(Int)=  0.00083983
 Iteration 17 RMS(Cart)=  0.00039351 RMS(Int)=  0.00083366
 Iteration 18 RMS(Cart)=  0.00040956 RMS(Int)=  0.00084643
 Iteration 19 RMS(Cart)=  0.00040453 RMS(Int)=  0.00083474
 Iteration 20 RMS(Cart)=  0.00038934 RMS(Int)=  0.00083987
 Iteration 21 RMS(Cart)=  0.00039358 RMS(Int)=  0.00083367
 Iteration 22 RMS(Cart)=  0.00040938 RMS(Int)=  0.00084638
 Iteration 23 RMS(Cart)=  0.00040443 RMS(Int)=  0.00083472
 Iteration 24 RMS(Cart)=  0.00038946 RMS(Int)=  0.00083992
 Iteration 25 RMS(Cart)=  0.00039365 RMS(Int)=  0.00083367
 Iteration 26 RMS(Cart)=  0.00040921 RMS(Int)=  0.00084633
 Iteration 27 RMS(Cart)=  0.00040434 RMS(Int)=  0.00083471
 Iteration 28 RMS(Cart)=  0.00038958 RMS(Int)=  0.00083996
 Iteration 29 RMS(Cart)=  0.00039372 RMS(Int)=  0.00083368
 Iteration 30 RMS(Cart)=  0.00040905 RMS(Int)=  0.00084628
 Iteration 31 RMS(Cart)=  0.00040425 RMS(Int)=  0.00083470
 Iteration 32 RMS(Cart)=  0.00038970 RMS(Int)=  0.00084001
 Iteration 33 RMS(Cart)=  0.00039378 RMS(Int)=  0.00083368
 Iteration 34 RMS(Cart)=  0.00040888 RMS(Int)=  0.00084624
 Iteration 35 RMS(Cart)=  0.00040416 RMS(Int)=  0.00083469
 Iteration 36 RMS(Cart)=  0.00038982 RMS(Int)=  0.00084005
 Iteration 37 RMS(Cart)=  0.00039384 RMS(Int)=  0.00083369
 Iteration 38 RMS(Cart)=  0.00040873 RMS(Int)=  0.00084619
 Iteration 39 RMS(Cart)=  0.00040407 RMS(Int)=  0.00083468
 Iteration 40 RMS(Cart)=  0.00038993 RMS(Int)=  0.00084009
 Iteration 41 RMS(Cart)=  0.00039391 RMS(Int)=  0.00083369
 Iteration 42 RMS(Cart)=  0.00040857 RMS(Int)=  0.00084614
 Iteration 43 RMS(Cart)=  0.00040399 RMS(Int)=  0.00083467
 Iteration 44 RMS(Cart)=  0.00039004 RMS(Int)=  0.00084013
 Iteration 45 RMS(Cart)=  0.00039397 RMS(Int)=  0.00083370
 Iteration 46 RMS(Cart)=  0.00040842 RMS(Int)=  0.00084610
 Iteration 47 RMS(Cart)=  0.00040391 RMS(Int)=  0.00083466
 Iteration 48 RMS(Cart)=  0.00039015 RMS(Int)=  0.00084017
 Iteration 49 RMS(Cart)=  0.00039403 RMS(Int)=  0.00083370
 Iteration 50 RMS(Cart)=  0.00040828 RMS(Int)=  0.00084606
 Iteration 51 RMS(Cart)=  0.00040383 RMS(Int)=  0.00083466
 Iteration 52 RMS(Cart)=  0.00039026 RMS(Int)=  0.00084021
 Iteration 53 RMS(Cart)=  0.00039408 RMS(Int)=  0.00083371
 Iteration 54 RMS(Cart)=  0.00040814 RMS(Int)=  0.00084601
 Iteration 55 RMS(Cart)=  0.00040375 RMS(Int)=  0.00083465
 Iteration 56 RMS(Cart)=  0.00039037 RMS(Int)=  0.00084025
 Iteration 57 RMS(Cart)=  0.00039414 RMS(Int)=  0.00083371
 Iteration 58 RMS(Cart)=  0.00040800 RMS(Int)=  0.00084597
 Iteration 59 RMS(Cart)=  0.00040368 RMS(Int)=  0.00083464
 Iteration 60 RMS(Cart)=  0.00039047 RMS(Int)=  0.00084029
 Iteration 61 RMS(Cart)=  0.00039420 RMS(Int)=  0.00083371
 Iteration 62 RMS(Cart)=  0.00040786 RMS(Int)=  0.00084593
 Iteration 63 RMS(Cart)=  0.00040360 RMS(Int)=  0.00083463
 Iteration 64 RMS(Cart)=  0.00039057 RMS(Int)=  0.00084032
 Iteration 65 RMS(Cart)=  0.00039425 RMS(Int)=  0.00083372
 Iteration 66 RMS(Cart)=  0.00040773 RMS(Int)=  0.00084589
 Iteration 67 RMS(Cart)=  0.00040353 RMS(Int)=  0.00083462
 Iteration 68 RMS(Cart)=  0.00039067 RMS(Int)=  0.00084036
 Iteration 69 RMS(Cart)=  0.00039431 RMS(Int)=  0.00083372
 Iteration 70 RMS(Cart)=  0.00040760 RMS(Int)=  0.00084585
 Iteration 71 RMS(Cart)=  0.00040346 RMS(Int)=  0.00083461
 Iteration 72 RMS(Cart)=  0.00039077 RMS(Int)=  0.00084039
 Iteration 73 RMS(Cart)=  0.00039436 RMS(Int)=  0.00083373
 Iteration 74 RMS(Cart)=  0.00040747 RMS(Int)=  0.00084582
 Iteration 75 RMS(Cart)=  0.00040339 RMS(Int)=  0.00083460
 Iteration 76 RMS(Cart)=  0.00039086 RMS(Int)=  0.00084043
 Iteration 77 RMS(Cart)=  0.00039441 RMS(Int)=  0.00083373
 Iteration 78 RMS(Cart)=  0.00040734 RMS(Int)=  0.00084578
 Iteration 79 RMS(Cart)=  0.00040332 RMS(Int)=  0.00083460
 Iteration 80 RMS(Cart)=  0.00039096 RMS(Int)=  0.00084046
 Iteration 81 RMS(Cart)=  0.00039446 RMS(Int)=  0.00083373
 Iteration 82 RMS(Cart)=  0.00040722 RMS(Int)=  0.00084574
 Iteration 83 RMS(Cart)=  0.00040326 RMS(Int)=  0.00083459
 Iteration 84 RMS(Cart)=  0.00039105 RMS(Int)=  0.00084049
 Iteration 85 RMS(Cart)=  0.00039451 RMS(Int)=  0.00083374
 Iteration 86 RMS(Cart)=  0.00040710 RMS(Int)=  0.00084571
 Iteration 87 RMS(Cart)=  0.00040319 RMS(Int)=  0.00083458
 Iteration 88 RMS(Cart)=  0.00039114 RMS(Int)=  0.00084053
 Iteration 89 RMS(Cart)=  0.00039456 RMS(Int)=  0.00083374
 Iteration 90 RMS(Cart)=  0.00040699 RMS(Int)=  0.00084567
 Iteration 91 RMS(Cart)=  0.00040313 RMS(Int)=  0.00083458
 Iteration 92 RMS(Cart)=  0.00039123 RMS(Int)=  0.00084056
 Iteration 93 RMS(Cart)=  0.00039461 RMS(Int)=  0.00083375
 Iteration 94 RMS(Cart)=  0.00040687 RMS(Int)=  0.00084564
 Iteration 95 RMS(Cart)=  0.00040306 RMS(Int)=  0.00083457
 Iteration 96 RMS(Cart)=  0.00039132 RMS(Int)=  0.00084059
 Iteration 97 RMS(Cart)=  0.00039466 RMS(Int)=  0.00083375
 Iteration 98 RMS(Cart)=  0.00040676 RMS(Int)=  0.00084560
 Iteration 99 RMS(Cart)=  0.00040300 RMS(Int)=  0.00083456
 Iteration100 RMS(Cart)=  0.00039140 RMS(Int)=  0.00084062
 New curvilinear step not converged.
 Iteration  1 RMS(Cart)=  0.01559455 RMS(Int)=  0.00085020
 Iteration  2 RMS(Cart)=  0.00070355 RMS(Int)=  0.00059814
 Iteration  3 RMS(Cart)=  0.00030691 RMS(Int)=  0.00063754
 Iteration  4 RMS(Cart)=  0.00060149 RMS(Int)=  0.00066817
 Iteration  5 RMS(Cart)=  0.00061582 RMS(Int)=  0.00067912
 Iteration  6 RMS(Cart)=  0.00065591 RMS(Int)=  0.00068342
 Iteration  7 RMS(Cart)=  0.00052139 RMS(Int)=  0.00066114
 Iteration  8 RMS(Cart)=  0.00041682 RMS(Int)=  0.00063992
 Iteration  9 RMS(Cart)=  0.00037517 RMS(Int)=  0.00063602
 Iteration 10 RMS(Cart)=  0.00038272 RMS(Int)=  0.00064271
 Iteration 11 RMS(Cart)=  0.00038073 RMS(Int)=  0.00063668
 Iteration 12 RMS(Cart)=  0.00037549 RMS(Int)=  0.00064073
 Iteration 13 RMS(Cart)=  0.00037677 RMS(Int)=  0.00063620
 Iteration 14 RMS(Cart)=  0.00038047 RMS(Int)=  0.00064211
 Iteration 15 RMS(Cart)=  0.00037950 RMS(Int)=  0.00063653
 Iteration 16 RMS(Cart)=  0.00037691 RMS(Int)=  0.00064114
 Iteration 17 RMS(Cart)=  0.00037756 RMS(Int)=  0.00063629
 Iteration 18 RMS(Cart)=  0.00037939 RMS(Int)=  0.00064182
 Iteration 19 RMS(Cart)=  0.00037892 RMS(Int)=  0.00063646
 Iteration 20 RMS(Cart)=  0.00037763 RMS(Int)=  0.00064134
 Iteration 21 RMS(Cart)=  0.00037796 RMS(Int)=  0.00063634
 Iteration 22 RMS(Cart)=  0.00037886 RMS(Int)=  0.00064167
 Iteration 23 RMS(Cart)=  0.00037863 RMS(Int)=  0.00063642
 Iteration 24 RMS(Cart)=  0.00037799 RMS(Int)=  0.00064144
 Iteration 25 RMS(Cart)=  0.00037816 RMS(Int)=  0.00063636
 Iteration 26 RMS(Cart)=  0.00037860 RMS(Int)=  0.00064160
 Iteration 27 RMS(Cart)=  0.00037849 RMS(Int)=  0.00063640
 Iteration 28 RMS(Cart)=  0.00037817 RMS(Int)=  0.00064149
 Iteration 29 RMS(Cart)=  0.00037825 RMS(Int)=  0.00063638
 Iteration 30 RMS(Cart)=  0.00037847 RMS(Int)=  0.00064157
 Iteration 31 RMS(Cart)=  0.00037842 RMS(Int)=  0.00063640
 Iteration 32 RMS(Cart)=  0.00037826 RMS(Int)=  0.00064151
 Iteration 33 RMS(Cart)=  0.00037830 RMS(Int)=  0.00063638
 Iteration 34 RMS(Cart)=  0.00037841 RMS(Int)=  0.00064155
 Iteration 35 RMS(Cart)=  0.00037838 RMS(Int)=  0.00063639
 Iteration 36 RMS(Cart)=  0.00037831 RMS(Int)=  0.00064152
 Iteration 37 RMS(Cart)=  0.00037833 RMS(Int)=  0.00063639
 Iteration 38 RMS(Cart)=  0.00037838 RMS(Int)=  0.00064154
 Iteration 39 RMS(Cart)=  0.00037837 RMS(Int)=  0.00063639
 Iteration 40 RMS(Cart)=  0.00037833 RMS(Int)=  0.00064153
 Iteration 41 RMS(Cart)=  0.00037834 RMS(Int)=  0.00063639
 Iteration 42 RMS(Cart)=  0.00037836 RMS(Int)=  0.00064154
 Iteration 43 RMS(Cart)=  0.00037836 RMS(Int)=  0.00063639
 Iteration 44 RMS(Cart)=  0.00037834 RMS(Int)=  0.00064153
 Iteration 45 RMS(Cart)=  0.00037834 RMS(Int)=  0.00063639
 Iteration 46 RMS(Cart)=  0.00037836 RMS(Int)=  0.00064154
 Iteration 47 RMS(Cart)=  0.00037835 RMS(Int)=  0.00063639
 Iteration 48 RMS(Cart)=  0.00037834 RMS(Int)=  0.00064153
 Iteration 49 RMS(Cart)=  0.00037835 RMS(Int)=  0.00063639
 Iteration 50 RMS(Cart)=  0.00037835 RMS(Int)=  0.00064153
 Iteration 51 RMS(Cart)=  0.00037835 RMS(Int)=  0.00063639
 Iteration 52 RMS(Cart)=  0.00037835 RMS(Int)=  0.00064153
 Iteration 53 RMS(Cart)=  0.00037835 RMS(Int)=  0.00063639
 Iteration 54 RMS(Cart)=  0.00037835 RMS(Int)=  0.00064153
 Iteration 55 RMS(Cart)=  0.00037835 RMS(Int)=  0.00063639
 Iteration 56 RMS(Cart)=  0.00037835 RMS(Int)=  0.00064153
 Iteration 57 RMS(Cart)=  0.00037835 RMS(Int)=  0.00063639
 Iteration 58 RMS(Cart)=  0.00037835 RMS(Int)=  0.00064153
 Iteration 59 RMS(Cart)=  0.00037835 RMS(Int)=  0.00063639
 Iteration 60 RMS(Cart)=  0.00037835 RMS(Int)=  0.00064153
 Iteration 61 RMS(Cart)=  0.00037835 RMS(Int)=  0.00063639
 Iteration 62 RMS(Cart)=  0.00037835 RMS(Int)=  0.00064153
 Iteration 63 RMS(Cart)=  0.00037835 RMS(Int)=  0.00063639
 Iteration 64 RMS(Cart)=  0.00037835 RMS(Int)=  0.00064153
 Iteration 65 RMS(Cart)=  0.00037835 RMS(Int)=  0.00063639
 Iteration 66 RMS(Cart)=  0.00037835 RMS(Int)=  0.00064153
 Iteration 67 RMS(Cart)=  0.00037835 RMS(Int)=  0.00063639
 Iteration 68 RMS(Cart)=  0.00037835 RMS(Int)=  0.00064153
 Iteration 69 RMS(Cart)=  0.00037835 RMS(Int)=  0.00063639
 Iteration 70 RMS(Cart)=  0.00037835 RMS(Int)=  0.00064153
 Iteration 71 RMS(Cart)=  0.00037835 RMS(Int)=  0.00063639
 Iteration 72 RMS(Cart)=  0.00037835 RMS(Int)=  0.00064153
 Iteration 73 RMS(Cart)=  0.00037835 RMS(Int)=  0.00063639
 Iteration 74 RMS(Cart)=  0.00037835 RMS(Int)=  0.00064153
 Iteration 75 RMS(Cart)=  0.00037835 RMS(Int)=  0.00063639
 Iteration 76 RMS(Cart)=  0.00037835 RMS(Int)=  0.00064153
 Iteration 77 RMS(Cart)=  0.00037835 RMS(Int)=  0.00063639
 Iteration 78 RMS(Cart)=  0.00037835 RMS(Int)=  0.00064153
 Iteration 79 RMS(Cart)=  0.00037835 RMS(Int)=  0.00063639
 Iteration 80 RMS(Cart)=  0.00037835 RMS(Int)=  0.00064153
 Iteration 81 RMS(Cart)=  0.00037835 RMS(Int)=  0.00063639
 Iteration 82 RMS(Cart)=  0.00037835 RMS(Int)=  0.00064153
 Iteration 83 RMS(Cart)=  0.00037835 RMS(Int)=  0.00063639
 Iteration 84 RMS(Cart)=  0.00037835 RMS(Int)=  0.00064153
 Iteration 85 RMS(Cart)=  0.00037835 RMS(Int)=  0.00063639
 Iteration 86 RMS(Cart)=  0.00037835 RMS(Int)=  0.00064153
 Iteration 87 RMS(Cart)=  0.00037835 RMS(Int)=  0.00063639
 Iteration 88 RMS(Cart)=  0.00037835 RMS(Int)=  0.00064153
 Iteration 89 RMS(Cart)=  0.00037835 RMS(Int)=  0.00063639
 Iteration 90 RMS(Cart)=  0.00037835 RMS(Int)=  0.00064153
 Iteration 91 RMS(Cart)=  0.00037835 RMS(Int)=  0.00063639
 Iteration 92 RMS(Cart)=  0.00037835 RMS(Int)=  0.00064153
 Iteration 93 RMS(Cart)=  0.00037835 RMS(Int)=  0.00063639
 Iteration 94 RMS(Cart)=  0.00037835 RMS(Int)=  0.00064153
 Iteration 95 RMS(Cart)=  0.00037835 RMS(Int)=  0.00063639
 Iteration 96 RMS(Cart)=  0.00037835 RMS(Int)=  0.00064153
 Iteration 97 RMS(Cart)=  0.00037835 RMS(Int)=  0.00063639
 Iteration 98 RMS(Cart)=  0.00037835 RMS(Int)=  0.00064153
 Iteration 99 RMS(Cart)=  0.00037835 RMS(Int)=  0.00063639
 Iteration100 RMS(Cart)=  0.00037835 RMS(Int)=  0.00064153
 New curvilinear step not converged.
 Iteration  1 RMS(Cart)=  0.01386182 RMS(Int)=  0.00057468
 Iteration  2 RMS(Cart)=  0.00051616 RMS(Int)=  0.00040360
 Iteration  3 RMS(Cart)=  0.00014147 RMS(Int)=  0.00041512
 Iteration  4 RMS(Cart)=  0.00031779 RMS(Int)=  0.00043384
 Iteration  5 RMS(Cart)=  0.00034498 RMS(Int)=  0.00044493
 Iteration  6 RMS(Cart)=  0.00040751 RMS(Int)=  0.00045443
 Iteration  7 RMS(Cart)=  0.00037383 RMS(Int)=  0.00044870
 Iteration  8 RMS(Cart)=  0.00033630 RMS(Int)=  0.00044113
 Iteration  9 RMS(Cart)=  0.00032723 RMS(Int)=  0.00044064
 Iteration 10 RMS(Cart)=  0.00032847 RMS(Int)=  0.00044154
 Iteration 11 RMS(Cart)=  0.00032846 RMS(Int)=  0.00044084
 Iteration 12 RMS(Cart)=  0.00032816 RMS(Int)=  0.00044144
 Iteration 13 RMS(Cart)=  0.00032816 RMS(Int)=  0.00044079
 Iteration 14 RMS(Cart)=  0.00032823 RMS(Int)=  0.00044147
 Iteration 15 RMS(Cart)=  0.00032823 RMS(Int)=  0.00044080
 Iteration 16 RMS(Cart)=  0.00032821 RMS(Int)=  0.00044146
 Iteration 17 RMS(Cart)=  0.00032821 RMS(Int)=  0.00044080
 Iteration 18 RMS(Cart)=  0.00032822 RMS(Int)=  0.00044146
 Iteration 19 RMS(Cart)=  0.00032822 RMS(Int)=  0.00044080
 Iteration 20 RMS(Cart)=  0.00032822 RMS(Int)=  0.00044146
 Iteration 21 RMS(Cart)=  0.00032822 RMS(Int)=  0.00044080
 Iteration 22 RMS(Cart)=  0.00032822 RMS(Int)=  0.00044146
 Iteration 23 RMS(Cart)=  0.00032822 RMS(Int)=  0.00044080
 Iteration 24 RMS(Cart)=  0.00032822 RMS(Int)=  0.00044146
 Iteration 25 RMS(Cart)=  0.00032822 RMS(Int)=  0.00044080
 Iteration 26 RMS(Cart)=  0.00032822 RMS(Int)=  0.00044146
 Iteration 27 RMS(Cart)=  0.00032822 RMS(Int)=  0.00044080
 Iteration 28 RMS(Cart)=  0.00032822 RMS(Int)=  0.00044146
 Iteration 29 RMS(Cart)=  0.00032822 RMS(Int)=  0.00044080
 Iteration 30 RMS(Cart)=  0.00032822 RMS(Int)=  0.00044146
 Iteration 31 RMS(Cart)=  0.00032822 RMS(Int)=  0.00044080
 Iteration 32 RMS(Cart)=  0.00032822 RMS(Int)=  0.00044146
 Iteration 33 RMS(Cart)=  0.00032822 RMS(Int)=  0.00044080
 Iteration 34 RMS(Cart)=  0.00032822 RMS(Int)=  0.00044146
 Iteration 35 RMS(Cart)=  0.00032822 RMS(Int)=  0.00044080
 Iteration 36 RMS(Cart)=  0.00032822 RMS(Int)=  0.00044146
 Iteration 37 RMS(Cart)=  0.00032822 RMS(Int)=  0.00044080
 Iteration 38 RMS(Cart)=  0.00032822 RMS(Int)=  0.00044146
 Iteration 39 RMS(Cart)=  0.00032822 RMS(Int)=  0.00044080
 Iteration 40 RMS(Cart)=  0.00032822 RMS(Int)=  0.00044146
 Iteration 41 RMS(Cart)=  0.00032822 RMS(Int)=  0.00044080
 Iteration 42 RMS(Cart)=  0.00032822 RMS(Int)=  0.00044146
 Iteration 43 RMS(Cart)=  0.00032822 RMS(Int)=  0.00044080
 Iteration 44 RMS(Cart)=  0.00032822 RMS(Int)=  0.00044146
 Iteration 45 RMS(Cart)=  0.00032822 RMS(Int)=  0.00044080
 Iteration 46 RMS(Cart)=  0.00032822 RMS(Int)=  0.00044146
 Iteration 47 RMS(Cart)=  0.00032822 RMS(Int)=  0.00044080
 Iteration 48 RMS(Cart)=  0.00032822 RMS(Int)=  0.00044146
 Iteration 49 RMS(Cart)=  0.00032822 RMS(Int)=  0.00044080
 Iteration 50 RMS(Cart)=  0.00032822 RMS(Int)=  0.00044146
 Iteration 51 RMS(Cart)=  0.00032822 RMS(Int)=  0.00044080
 Iteration 52 RMS(Cart)=  0.00032822 RMS(Int)=  0.00044146
 Iteration 53 RMS(Cart)=  0.00032822 RMS(Int)=  0.00044080
 Iteration 54 RMS(Cart)=  0.00032822 RMS(Int)=  0.00044146
 Iteration 55 RMS(Cart)=  0.00032822 RMS(Int)=  0.00044080
 Iteration 56 RMS(Cart)=  0.00032822 RMS(Int)=  0.00044146
 Iteration 57 RMS(Cart)=  0.00032822 RMS(Int)=  0.00044080
 Iteration 58 RMS(Cart)=  0.00032822 RMS(Int)=  0.00044146
 Iteration 59 RMS(Cart)=  0.00032822 RMS(Int)=  0.00044080
 Iteration 60 RMS(Cart)=  0.00032822 RMS(Int)=  0.00044146
 Iteration 61 RMS(Cart)=  0.00032822 RMS(Int)=  0.00044080
 Iteration 62 RMS(Cart)=  0.00032822 RMS(Int)=  0.00044146
 Iteration 63 RMS(Cart)=  0.00032822 RMS(Int)=  0.00044080
 Iteration 64 RMS(Cart)=  0.00032822 RMS(Int)=  0.00044146
 Iteration 65 RMS(Cart)=  0.00032822 RMS(Int)=  0.00044080
 Iteration 66 RMS(Cart)=  0.00032822 RMS(Int)=  0.00044146
 Iteration 67 RMS(Cart)=  0.00032822 RMS(Int)=  0.00044080
 Iteration 68 RMS(Cart)=  0.00032822 RMS(Int)=  0.00044146
 Iteration 69 RMS(Cart)=  0.00032822 RMS(Int)=  0.00044080
 Iteration 70 RMS(Cart)=  0.00032822 RMS(Int)=  0.00044146
 Iteration 71 RMS(Cart)=  0.00032822 RMS(Int)=  0.00044080
 Iteration 72 RMS(Cart)=  0.00032822 RMS(Int)=  0.00044146
 Iteration 73 RMS(Cart)=  0.00032822 RMS(Int)=  0.00044080
 Iteration 74 RMS(Cart)=  0.00032822 RMS(Int)=  0.00044146
 Iteration 75 RMS(Cart)=  0.00032822 RMS(Int)=  0.00044080
 Iteration 76 RMS(Cart)=  0.00032822 RMS(Int)=  0.00044146
 Iteration 77 RMS(Cart)=  0.00032822 RMS(Int)=  0.00044080
 Iteration 78 RMS(Cart)=  0.00032822 RMS(Int)=  0.00044146
 Iteration 79 RMS(Cart)=  0.00032822 RMS(Int)=  0.00044080
 Iteration 80 RMS(Cart)=  0.00032822 RMS(Int)=  0.00044146
 Iteration 81 RMS(Cart)=  0.00032822 RMS(Int)=  0.00044080
 Iteration 82 RMS(Cart)=  0.00032822 RMS(Int)=  0.00044146
 Iteration 83 RMS(Cart)=  0.00032822 RMS(Int)=  0.00044080
 Iteration 84 RMS(Cart)=  0.00032822 RMS(Int)=  0.00044146
 Iteration 85 RMS(Cart)=  0.00032822 RMS(Int)=  0.00044080
 Iteration 86 RMS(Cart)=  0.00032822 RMS(Int)=  0.00044146
 Iteration 87 RMS(Cart)=  0.00032822 RMS(Int)=  0.00044080
 Iteration 88 RMS(Cart)=  0.00032822 RMS(Int)=  0.00044146
 Iteration 89 RMS(Cart)=  0.00032822 RMS(Int)=  0.00044080
 Iteration 90 RMS(Cart)=  0.00032822 RMS(Int)=  0.00044146
 Iteration 91 RMS(Cart)=  0.00032822 RMS(Int)=  0.00044080
 Iteration 92 RMS(Cart)=  0.00032822 RMS(Int)=  0.00044146
 Iteration 93 RMS(Cart)=  0.00032822 RMS(Int)=  0.00044080
 Iteration 94 RMS(Cart)=  0.00032822 RMS(Int)=  0.00044146
 Iteration 95 RMS(Cart)=  0.00032822 RMS(Int)=  0.00044080
 Iteration 96 RMS(Cart)=  0.00032822 RMS(Int)=  0.00044146
 Iteration 97 RMS(Cart)=  0.00032822 RMS(Int)=  0.00044080
 Iteration 98 RMS(Cart)=  0.00032822 RMS(Int)=  0.00044146
 Iteration 99 RMS(Cart)=  0.00032822 RMS(Int)=  0.00044080
 Iteration100 RMS(Cart)=  0.00032822 RMS(Int)=  0.00044146
 New curvilinear step not converged.
 Iteration  1 RMS(Cart)=  0.01212909 RMS(Int)=  0.00033227
 Iteration  2 RMS(Cart)=  0.00037246 RMS(Int)=  0.00022818
 Iteration  3 RMS(Cart)=  0.00005748 RMS(Int)=  0.00022945
 Iteration  4 RMS(Cart)=  0.00009539 RMS(Int)=  0.00023308
[...]
 Iteration 14 RMS(Cart)=  0.00052301 RMS(Int)=  0.00085615
 Iteration 15 RMS(Cart)=  0.00052357 RMS(Int)=  0.00086377
 Iteration 16 RMS(Cart)=  0.00052414 RMS(Int)=  0.00085623
 Iteration 17 RMS(Cart)=  0.00052436 RMS(Int)=  0.00086385
 Iteration 18 RMS(Cart)=  0.00052458 RMS(Int)=  0.00085626
 Iteration 19 RMS(Cart)=  0.00052466 RMS(Int)=  0.00086388
 Iteration 20 RMS(Cart)=  0.00052475 RMS(Int)=  0.00085627
 Iteration 21 RMS(Cart)=  0.00052478 RMS(Int)=  0.00086389
 Iteration 22 RMS(Cart)=  0.00052481 RMS(Int)=  0.00085628
 Iteration 23 RMS(Cart)=  0.00052482 RMS(Int)=  0.00086390
 Iteration 24 RMS(Cart)=  0.00052483 RMS(Int)=  0.00085628
 Iteration 25 RMS(Cart)=  0.00052484 RMS(Int)=  0.00086390
 Iteration 26 RMS(Cart)=  0.00052484 RMS(Int)=  0.00085628
 Iteration 27 RMS(Cart)=  0.00052484 RMS(Int)=  0.00086390
 Iteration 28 RMS(Cart)=  0.00052484 RMS(Int)=  0.00085628
 Iteration 29 RMS(Cart)=  0.00052485 RMS(Int)=  0.00086390
 Iteration 30 RMS(Cart)=  0.00052485 RMS(Int)=  0.00085628
 Iteration 31 RMS(Cart)=  0.00052485 RMS(Int)=  0.00086390
 Iteration 32 RMS(Cart)=  0.00052485 RMS(Int)=  0.00085628
 Iteration 33 RMS(Cart)=  0.00052485 RMS(Int)=  0.00086390
 Iteration 34 RMS(Cart)=  0.00052485 RMS(Int)=  0.00085628
 Iteration 35 RMS(Cart)=  0.00052485 RMS(Int)=  0.00086390
 Iteration 36 RMS(Cart)=  0.00052485 RMS(Int)=  0.00085628
 Iteration 37 RMS(Cart)=  0.00052485 RMS(Int)=  0.00086390
 Iteration 38 RMS(Cart)=  0.00052485 RMS(Int)=  0.00085628
 Iteration 39 RMS(Cart)=  0.00052485 RMS(Int)=  0.00086390
 Iteration 40 RMS(Cart)=  0.00052485 RMS(Int)=  0.00085628
 Iteration 41 RMS(Cart)=  0.00052485 RMS(Int)=  0.00086390
 Iteration 42 RMS(Cart)=  0.00052485 RMS(Int)=  0.00085628
 Iteration 43 RMS(Cart)=  0.00052485 RMS(Int)=  0.00086390
 Iteration 44 RMS(Cart)=  0.00052485 RMS(Int)=  0.00085628
 Iteration 45 RMS(Cart)=  0.00052485 RMS(Int)=  0.00086390
 Iteration 46 RMS(Cart)=  0.00052485 RMS(Int)=  0.00085628
 Iteration 47 RMS(Cart)=  0.00052485 RMS(Int)=  0.00086390
 Iteration 48 RMS(Cart)=  0.00052485 RMS(Int)=  0.00085628
 Iteration 49 RMS(Cart)=  0.00052485 RMS(Int)=  0.00086390
 Iteration 50 RMS(Cart)=  0.00052485 RMS(Int)=  0.00085628
 Iteration 51 RMS(Cart)=  0.00052485 RMS(Int)=  0.00086390
 Iteration 52 RMS(Cart)=  0.00052485 RMS(Int)=  0.00085628
 Iteration 53 RMS(Cart)=  0.00052485 RMS(Int)=  0.00086390
 Iteration 54 RMS(Cart)=  0.00052485 RMS(Int)=  0.00085628
 Iteration 55 RMS(Cart)=  0.00052485 RMS(Int)=  0.00086390
 Iteration 56 RMS(Cart)=  0.00052485 RMS(Int)=  0.00085628
 Iteration 57 RMS(Cart)=  0.00052485 RMS(Int)=  0.00086390
 Iteration 58 RMS(Cart)=  0.00052485 RMS(Int)=  0.00085628
 Iteration 59 RMS(Cart)=  0.00052485 RMS(Int)=  0.00086390
 Iteration 60 RMS(Cart)=  0.00052485 RMS(Int)=  0.00085628
 Iteration 61 RMS(Cart)=  0.00052485 RMS(Int)=  0.00086390
 Iteration 62 RMS(Cart)=  0.00052485 RMS(Int)=  0.00085628
 Iteration 63 RMS(Cart)=  0.00052485 RMS(Int)=  0.00086390
 Iteration 64 RMS(Cart)=  0.00052485 RMS(Int)=  0.00085628
 Iteration 65 RMS(Cart)=  0.00052485 RMS(Int)=  0.00086390
 Iteration 66 RMS(Cart)=  0.00052485 RMS(Int)=  0.00085628
 Iteration 67 RMS(Cart)=  0.00052485 RMS(Int)=  0.00086390
 Iteration 68 RMS(Cart)=  0.00052485 RMS(Int)=  0.00085628
 Iteration 69 RMS(Cart)=  0.00052485 RMS(Int)=  0.00086390
 Iteration 70 RMS(Cart)=  0.00052485 RMS(Int)=  0.00085628
 Iteration 71 RMS(Cart)=  0.00052485 RMS(Int)=  0.00086390
 Iteration 72 RMS(Cart)=  0.00052485 RMS(Int)=  0.00085628
 Iteration 73 RMS(Cart)=  0.00052485 RMS(Int)=  0.00086390
 Iteration 74 RMS(Cart)=  0.00052485 RMS(Int)=  0.00085628
 Iteration 75 RMS(Cart)=  0.00052485 RMS(Int)=  0.00086390
 Iteration 76 RMS(Cart)=  0.00052485 RMS(Int)=  0.00085628
 Iteration 77 RMS(Cart)=  0.00052485 RMS(Int)=  0.00086390
 Iteration 78 RMS(Cart)=  0.00052485 RMS(Int)=  0.00085628
 Iteration 79 RMS(Cart)=  0.00052485 RMS(Int)=  0.00086390
 Iteration 80 RMS(Cart)=  0.00052485 RMS(Int)=  0.00085628
 Iteration 81 RMS(Cart)=  0.00052485 RMS(Int)=  0.00086390
 Iteration 82 RMS(Cart)=  0.00052485 RMS(Int)=  0.00085628
 Iteration 83 RMS(Cart)=  0.00052485 RMS(Int)=  0.00086390
 Iteration 84 RMS(Cart)=  0.00052485 RMS(Int)=  0.00085628
 Iteration 85 RMS(Cart)=  0.00052485 RMS(Int)=  0.00086390
 Iteration 86 RMS(Cart)=  0.00052485 RMS(Int)=  0.00085628
 Iteration 87 RMS(Cart)=  0.00052485 RMS(Int)=  0.00086390
 Iteration 88 RMS(Cart)=  0.00052485 RMS(Int)=  0.00085628
 Iteration 89 RMS(Cart)=  0.00052485 RMS(Int)=  0.00086390
 Iteration 90 RMS(Cart)=  0.00052485 RMS(Int)=  0.00085628
 Iteration 91 RMS(Cart)=  0.00052485 RMS(Int)=  0.00086390
 Iteration 92 RMS(Cart)=  0.00052485 RMS(Int)=  0.00085628
 Iteration 93 RMS(Cart)=  0.00052485 RMS(Int)=  0.00086390
 Iteration 94 RMS(Cart)=  0.00052485 RMS(Int)=  0.00085628
 Iteration 95 RMS(Cart)=  0.00052485 RMS(Int)=  0.00086390
 Iteration 96 RMS(Cart)=  0.00052485 RMS(Int)=  0.00085628
 Iteration 97 RMS(Cart)=  0.00052485 RMS(Int)=  0.00086390
 Iteration 98 RMS(Cart)=  0.00052485 RMS(Int)=  0.00085628
 Iteration 99 RMS(Cart)=  0.00052485 RMS(Int)=  0.00086390
 Iteration100 RMS(Cart)=  0.00052485 RMS(Int)=  0.00085628
 New curvilinear step not converged.
 Iteration  1 RMS(Cart)=  0.00843609 RMS(Int)=  0.00084734
 Iteration  2 RMS(Cart)=  0.00108355 RMS(Int)=  0.00055813
 Iteration  3 RMS(Cart)=  0.00018650 RMS(Int)=  0.00055655
 Iteration  4 RMS(Cart)=  0.00014143 RMS(Int)=  0.00055486
 Iteration  5 RMS(Cart)=  0.00011055 RMS(Int)=  0.00055429
 Iteration  6 RMS(Cart)=  0.00008630 RMS(Int)=  0.00055377
 Iteration  7 RMS(Cart)=  0.00006843 RMS(Int)=  0.00055354
 Iteration  8 RMS(Cart)=  0.00005415 RMS(Int)=  0.00055336
 Iteration  9 RMS(Cart)=  0.00004321 RMS(Int)=  0.00055326
 Iteration 10 RMS(Cart)=  0.00003443 RMS(Int)=  0.00055319
 Iteration 11 RMS(Cart)=  0.00002757 RMS(Int)=  0.00055315
 Iteration 12 RMS(Cart)=  0.00002205 RMS(Int)=  0.00055313
 Iteration 13 RMS(Cart)=  0.00001768 RMS(Int)=  0.00055311
 Iteration 14 RMS(Cart)=  0.00001417 RMS(Int)=  0.00055310
 Iteration 15 RMS(Cart)=  0.00001138 RMS(Int)=  0.00055309
 Iteration 16 RMS(Cart)=  0.00000913 RMS(Int)=  0.00055309
 Iteration 17 RMS(Cart)=  0.00000734 RMS(Int)=  0.00055309
 Iteration 18 RMS(Cart)=  0.00000589 RMS(Int)=  0.00055308
 Iteration 19 RMS(Cart)=  0.00000474 RMS(Int)=  0.00055308
 Iteration 20 RMS(Cart)=  0.00000380 RMS(Int)=  0.00055308
 Iteration 21 RMS(Cart)=  0.00000306 RMS(Int)=  0.00055308
 Iteration 22 RMS(Cart)=  0.00000246 RMS(Int)=  0.00055308
 Iteration 23 RMS(Cart)=  0.00000198 RMS(Int)=  0.00055308
 Iteration 24 RMS(Cart)=  0.00000159 RMS(Int)=  0.00055308
 Iteration 25 RMS(Cart)=  0.00000128 RMS(Int)=  0.00055308
 Iteration 26 RMS(Cart)=  0.00000103 RMS(Int)=  0.00055308
 Iteration 27 RMS(Cart)=  0.00000083 RMS(Int)=  0.00055308
 Variable       Old X    -DE/DX   Delta X   Delta X   Delta X     New X
                                 (Linear)    (Quad)   (Total)
    R1        3.31956  -0.00643   0.00000  -0.00934  -0.00514   3.31442
    R2        4.96701   0.01088   0.00000   0.01883   0.01081   4.97782
    R3        3.68137  -0.00119   0.00000  -0.00087  -0.00052   3.68085
    R4        1.85392  -0.00591   0.00000  -0.00042   0.00023   1.85415
    R5        1.84169   0.00042   0.00000  -0.00002  -0.00001   1.84168
    A1        3.13484   0.00363   0.00000   0.01039   0.00508   3.13991
    A2        2.93626   0.00036   0.00000   0.00317   0.00249   2.93875
    A3        2.01176   0.00159   0.00000  -0.01637  -0.01037   2.00139
    A4        1.90927   0.00029   0.00000  -0.00154  -0.00033   1.90894
    D1       -1.73700   0.00084   0.00000  -0.00829  -0.00518  -1.74218
         Item               Value     Threshold  Converged?
 Maximum Force            0.010877     0.000450     NO 
 RMS     Force            0.004613     0.000300     NO 
 Maximum Displacement     0.015199     0.001800     NO 
 RMS     Displacement     0.008234     0.001200     NO 
 Predicted change in Energy=-1.504194D-04
 Optimization stopped.
    -- Number of steps exceeded,  NStep=  20
    -- Flag reset to prevent archiving.
                           ----------------------------
                           ! Non-Optimized Parameters !
                           ! (Angstroms and Degrees)  !
 --------------------------                            --------------------------
 ! Name  Definition              Value          Derivative Info.                !
 --------------------------------------------------------------------------------
 ! R1    R(1,2)                  1.7539         -DE/DX =   -0.0064              !
 ! R2    R(1,3)                  2.6341         -DE/DX =    0.0109              !
 ! R3    R(1,5)                  1.9478         -DE/DX =   -0.0012              !
 ! R4    R(2,3)                  0.9812         -DE/DX =   -0.0059              !
 ! R5    R(3,4)                  0.9746         -DE/DX =    0.0004              !
 ! A1    A(2,1,5)              179.9038         -DE/DX =    0.0036              !
 ! A2    A(3,1,5)              168.3779         -DE/DX =    0.0004              !
 ! A3    A(1,3,4)              114.6711         -DE/DX =    0.0016              !
 ! A4    A(2,3,4)              109.3743         -DE/DX =    0.0003              !
 ! D1    D(5,1,3,4)            -99.8194         -DE/DX =    0.0008              !
 --------------------------------------------------------------------------------
 GradGradGradGradGradGradGradGradGradGradGradGradGradGradGradGradGradGrad

                          Input orientation:                          
 ---------------------------------------------------------------------
 Center     Atomic      Atomic             Coordinates (Angstroms)
 Number     Number       Type             X           Y           Z
 ---------------------------------------------------------------------
      1          8           0       -1.736420    0.714335    0.204383
      2          1           0       -0.049921    0.839188   -0.270903
      3          8           0        0.884250    0.716819    0.002610
      4          1           0        1.308457    1.588311    0.104402
      5         53           0       -3.608894    0.588003    0.726839
 ---------------------------------------------------------------------
                    Distance matrix (angstroms):
                    1          2          3          4          5
     1  O    0.000000
     2  H    1.756634   0.000000
     3  O    2.628426   0.981050   0.000000
     4  H    3.169401   1.596005   0.974583   0.000000
     5  I    1.948096   3.704709   4.552959   5.056519   0.000000
 Stoichiometry    H2IO2(2)
 Framework group  C1[X(H2IO2)]
 Deg. of freedom     9
 Full point group                 C1      NOp   1
 Largest Abelian subgroup         C1      NOp   1
 Largest concise Abelian subgroup C1      NOp   1
                         Standard orientation:                         
 ---------------------------------------------------------------------
 Center     Atomic      Atomic             Coordinates (Angstroms)
 Number     Number       Type             X           Y           Z
 ---------------------------------------------------------------------
      1          8           0       -1.084904   -0.037430    0.173009
      2          1           0       -2.832201   -0.066722    0.351497
      3          8           0       -3.697611   -0.083636   -0.110281
      4          1           0       -4.144013    0.774675    0.007361
      5         53           0        0.853516    0.004916   -0.016239
 ---------------------------------------------------------------------
 Rotational constants (GHZ):    327.7383979      1.4345974      1.4341444

 **********************************************************************

            Population analysis using the SCF density.

 **********************************************************************

 Orbital symmetries:
 Alpha Orbitals:
       Occupied  (A) (A) (A) (A) (A) (A) (A) (A) (A) (A) (A) (A)
                 (A)
       Virtual   (A) (A) (A) (A) (A) (A) (A) (A) (A) (A) (A) (A)
                 (A) (A) (A) (A) (A)
 Beta  Orbitals:
       Occupied  (A) (A) (A) (A) (A) (A) (A) (A) (A) (A) (A) (A)
       Virtual   (A) (A) (A) (A) (A) (A) (A) (A) (A) (A) (A) (A)
                 (A) (A) (A) (A) (A) (A)
 The electronic state is 2-A.
 Alpha  occ. eigenvalues --  -19.69460 -19.61715  -1.12271  -1.10584  -0.75277
 Alpha  occ. eigenvalues --   -0.60049  -0.48675  -0.47488  -0.45137  -0.43502
 Alpha  occ. eigenvalues --   -0.38444  -0.32998  -0.31332
 Alpha virt. eigenvalues --   -0.04599   0.17055   0.29084   0.41270   0.41300
 Alpha virt. eigenvalues --    0.41580   0.63256   0.64764   0.72315   0.73547
 Alpha virt. eigenvalues --    0.80459   0.97483   1.04662   1.11906   1.29286
 Alpha virt. eigenvalues --    1.67634   9.09721
  Beta  occ. eigenvalues --  -19.68262 -19.61707  -1.11753  -1.05984  -0.73154
  Beta  occ. eigenvalues --   -0.59902  -0.45929  -0.43013  -0.42496  -0.38531
  Beta  occ. eigenvalues --   -0.36160  -0.30404
  Beta virt. eigenvalues --   -0.12301  -0.03389   0.17148   0.29280   0.41406
  Beta virt. eigenvalues --    0.41486   0.41756   0.65452   0.66043   0.72479
  Beta virt. eigenvalues --    0.76539   0.81030   0.97662   1.04891   1.12525
  Beta virt. eigenvalues --    1.31913   1.67922   9.09559
          Condensed to atoms (all electrons):
              1          2          3          4          5
     1  O    8.630842   0.019953  -0.020092   0.001218   0.062862
     2  H    0.019953   0.284980   0.280991  -0.026569   0.000160
     3  O   -0.020092   0.280991   8.341619   0.285418   0.001173
     4  H    0.001218  -0.026569   0.285418   0.311987  -0.000044
     5  I    0.062862   0.000160   0.001173  -0.000044   6.220429
 Mulliken atomic charges:
              1
     1  O   -0.694784
     2  H    0.440485
     3  O   -0.889109
     4  H    0.427989
     5  I    0.715419
 Sum of Mulliken atomic charges =   0.00000
 Mulliken charges with hydrogens summed into heavy atoms:
              1
     1  O   -0.694784
     3  O   -0.020634
     5  I    0.715419
 Sum of Mulliken charges with hydrogens summed into heavy atoms =   0.00000
          Atomic-Atomic Spin Densities.
              1          2          3          4          5
     1  O    0.786890  -0.005101   0.000068   0.000061  -0.098454
     2  H   -0.005101  -0.000875   0.001653  -0.000121   0.000123
     3  O    0.000068   0.001653   0.001268   0.000064  -0.000052
     4  H    0.000061  -0.000121   0.000064  -0.000159   0.000001
     5  I   -0.098454   0.000123  -0.000052   0.000001   0.416390
 Mulliken atomic spin densities:
              1
     1  O    0.683464
     2  H   -0.004320
     3  O    0.003001
     4  H   -0.000155
     5  I    0.318009
 Sum of Mulliken atomic spin densities =   1.00000
 Electronic spatial extent (au):  <R**2>=            611.5115
 Charge=              0.0000 electrons
 Dipole moment (field-independent basis, Debye):
    X=              6.4721    Y=              2.4056    Z=              1.0469  Tot=              6.9836
 Quadrupole moment (field-independent basis, Debye-Ang):
   XX=            -38.0761   YY=            -31.5879   ZZ=            -31.2906
   XY=             -9.7897   XZ=             -4.4527   YZ=             -0.6154
 Traceless Quadrupole moment (field-independent basis, Debye-Ang):
   XX=             -4.4246   YY=              2.0637   ZZ=              2.3609
   XY=             -9.7897   XZ=             -4.4527   YZ=             -0.6154
 Octapole moment (field-independent basis, Debye-Ang**2):
  XXX=             91.2831  YYY=              2.5608  ZZZ=              0.0287  XYY=             10.8720
  XXY=             41.4048  XXZ=             13.6371  XZZ=             17.5799  YZZ=              0.4952
  YYZ=             -0.0951  XYZ=              0.1268
 Hexadecapole moment (field-independent basis, Debye-Ang**3):
 XXXX=           -795.0205 YYYY=            -45.6646 ZZZZ=            -43.1914 XXXY=           -173.4964
 XXXZ=            -50.8678 YYYX=             -9.3148 YYYZ=             -0.6218 ZZZX=             -4.1606
 ZZZY=             -0.6947 XXYY=           -110.3940 XXZZ=           -132.6918 YYZZ=            -14.9786
 XXYZ=             -1.9466 YYXZ=             -1.1195 ZZXY=             -1.6675
 N-N= 4.907576329167D+01 E-N=-7.129534988368D+02  KE= 2.296882756955D+02
                          Isotropic Fermi Contact Couplings
        Atom                 a.u.       MegaHertz       Gauss      10(-4) cm-1
     1  O(17)              0.09615     -58.28479     -20.79746     -19.44171
     2  H(1)              -0.00008      -0.34370      -0.12264      -0.11464
     3  O(17)             -0.00036       0.21537       0.07685       0.07184
     4  H(1)              -0.00009      -0.41112      -0.14670      -0.13713
     5  I(127)             0.00000       0.00099       0.00035       0.00033
 --------------------------------------------------------
       Center         ----  Spin Dipole Couplings  ----
                      3XX-RR        3YY-RR        3ZZ-RR
 --------------------------------------------------------
     1   Atom       -1.185550     -1.073859      2.259410
     2   Atom        0.033407     -0.018788     -0.014619
     3   Atom        0.007195     -0.012249      0.005054
     4   Atom        0.005896     -0.002344     -0.003552
     5   Atom       -0.007891     -0.026892      0.034783
 --------------------------------------------------------
                        XY            XZ            YZ
 --------------------------------------------------------
     1   Atom       -0.110019      0.400614     -0.989392
     2   Atom        0.000762     -0.004581     -0.001098
     3   Atom        0.003454     -0.009631     -0.006711
     4   Atom       -0.002855      0.000143     -0.000040
     5   Atom       -0.001878      0.006354     -0.018385
 --------------------------------------------------------


 ---------------------------------------------------------------------------------
              Anisotropic Spin Dipole Couplings in Principal Axis System
 ---------------------------------------------------------------------------------

       Atom             a.u.   MegaHertz   Gauss  10(-4) cm-1        Axes

              Baa    -1.3454    97.353    34.738    32.473  0.0005  0.9644  0.2646
     1 O(17)  Bbb    -1.2314    89.105    31.795    29.722  0.9940  0.0285 -0.1060
              Bcc     2.5768  -186.458   -66.533   -62.196  0.1098 -0.2631  0.9585
 
              Baa    -0.0191   -10.171    -3.629    -3.393  0.0075  0.9689  0.2472
     2 H(1)   Bbb    -0.0148    -7.892    -2.816    -2.633  0.0956 -0.2468  0.9643
              Bcc     0.0339    18.063     6.445     6.025  0.9954  0.0164 -0.0944
 
              Baa    -0.0145     1.053     0.376     0.351 -0.0088  0.9474  0.3200
     3 O(17)  Bbb    -0.0030     0.214     0.076     0.071  0.7097 -0.2195  0.6694
              Bcc     0.0175    -1.267    -0.452    -0.422  0.7044  0.2330 -0.6705
 
              Baa    -0.0036    -1.896    -0.677    -0.633 -0.0179 -0.0095  0.9998
     4 H(1)   Bbb    -0.0032    -1.727    -0.616    -0.576  0.2982  0.9544  0.0144
              Bcc     0.0068     3.623     1.293     1.209  0.9543 -0.2984  0.0143
 
              Baa    -0.0320    -3.435    -1.226    -1.146  0.0053  0.9642  0.2651
     5 I(127) Bbb    -0.0088    -0.945    -0.337    -0.315  0.9908  0.0308 -0.1315
              Bcc     0.0407     4.380     1.563     1.461  0.1350 -0.2634  0.9552
 

 ---------------------------------------------------------------------------------



 THE SOLUTION TO A PROBLEM CHANGES THE PROBLEM.

                                 -- JOHN PEERS
           PAUL DICKSON'S "THE OFFICIAL RULES"
 Error termination request processed by link 9999.
 Error termination via Lnk1e in C:\G09W\l9999.exe at Tue Feb 02 04:40:33 2021.
 Job cpu time:  0 days  0 hours  3 minutes 22.0 seconds.
 File lengths (MBytes):  RWF=     18 Int=      0 D2E=      0 Chk=      2 Scr=      1
