 Entering Link 1 = C:\G09W\l1.exe PID=      1856.
  
 Copyright (c) 1988,1990,1992,1993,1995,1998,2003,2009, Gaussian, Inc.
                  All Rights Reserved.
  
 This is part of the Gaussian(R) 09 program.  It is based on
 the Gaussian(R) 03 system (copyright 2003, Gaussian, Inc.),
 the Gaussian(R) 98 system (copyright 1998, Gaussian, Inc.),
 the Gaussian(R) 94 system (copyright 1995, Gaussian, Inc.),
 the Gaussian 92(TM) system (copyright 1992, Gaussian, Inc.),
 the Gaussian 90(TM) system (copyright 1990, Gaussian, Inc.),
 the Gaussian 88(TM) system (copyright 1988, Gaussian, Inc.),
 the Gaussian 86(TM) system (copyright 1986, Carnegie Mellon
 University), and the Gaussian 82(TM) system (copyright 1983,
 Carnegie Mellon University). Gaussian is a federally registered
 trademark of Gaussian, Inc.
  
 This software contains proprietary and confidential information,
 including trade secrets, belonging to Gaussian, Inc.
  
 This software is provided under written license and may be
 used, copied, transmitted, or stored only in accord with that
 written license.
  
 The following legend is applicable only to US Government
 contracts under FAR:
  
                    RESTRICTED RIGHTS LEGEND
  
 Use, reproduction and disclosure by the US Government is
 subject to restrictions as set forth in subparagraphs (a)
 and (c) of the Commercial Computer Software - Restricted
 Rights clause in FAR 52.227-19.
  
 Gaussian, Inc.
 340 Quinnipiac St., Bldg. 40, Wallingford CT 06492
  
  
 ---------------------------------------------------------------
 Warning -- This program may not be used in any manner that
 competes with the business of Gaussian, Inc. or will provide
 assistance to any competitor of Gaussian, Inc.  The licensee
 of this program is prohibited from giving any competitor of
 Gaussian, Inc. access to this program.  By using this program,
 the user acknowledges that Gaussian, Inc. is engaged in the
 business of creating and licensing software in the field of
 computational chemistry and represents and warrants to the
 licensee that it is not a competitor of Gaussian, Inc. and that
 it will not use this program in any manner prohibited above.
 ---------------------------------------------------------------
  

 Cite this work as:
 Gaussian 09, Revision A.02,
 M. J. Frisch, G. W. Trucks, H. B. Schlegel, G. E. Scuseria, 
 M. A. Robb, J. R. Cheeseman, G. Scalmani, V. Barone, B. Mennucci, 
 G. A. Petersson, H. Nakatsuji, M. Caricato, X. Li, H. P. Hratchian, 
 A. F. Izmaylov, J. Bloino, G. Zheng, J. L. Sonnenberg, M. Hada, 
 M. Ehara, K. Toyota, R. Fukuda, J. Hasegawa, M. Ishida, T. Nakajima, 
 Y. Honda, O. Kitao, H. Nakai, T. Vreven, J. A. Montgomery, Jr., 
 J. E. Peralta, F. Ogliaro, M. Bearpark, J. J. Heyd, E. Brothers, 
 K. N. Kudin, V. N. Staroverov, R. Kobayashi, J. Normand, 
 K. Raghavachari, A. Rendell, J. C. Burant, S. S. Iyengar, J. Tomasi, 
 M. Cossi, N. Rega, J. M. Millam, M. Klene, J. E. Knox, J. B. Cross, 
 V. Bakken, C. Adamo, J. Jaramillo, R. Gomperts, R. E. Stratmann, 
 O. Yazyev, A. J. Austin, R. Cammi, C. Pomelli, J. W. Ochterski, 
 R. L. Martin, K. Morokuma, V. G. Zakrzewski, G. A. Voth, 
 P. Salvador, J. J. Dannenberg, S. Dapprich, A. D. Daniels, 
 O. Farkas, J. B. Foresman, J. V. Ortiz, J. Cioslowski, 
 and D. J. Fox, Gaussian, Inc., Wallingford CT, 2009.
 
 ******************************************
 Gaussian 09:  IA32W-G09RevA.02 11-Jun-2009
                02-Feb-2021 
 ******************************************
 %chk=D:\Documents\rayGit\FQ\quimicaComputacional\proyecto\decompositionHydrogenP
 eroxide\decompositionCatalyzedByIodine\step1\ts\ts.chk
 %mem=1500MB
 %nprocshared=4
 Will use up to    4 processors via shared memory.
 ----------------------------------------------------------------------
 # opt=(readfc,ts,noeigen) geom=check guess=check freq=noraman lanl2dz 
 scrf=smd iop(1/8=3) m062x
 ----------------------------------------------------------------------
 1/5=1,8=3,10=3,11=1,14=-1,18=20,26=3,29=2,38=1/1,3;
 2/9=110,12=2,40=1/2;
 3/5=6,6=3,11=2,14=-4,16=1,25=1,30=1,70=32201,71=1,72=1,74=-55,116=-2/1,2,3;
 4/5=1/1;
 5/5=2,38=6/2;
 6/7=2,8=2,9=2,10=2,28=1/1;
 7//1,2,3,16;
 1/5=1,8=3,11=1,14=-1,18=20/3(2);
 2/9=110/2;
 99//99;
 2/9=110/2;
 3/5=6,6=3,11=2,14=-2,16=1,25=1,30=1,70=32205,71=1,74=-55/1,2,3;
 4/5=5,16=3/1;
 5/5=2,38=5/2;
 7//1,2,3,16;
 1/5=1,8=3,11=1,14=-1,18=20/3(-5);
 2/9=110/2;
 6/7=2,8=2,9=2,10=2,19=2,28=1/1;
 99/9=1/99;
 -------------------------------
 Hydrogen peroxide with iodine 5
 -------------------------------
 Redundant internal coordinates taken from checkpoint file:
 D:\Documents\rayGit\FQ\quimicaComputacional\proyecto\decompositionHydrogenPeroxide\decompositionCatalyzedByIodine\step1\ts\ts.chk
 Charge =  0 Multiplicity = 2
 O,0,-1.736419522,0.7143349766,0.2043834181
 H,0,-0.0499214248,0.8391883301,-0.2709032798
 O,0,0.8842496874,0.7168190593,0.0026102895
 H,0,1.3084569163,1.5883111661,0.1044015589
 I,0,-3.608893717,0.5880031979,0.7268392832
 Recover connectivity data from disk.

 GradGradGradGradGradGradGradGradGradGradGradGradGradGradGradGradGradGrad
 Berny optimization.
 Initialization pass.
 Force constant matrix read from checkpoint file:
 D:\Documents\rayGit\FQ\quimicaComputacional\proyecto\decompositionHydrogenPeroxi
 de\decompositionCatalyzedByIodine\step1\ts\ts.chk
                           ----------------------------
                           !    Initial Parameters    !
                           ! (Angstroms and Degrees)  !
 --------------------------                            --------------------------
 ! Name  Definition              Value          Derivative Info.                !
 --------------------------------------------------------------------------------
 ! R1    R(1,2)                  1.7566         D2E/DX2 =   -0.0555             !
 ! R2    R(1,3)                  2.6284         D2E/DX2 =   -0.1138             !
 ! R3    R(1,5)                  1.9481         D2E/DX2 =    0.1529             !
 ! R4    R(2,3)                  0.9811         D2E/DX2 =    0.4737             !
 ! R5    R(3,4)                  0.9746         D2E/DX2 =    0.5874             !
 ! A1    A(2,1,5)              179.6129         D2E/DX2 =    0.406              !
 ! A2    A(3,1,5)              168.2354         D2E/DX2 =   -0.3239             !
 ! A3    A(1,3,4)              115.2655         D2E/DX2 =    0.1126             !
 ! A4    A(2,3,4)              109.3934         D2E/DX2 =    0.0464             !
 ! D1    D(5,1,3,4)            -99.5227         D2E/DX2 =    0.0756             !
 --------------------------------------------------------------------------------
 Trust Radius=3.00D-02 FncErr=1.00D-07 GrdErr=1.00D-06
 Number of steps in this run=  20 maximum allowed number of steps= 100.
 Search for a saddle point of order  1.
 GradGradGradGradGradGradGradGradGradGradGradGradGradGradGradGradGradGrad

                          Input orientation:                          
 ---------------------------------------------------------------------
 Center     Atomic      Atomic             Coordinates (Angstroms)
 Number     Number       Type             X           Y           Z
 ---------------------------------------------------------------------
      1          8           0       -1.736420    0.714335    0.204383
      2          1           0       -0.049921    0.839188   -0.270903
      3          8           0        0.884250    0.716819    0.002610
      4          1           0        1.308457    1.588311    0.104402
      5         53           0       -3.608894    0.588003    0.726839
 ---------------------------------------------------------------------
                    Distance matrix (angstroms):
                    1          2          3          4          5
     1  O    0.000000
     2  H    1.756634   0.000000
     3  O    2.628426   0.981050   0.000000
     4  H    3.169401   1.596005   0.974583   0.000000
     5  I    1.948096   3.704709   4.552959   5.056519   0.000000
 Stoichiometry    H2IO2(2)
 Framework group  C1[X(H2IO2)]
 Deg. of freedom     9
 Full point group                 C1      NOp   1
 Largest Abelian subgroup         C1      NOp   1
 Largest concise Abelian subgroup C1      NOp   1
                         Standard orientation:                         
 ---------------------------------------------------------------------
 Center     Atomic      Atomic             Coordinates (Angstroms)
 Number     Number       Type             X           Y           Z
 ---------------------------------------------------------------------
      1          8           0       -1.084904   -0.037430    0.173009
      2          1           0       -2.832201   -0.066722    0.351497
      3          8           0       -3.697611   -0.083636   -0.110281
      4          1           0       -4.144013    0.774675    0.007361
      5         53           0        0.853516    0.004916   -0.016239
 ---------------------------------------------------------------------
 Rotational constants (GHZ):    327.7383979      1.4345974      1.4341444
 Standard basis: LANL2DZ (5D, 7F)
 There are    30 symmetry adapted basis functions of A   symmetry.
 Integral buffers will be    262144 words long.
 Raffenetti 2 integral format.
 Two-electron integral symmetry is turned on.
    30 basis functions,    70 primitive gaussians,    30 cartesian basis functions
    13 alpha electrons       12 beta electrons
       nuclear repulsion energy        49.0741714561 Hartrees.
 NAtoms=    5 NActive=    5 NUniq=    5 SFac= 7.50D-01 NAtFMM=   80 NAOKFM=F Big=F
 ------------------------------------------------------------------------------
 Polarizable Continuum Model (PCM)
 =================================
 Model                : PCM.
 Atomic radii         : SMD-Coulomb.
 Polarization charges : Total charges.
 Charge compensation  : None.
 Solution method      : Matrix inversion.
 Cavity type          : VdW (van der Waals Surface) (Alpha=1.000).
 Cavity algorithm     : GePol (No added spheres)
                        Default sphere list used, NSphG=    5.
                        Lebedev-Laikov grids with approx.  5.0 points / Ang**2.
                        Smoothing algorithm: Karplus/York (Gamma=1.0000).
                        Polarization charges: spherical gaussians, with
                                              point-specific exponents (IZeta= 3).
                        Self-potential: point-specific (ISelfS= 7).
                        Self-field    : sphere-specific E.n sum rule (ISelfD= 2).
 1st derivatives      : Analytical E(r).r(x)/FMM algorithm (CHGder, D1EAlg=3).
                        Cavity 1st derivative terms included.
 Solvent              : Water, Eps=  78.355300 Eps(inf)=   1.777849
 ------------------------------------------------------------------------------
 Spheres list:
 ISph  on   Nord    Re0     Alpha      Xe            Ye            Ze
    1   O      1    1.520   1.000     -1.084904     -0.037430      0.173009
    2   H      2    1.200   1.000     -2.832201     -0.066722      0.351497
    3   O      3    1.520   1.000     -3.697611     -0.083636     -0.110281
    4   H      4    1.200   1.000     -4.144013      0.774675      0.007361
    5   I      5    1.980   1.000      0.853516      0.004916     -0.016239
 ------------------------------------------------------------------------------
 ------------------------------------------------------------------------------
 Atomic radii for non-electrostatic terms: SMD-CDS.
 ------------------------------------------------------------------------------
 Nuclear repulsion after PCM non-electrostatic terms =       49.0757632917 Hartrees.
 One-electron integrals computed using PRISM.
   1 Symmetry operations used in ECPInt.
 ECPInt:  NShTT=     171 NPrTT=    1054 LenC2=     172 LenP2D=     895.
 LDataN:  DoStor=T MaxTD1= 4 Len=   56
 NBasis=    30 RedAO= T  NBF=    30
 NBsUse=    30 1.00D-06 NBFU=    30
 Defaulting to unpruned grid for atomic number  53.
 Initial guess read from the checkpoint file:  D:\Documents\rayGit\FQ\quimicaComp
 utacional\proyecto\decompositionHydrogenPeroxide\decompositionCatalyzedByIodine\
 step1\ts\ts.chk
 B after Tr=     0.000000    0.000000    0.000000
         Rot=    1.000000    0.000000    0.000000    0.000000 Ang=   0.00 deg.
 Initial guess orbital symmetries:
 Alpha Orbitals:
       Occupied  (A) (A) (A) (A) (A) (A) (A) (A) (A) (A) (A) (A)
                 (A)
       Virtual   (A) (A) (A) (A) (A) (A) (A) (A) (A) (A) (A) (A)
                 (A) (A) (A) (A) (A)
 Beta  Orbitals:
       Occupied  (A) (A) (A) (A) (A) (A) (A) (A) (A) (A) (A) (A)
       Virtual   (A) (A) (A) (A) (A) (A) (A) (A) (A) (A) (A) (A)
                 (A) (A) (A) (A) (A) (A)
 Initial guess <Sx>= 0.0000 <Sy>= 0.0000 <Sz>= 0.5000 <S**2>= 0.7553 S= 0.5026
 Requested convergence on RMS density matrix=1.00D-08 within 128 cycles.
 Requested convergence on MAX density matrix=1.00D-06.
 Requested convergence on             energy=1.00D-06.
 No special actions if energy rises.
 Keep R1 and R2 ints in memory in canonical form, NReq=3536471.
 Defaulting to unpruned grid for atomic number  53.
 Defaulting to unpruned grid for atomic number  53.
 Defaulting to unpruned grid for atomic number  53.
 Defaulting to unpruned grid for atomic number  53.
 Error on total polarization charges =  0.05972
 SCF Done:  E(UM062X) =  -162.836626559     A.U. after    1 cycles
             Convg  =    0.3908D-10             -V/T =  2.0582
 <Sx>= 0.0000 <Sy>= 0.0000 <Sz>= 0.5000 <S**2>= 0.7553 S= 0.5026
 <L.S>= 0.000000000000E+00
 SMD-CDS (non-electrostatic) energy             (kcal/mol) =       1.00
 (included in total energy above)
 Annihilation of the first spin contaminant:
 S**2 before annihilation     0.7553,   after     0.7500

 **********************************************************************

            Population analysis using the SCF density.

 **********************************************************************

 Orbital symmetries:
 Alpha Orbitals:
       Occupied  (A) (A) (A) (A) (A) (A) (A) (A) (A) (A) (A) (A)
                 (A)
       Virtual   (A) (A) (A) (A) (A) (A) (A) (A) (A) (A) (A) (A)
                 (A) (A) (A) (A) (A)
 Beta  Orbitals:
       Occupied  (A) (A) (A) (A) (A) (A) (A) (A) (A) (A) (A) (A)
       Virtual   (A) (A) (A) (A) (A) (A) (A) (A) (A) (A) (A) (A)
                 (A) (A) (A) (A) (A) (A)
 The electronic state is 2-A.
 Alpha  occ. eigenvalues --  -19.69460 -19.61715  -1.12271  -1.10584  -0.75277
 Alpha  occ. eigenvalues --   -0.60049  -0.48675  -0.47488  -0.45137  -0.43502
 Alpha  occ. eigenvalues --   -0.38444  -0.32998  -0.31332
 Alpha virt. eigenvalues --   -0.04599   0.17055   0.29084   0.41270   0.41300
 Alpha virt. eigenvalues --    0.41580   0.63256   0.64764   0.72315   0.73547
 Alpha virt. eigenvalues --    0.80459   0.97483   1.04662   1.11906   1.29286
 Alpha virt. eigenvalues --    1.67634   9.09721
  Beta  occ. eigenvalues --  -19.68262 -19.61707  -1.11753  -1.05984  -0.73154
  Beta  occ. eigenvalues --   -0.59902  -0.45929  -0.43013  -0.42496  -0.38531
  Beta  occ. eigenvalues --   -0.36160  -0.30404
  Beta virt. eigenvalues --   -0.12301  -0.03389   0.17148   0.29280   0.41406
  Beta virt. eigenvalues --    0.41486   0.41756   0.65452   0.66043   0.72479
  Beta virt. eigenvalues --    0.76539   0.81030   0.97662   1.04891   1.12525
  Beta virt. eigenvalues --    1.31913   1.67922   9.09559
          Condensed to atoms (all electrons):
              1          2          3          4          5
     1  O    8.630842   0.019953  -0.020092   0.001218   0.062862
     2  H    0.019953   0.284980   0.280991  -0.026569   0.000160
     3  O   -0.020092   0.280991   8.341619   0.285418   0.001173
     4  H    0.001218  -0.026569   0.285418   0.311987  -0.000044
     5  I    0.062862   0.000160   0.001173  -0.000044   6.220429
 Mulliken atomic charges:
              1
     1  O   -0.694784
     2  H    0.440485
     3  O   -0.889109
     4  H    0.427989
     5  I    0.715419
 Sum of Mulliken atomic charges =   0.00000
 Mulliken charges with hydrogens summed into heavy atoms:
              1
     1  O   -0.694784
     3  O   -0.020634
     5  I    0.715419
 Sum of Mulliken charges with hydrogens summed into heavy atoms =   0.00000
          Atomic-Atomic Spin Densities.
              1          2          3          4          5
     1  O    0.786890  -0.005101   0.000068   0.000061  -0.098454
     2  H   -0.005101  -0.000875   0.001653  -0.000121   0.000123
     3  O    0.000068   0.001653   0.001268   0.000064  -0.000052
     4  H    0.000061  -0.000121   0.000064  -0.000159   0.000001
     5  I   -0.098454   0.000123  -0.000052   0.000001   0.416390
 Mulliken atomic spin densities:
              1
     1  O    0.683464
     2  H   -0.004320
     3  O    0.003001
     4  H   -0.000155
     5  I    0.318009
 Sum of Mulliken atomic spin densities =   1.00000
 Electronic spatial extent (au):  <R**2>=            611.5115
 Charge=              0.0000 electrons
 Dipole moment (field-independent basis, Debye):
    X=              6.4721    Y=              2.4056    Z=              1.0469  Tot=              6.9836
 Quadrupole moment (field-independent basis, Debye-Ang):
   XX=            -38.0761   YY=            -31.5879   ZZ=            -31.2906
   XY=             -9.7897   XZ=             -4.4527   YZ=             -0.6154
 Traceless Quadrupole moment (field-independent basis, Debye-Ang):
   XX=             -4.4246   YY=              2.0637   ZZ=              2.3609
   XY=             -9.7897   XZ=             -4.4527   YZ=             -0.6154
 Octapole moment (field-independent basis, Debye-Ang**2):
  XXX=             91.2831  YYY=              2.5608  ZZZ=              0.0287  XYY=             10.8720
  XXY=             41.4048  XXZ=             13.6371  XZZ=             17.5799  YZZ=              0.4952
  YYZ=             -0.0951  XYZ=              0.1268
 Hexadecapole moment (field-independent basis, Debye-Ang**3):
 XXXX=           -795.0205 YYYY=            -45.6646 ZZZZ=            -43.1914 XXXY=           -173.4964
 XXXZ=            -50.8678 YYYX=             -9.3148 YYYZ=             -0.6218 ZZZX=             -4.1606
 ZZZY=             -0.6947 XXYY=           -110.3940 XXZZ=           -132.6918 YYZZ=            -14.9786
 XXYZ=             -1.9466 YYXZ=             -1.1195 ZZXY=             -1.6675
 N-N= 4.907576329167D+01 E-N=-7.129534988242D+02  KE= 2.296882756914D+02
                          Isotropic Fermi Contact Couplings
        Atom                 a.u.       MegaHertz       Gauss      10(-4) cm-1
     1  O(17)              0.09615     -58.28479     -20.79746     -19.44171
     2  H(1)              -0.00008      -0.34370      -0.12264      -0.11464
     3  O(17)             -0.00036       0.21537       0.07685       0.07184
     4  H(1)              -0.00009      -0.41112      -0.14670      -0.13713
     5  I(127)             0.00000       0.00099       0.00035       0.00033
 --------------------------------------------------------
       Center         ----  Spin Dipole Couplings  ----
                      3XX-RR        3YY-RR        3ZZ-RR
 --------------------------------------------------------
     1   Atom       -1.185550     -1.073859      2.259410
     2   Atom        0.033407     -0.018788     -0.014619
     3   Atom        0.007195     -0.012249      0.005054
     4   Atom        0.005896     -0.002344     -0.003552
     5   Atom       -0.007891     -0.026892      0.034783
 --------------------------------------------------------
                        XY            XZ            YZ
 --------------------------------------------------------
     1   Atom       -0.110019      0.400614     -0.989392
     2   Atom        0.000762     -0.004581     -0.001098
     3   Atom        0.003454     -0.009631     -0.006711
     4   Atom       -0.002855      0.000143     -0.000040
     5   Atom       -0.001878      0.006354     -0.018385
 --------------------------------------------------------


 ---------------------------------------------------------------------------------
              Anisotropic Spin Dipole Couplings in Principal Axis System
 ---------------------------------------------------------------------------------

       Atom             a.u.   MegaHertz   Gauss  10(-4) cm-1        Axes

              Baa    -1.3454    97.353    34.738    32.473  0.0005  0.9644  0.2646
     1 O(17)  Bbb    -1.2314    89.105    31.795    29.722  0.9940  0.0285 -0.1060
              Bcc     2.5768  -186.458   -66.533   -62.196  0.1098 -0.2631  0.9585
 
              Baa    -0.0191   -10.171    -3.629    -3.393  0.0075  0.9689  0.2472
     2 H(1)   Bbb    -0.0148    -7.892    -2.816    -2.633  0.0956 -0.2468  0.9643
              Bcc     0.0339    18.063     6.445     6.025  0.9954  0.0164 -0.0944
 
              Baa    -0.0145     1.053     0.376     0.351 -0.0088  0.9474  0.3200
     3 O(17)  Bbb    -0.0030     0.214     0.076     0.071  0.7097 -0.2195  0.6694
              Bcc     0.0175    -1.267    -0.452    -0.422  0.7044  0.2330 -0.6705
 
              Baa    -0.0036    -1.896    -0.677    -0.633 -0.0179 -0.0095  0.9998
     4 H(1)   Bbb    -0.0032    -1.727    -0.616    -0.576  0.2982  0.9544  0.0144
              Bcc     0.0068     3.623     1.293     1.209  0.9543 -0.2984  0.0143
 
              Baa    -0.0320    -3.435    -1.226    -1.146  0.0053  0.9642  0.2651
     5 I(127) Bbb    -0.0088    -0.945    -0.337    -0.315  0.9908  0.0308 -0.1315
              Bcc     0.0407     4.380     1.563     1.461  0.1350 -0.2634  0.9552
 

 ---------------------------------------------------------------------------------

   1 Symmetry operations used in ECPInt.
 ECPInt:  NShTT=     171 NPrTT=    1054 LenC2=     172 LenP2D=     895.
 LDataN:  DoStor=T MaxTD1= 5 Len=  102
 D1PCM: PCM CHGder 1st derivatives, ID1Alg=3 FixD1E=F DoIter=F DoCFld=F I1PDM=0.
 Calling FoFJK, ICntrl=      2127 FMM=F ISym2X=0 I1Cent= 0 IOpClX= 1 NMat=1 NMatS=1 NMatT=0.
 Defaulting to unpruned grid for atomic number  53.
 Defaulting to unpruned grid for atomic number  53.
 Defaulting to unpruned grid for atomic number  53.
 Defaulting to unpruned grid for atomic number  53.
 ***** Axes restored to original set *****
 -------------------------------------------------------------------
 Center     Atomic                   Forces (Hartrees/Bohr)
 Number     Number              X              Y              Z
 -------------------------------------------------------------------
      1        8          -0.006162356    0.000088054   -0.001636541
      2        1          -0.000417491   -0.002431538    0.003736126
      3        8           0.004105234    0.002120826   -0.002869863
      4        1           0.001139672   -0.000168295    0.000227730
      5       53           0.001334940    0.000390953    0.000542548
 -------------------------------------------------------------------
 Cartesian Forces:  Max     0.006162356 RMS     0.002502016

 GradGradGradGradGradGradGradGradGradGradGradGradGradGradGradGradGradGrad
 Berny optimization.
 Internal  Forces:  Max     0.010877082 RMS     0.004612966
 Search for a saddle point.
 Step number   1 out of a maximum of   20
 All quantities printed in internal units (Hartrees-Bohrs-Radians)
 Swaping is turned off.
 Second derivative matrix not updated -- first step.
 The second derivative matrix:
                          R1        R2        R3        R4        R5
           R1          -0.05551
           R2           0.21117  -0.11384
           R3          -0.01277   0.02136   0.15285
           R4          -0.08586   0.10546  -0.00638   0.47368
           R5          -0.00200  -0.00152  -0.00077  -0.01498   0.58737
           A1          -0.46056   0.20313  -0.04914  -0.28518   0.01829
           A2          -0.44640   0.21503  -0.04787  -0.21446   0.00106
           A3          -0.12226  -0.02919  -0.01077  -0.09738   0.00625
           A4           0.15293  -0.08520   0.00147   0.11850   0.01152
           D1          -0.05749  -0.00647  -0.00878  -0.05945   0.00543
                          A1        A2        A3        A4        D1
           A1           0.40603
           A2          -0.25068  -0.32388
           A3           0.34524   0.08242   0.11265
           A4           0.11274   0.27217   0.05421   0.04637
           D1           0.19624   0.02398   0.07209  -0.01810   0.07558
     Eigenvalues ---   -0.22578  -0.00253   0.01841   0.07166   0.15242
     Eigenvalues ---    0.15563   0.27407   0.57882   0.635151000.00000
 Eigenvectors required to have negative eigenvalues:
                          A3        R2        R1        A4        A2
   1                    0.68443   0.49577  -0.35737  -0.26058  -0.23395
                          A1        D1        R4        R3        R5
   1                   -0.12413   0.10963   0.06479  -0.06159   0.00198
 RFO step:  Lambda0=2.797838235D-04 Lambda=-1.05533001D-02.
 Linear search not attempted -- option 19 set.
 Maximum step size (   0.030) exceeded in Quadratic search.
    -- Step size scaled by   0.030
 Iteration  1 RMS(Cart)=  0.01400900 RMS(Int)=  0.00317626
 Iteration  2 RMS(Cart)=  0.00329166 RMS(Int)=  0.00210163
 Iteration  3 RMS(Cart)=  0.00090442 RMS(Int)=  0.00203666
 Iteration  4 RMS(Cart)=  0.00064104 RMS(Int)=  0.00196239
 Iteration  5 RMS(Cart)=  0.00066125 RMS(Int)=  0.00204706
 Iteration  6 RMS(Cart)=  0.00159982 RMS(Int)=  0.00212998
 Iteration  7 RMS(Cart)=  0.00229746 RMS(Int)=  0.00223286
 Iteration  8 RMS(Cart)=  0.00302029 RMS(Int)=  0.00230633
 Iteration  9 RMS(Cart)=  0.00287432 RMS(Int)=  0.00231911
 Iteration 10 RMS(Cart)=  0.00260887 RMS(Int)=  0.00219456
 Iteration 11 RMS(Cart)=  0.00148023 RMS(Int)=  0.00212474
 Iteration 12 RMS(Cart)=  0.00101689 RMS(Int)=  0.00200195
 Iteration 13 RMS(Cart)=  0.00094616 RMS(Int)=  0.00205970
 Iteration 14 RMS(Cart)=  0.00141787 RMS(Int)=  0.00212730
 Iteration 15 RMS(Cart)=  0.00107441 RMS(Int)=  0.00206215
 Iteration 16 RMS(Cart)=  0.00075673 RMS(Int)=  0.00197189
 Iteration 17 RMS(Cart)=  0.00127597 RMS(Int)=  0.00214571
 Iteration 18 RMS(Cart)=  0.00246268 RMS(Int)=  0.00224980
 Iteration 19 RMS(Cart)=  0.00200204 RMS(Int)=  0.00220149
 Iteration 20 RMS(Cart)=  0.00149659 RMS(Int)=  0.00207169
 Iteration 21 RMS(Cart)=  0.00086144 RMS(Int)=  0.00203023
 Iteration 22 RMS(Cart)=  0.00066606 RMS(Int)=  0.00199324
 Iteration 23 RMS(Cart)=  0.00102856 RMS(Int)=  0.00208027
 Iteration 24 RMS(Cart)=  0.00165370 RMS(Int)=  0.00215330
 Iteration 25 RMS(Cart)=  0.00121674 RMS(Int)=  0.00208419
 Iteration 26 RMS(Cart)=  0.00084410 RMS(Int)=  0.00197838
 Iteration 27 RMS(Cart)=  0.00121224 RMS(Int)=  0.00212801
 Iteration 28 RMS(Cart)=  0.00216669 RMS(Int)=  0.00220890
 Iteration 29 RMS(Cart)=  0.00162083 RMS(Int)=  0.00214584
 Iteration 30 RMS(Cart)=  0.00113982 RMS(Int)=  0.00202274
 Iteration 31 RMS(Cart)=  0.00085252 RMS(Int)=  0.00203549
 Iteration 32 RMS(Cart)=  0.00103874 RMS(Int)=  0.00207722
 Iteration 33 RMS(Cart)=  0.00088787 RMS(Int)=  0.00203402
 Iteration 34 RMS(Cart)=  0.00068032 RMS(Int)=  0.00199171
 Iteration 35 RMS(Cart)=  0.00104382 RMS(Int)=  0.00208421
 Iteration 36 RMS(Cart)=  0.00169653 RMS(Int)=  0.00215792
 Iteration 37 RMS(Cart)=  0.00124518 RMS(Int)=  0.00208859
 Iteration 38 RMS(Cart)=  0.00086227 RMS(Int)=  0.00198058
 Iteration 39 RMS(Cart)=  0.00118110 RMS(Int)=  0.00211988
 Iteration 40 RMS(Cart)=  0.00207379 RMS(Int)=  0.00219835
 Iteration 41 RMS(Cart)=  0.00153387 RMS(Int)=  0.00213278
 Iteration 42 RMS(Cart)=  0.00106868 RMS(Int)=  0.00201181
 Iteration 43 RMS(Cart)=  0.00088985 RMS(Int)=  0.00204535
 Iteration 44 RMS(Cart)=  0.00121702 RMS(Int)=  0.00210241
 Iteration 45 RMS(Cart)=  0.00096658 RMS(Int)=  0.00204560
 Iteration 46 RMS(Cart)=  0.00069638 RMS(Int)=  0.00197528
 Iteration 47 RMS(Cart)=  0.00125267 RMS(Int)=  0.00213869
 Iteration 48 RMS(Cart)=  0.00230911 RMS(Int)=  0.00222653
 Iteration 49 RMS(Cart)=  0.00177680 RMS(Int)=  0.00216893
 Iteration 50 RMS(Cart)=  0.00127756 RMS(Int)=  0.00204279
 Iteration 51 RMS(Cart)=  0.00082974 RMS(Int)=  0.00202779
 Iteration 52 RMS(Cart)=  0.00080896 RMS(Int)=  0.00203666
 Iteration 53 RMS(Cart)=  0.00084304 RMS(Int)=  0.00203094
 Iteration 54 RMS(Cart)=  0.00088932 RMS(Int)=  0.00205105
 Iteration 55 RMS(Cart)=  0.00084440 RMS(Int)=  0.00202910
 Iteration 56 RMS(Cart)=  0.00076992 RMS(Int)=  0.00202561
 Iteration 57 RMS(Cart)=  0.00085637 RMS(Int)=  0.00203547
 Iteration 58 RMS(Cart)=  0.00101888 RMS(Int)=  0.00207322
 Iteration 59 RMS(Cart)=  0.00087825 RMS(Int)=  0.00203271
 Iteration 60 RMS(Cart)=  0.00068494 RMS(Int)=  0.00199573
 Iteration 61 RMS(Cart)=  0.00100422 RMS(Int)=  0.00207406
 Iteration 62 RMS(Cart)=  0.00158489 RMS(Int)=  0.00214583
 Iteration 63 RMS(Cart)=  0.00117273 RMS(Int)=  0.00207738
 Iteration 64 RMS(Cart)=  0.00081652 RMS(Int)=  0.00197548
 Iteration 65 RMS(Cart)=  0.00124931 RMS(Int)=  0.00213785
 Iteration 66 RMS(Cart)=  0.00229591 RMS(Int)=  0.00222483
 Iteration 67 RMS(Cart)=  0.00176128 RMS(Int)=  0.00216666
 Iteration 68 RMS(Cart)=  0.00126331 RMS(Int)=  0.00204079
 Iteration 69 RMS(Cart)=  0.00082999 RMS(Int)=  0.00202812
 Iteration 70 RMS(Cart)=  0.00082674 RMS(Int)=  0.00204037
 Iteration 71 RMS(Cart)=  0.00084160 RMS(Int)=  0.00203008
 Iteration 72 RMS(Cart)=  0.00085336 RMS(Int)=  0.00204410
 Iteration 73 RMS(Cart)=  0.00084124 RMS(Int)=  0.00202947
 Iteration 74 RMS(Cart)=  0.00082045 RMS(Int)=  0.00203732
 Iteration 75 RMS(Cart)=  0.00084240 RMS(Int)=  0.00203071
 Iteration 76 RMS(Cart)=  0.00088208 RMS(Int)=  0.00204972
 Iteration 77 RMS(Cart)=  0.00084349 RMS(Int)=  0.00202911
 Iteration 78 RMS(Cart)=  0.00077861 RMS(Int)=  0.00202776
 Iteration 79 RMS(Cart)=  0.00085249 RMS(Int)=  0.00203431
 Iteration 80 RMS(Cart)=  0.00099070 RMS(Int)=  0.00206870
 Iteration 81 RMS(Cart)=  0.00086877 RMS(Int)=  0.00203147
 Iteration 82 RMS(Cart)=  0.00069387 RMS(Int)=  0.00200083
 Iteration 83 RMS(Cart)=  0.00096248 RMS(Int)=  0.00206339
 Iteration 84 RMS(Cart)=  0.00145919 RMS(Int)=  0.00213167
 Iteration 85 RMS(Cart)=  0.00109614 RMS(Int)=  0.00206551
 Iteration 86 RMS(Cart)=  0.00076971 RMS(Int)=  0.00197226
 Iteration 87 RMS(Cart)=  0.00127501 RMS(Int)=  0.00214529
 Iteration 88 RMS(Cart)=  0.00244541 RMS(Int)=  0.00224684
 Iteration 89 RMS(Cart)=  0.00197220 RMS(Int)=  0.00219723
 Iteration 90 RMS(Cart)=  0.00146637 RMS(Int)=  0.00206789
 Iteration 91 RMS(Cart)=  0.00085402 RMS(Int)=  0.00202927
 Iteration 92 RMS(Cart)=  0.00067393 RMS(Int)=  0.00199776
 Iteration 93 RMS(Cart)=  0.00098702 RMS(Int)=  0.00206964
 Iteration 94 RMS(Cart)=  0.00153389 RMS(Int)=  0.00214014
 Iteration 95 RMS(Cart)=  0.00114091 RMS(Int)=  0.00207245
 Iteration 96 RMS(Cart)=  0.00079691 RMS(Int)=  0.00197384
 Iteration 97 RMS(Cart)=  0.00126562 RMS(Int)=  0.00214236
 Iteration 98 RMS(Cart)=  0.00237212 RMS(Int)=  0.00223538
 Iteration 99 RMS(Cart)=  0.00185995 RMS(Int)=  0.00218106
 Iteration100 RMS(Cart)=  0.00135589 RMS(Int)=  0.00205351
 New curvilinear step not converged.
 Iteration  1 RMS(Cart)=  0.01265414 RMS(Int)=  0.00253940
 Iteration  2 RMS(Cart)=  0.00270405 RMS(Int)=  0.00156697
 Iteration  3 RMS(Cart)=  0.00116630 RMS(Int)=  0.00165478
 Iteration  4 RMS(Cart)=  0.00177405 RMS(Int)=  0.00172190
 Iteration  5 RMS(Cart)=  0.00205601 RMS(Int)=  0.00174990
 Iteration  6 RMS(Cart)=  0.00193840 RMS(Int)=  0.00167178
 Iteration  7 RMS(Cart)=  0.00172537 RMS(Int)=  0.00170850
 Iteration  8 RMS(Cart)=  0.00163223 RMS(Int)=  0.00164201
 Iteration  9 RMS(Cart)=  0.00156656 RMS(Int)=  0.00169069
 Iteration 10 RMS(Cart)=  0.00156212 RMS(Int)=  0.00164081
 Iteration 11 RMS(Cart)=  0.00156103 RMS(Int)=  0.00169012
 Iteration 12 RMS(Cart)=  0.00156229 RMS(Int)=  0.00164118
 Iteration 13 RMS(Cart)=  0.00156286 RMS(Int)=  0.00169031
 Iteration 14 RMS(Cart)=  0.00156268 RMS(Int)=  0.00164113
 Iteration 15 RMS(Cart)=  0.00156259 RMS(Int)=  0.00169028
 Iteration 16 RMS(Cart)=  0.00156261 RMS(Int)=  0.00164113
 Iteration 17 RMS(Cart)=  0.00156262 RMS(Int)=  0.00169028
 Iteration 18 RMS(Cart)=  0.00156262 RMS(Int)=  0.00164113
 Iteration 19 RMS(Cart)=  0.00156262 RMS(Int)=  0.00169028
 Iteration 20 RMS(Cart)=  0.00156262 RMS(Int)=  0.00164113
 Iteration 21 RMS(Cart)=  0.00156262 RMS(Int)=  0.00169028
 Iteration 22 RMS(Cart)=  0.00156262 RMS(Int)=  0.00164113
 Iteration 23 RMS(Cart)=  0.00156262 RMS(Int)=  0.00169028
 Iteration 24 RMS(Cart)=  0.00156262 RMS(Int)=  0.00164113
 Iteration 25 RMS(Cart)=  0.00156262 RMS(Int)=  0.00169028
 Iteration 26 RMS(Cart)=  0.00156262 RMS(Int)=  0.00164113
 Iteration 27 RMS(Cart)=  0.00156262 RMS(Int)=  0.00169028
 Iteration 28 RMS(Cart)=  0.00156262 RMS(Int)=  0.00164113
 Iteration 29 RMS(Cart)=  0.00156262 RMS(Int)=  0.00169028
 Iteration 30 RMS(Cart)=  0.00156262 RMS(Int)=  0.00164113
 Iteration 31 RMS(Cart)=  0.00156262 RMS(Int)=  0.00169028
 Iteration 32 RMS(Cart)=  0.00156262 RMS(Int)=  0.00164113
 Iteration 33 RMS(Cart)=  0.00156262 RMS(Int)=  0.00169028
 Iteration 34 RMS(Cart)=  0.00156262 RMS(Int)=  0.00164113
 Iteration 35 RMS(Cart)=  0.00156262 RMS(Int)=  0.00169028
 Iteration 36 RMS(Cart)=  0.00156262 RMS(Int)=  0.00164113
 Iteration 37 RMS(Cart)=  0.00156262 RMS(Int)=  0.00169028
 Iteration 38 RMS(Cart)=  0.00156262 RMS(Int)=  0.00164113
 Iteration 39 RMS(Cart)=  0.00156262 RMS(Int)=  0.00169028
 Iteration 40 RMS(Cart)=  0.00156262 RMS(Int)=  0.00164113
 Iteration 41 RMS(Cart)=  0.00156262 RMS(Int)=  0.00169028
 Iteration 42 RMS(Cart)=  0.00156262 RMS(Int)=  0.00164113
 Iteration 43 RMS(Cart)=  0.00156262 RMS(Int)=  0.00169028
 Iteration 44 RMS(Cart)=  0.00156262 RMS(Int)=  0.00164113
 Iteration 45 RMS(Cart)=  0.00156262 RMS(Int)=  0.00169028
 Iteration 46 RMS(Cart)=  0.00156262 RMS(Int)=  0.00164113
 Iteration 47 RMS(Cart)=  0.00156262 RMS(Int)=  0.00169028
 Iteration 48 RMS(Cart)=  0.00156262 RMS(Int)=  0.00164113
 Iteration 49 RMS(Cart)=  0.00156262 RMS(Int)=  0.00169028
 Iteration 50 RMS(Cart)=  0.00156262 RMS(Int)=  0.00164113
 Iteration 51 RMS(Cart)=  0.00156262 RMS(Int)=  0.00169028
 Iteration 52 RMS(Cart)=  0.00156262 RMS(Int)=  0.00164113
 Iteration 53 RMS(Cart)=  0.00156262 RMS(Int)=  0.00169028
 Iteration 54 RMS(Cart)=  0.00156262 RMS(Int)=  0.00164113
 Iteration 55 RMS(Cart)=  0.00156262 RMS(Int)=  0.00169028
 Iteration 56 RMS(Cart)=  0.00156262 RMS(Int)=  0.00164113
 Iteration 57 RMS(Cart)=  0.00156262 RMS(Int)=  0.00169028
 Iteration 58 RMS(Cart)=  0.00156262 RMS(Int)=  0.00164113
 Iteration 59 RMS(Cart)=  0.00156262 RMS(Int)=  0.00169028
 Iteration 60 RMS(Cart)=  0.00156262 RMS(Int)=  0.00164113
 Iteration 61 RMS(Cart)=  0.00156262 RMS(Int)=  0.00169028
 Iteration 62 RMS(Cart)=  0.00156262 RMS(Int)=  0.00164113
 Iteration 63 RMS(Cart)=  0.00156262 RMS(Int)=  0.00169028
 Iteration 64 RMS(Cart)=  0.00156262 RMS(Int)=  0.00164113
 Iteration 65 RMS(Cart)=  0.00156262 RMS(Int)=  0.00169028
 Iteration 66 RMS(Cart)=  0.00156262 RMS(Int)=  0.00164113
 Iteration 67 RMS(Cart)=  0.00156262 RMS(Int)=  0.00169028
 Iteration 68 RMS(Cart)=  0.00156262 RMS(Int)=  0.00164113
 Iteration 69 RMS(Cart)=  0.00156262 RMS(Int)=  0.00169028
 Iteration 70 RMS(Cart)=  0.00156262 RMS(Int)=  0.00164113
 Iteration 71 RMS(Cart)=  0.00156262 RMS(Int)=  0.00169028
 Iteration 72 RMS(Cart)=  0.00156262 RMS(Int)=  0.00164113
 Iteration 73 RMS(Cart)=  0.00156262 RMS(Int)=  0.00169028
 Iteration 74 RMS(Cart)=  0.00156262 RMS(Int)=  0.00164113
 Iteration 75 RMS(Cart)=  0.00156262 RMS(Int)=  0.00169028
 Iteration 76 RMS(Cart)=  0.00156262 RMS(Int)=  0.00164113
 Iteration 77 RMS(Cart)=  0.00156262 RMS(Int)=  0.00169028
 Iteration 78 RMS(Cart)=  0.00156262 RMS(Int)=  0.00164113
 Iteration 79 RMS(Cart)=  0.00156262 RMS(Int)=  0.00169028
 Iteration 80 RMS(Cart)=  0.00156262 RMS(Int)=  0.00164113
 Iteration 81 RMS(Cart)=  0.00156262 RMS(Int)=  0.00169028
 Iteration 82 RMS(Cart)=  0.00156262 RMS(Int)=  0.00164113
 Iteration 83 RMS(Cart)=  0.00156262 RMS(Int)=  0.00169028
 Iteration 84 RMS(Cart)=  0.00156262 RMS(Int)=  0.00164113
 Iteration 85 RMS(Cart)=  0.00156262 RMS(Int)=  0.00169028
 Iteration 86 RMS(Cart)=  0.00156262 RMS(Int)=  0.00164113
 Iteration 87 RMS(Cart)=  0.00156262 RMS(Int)=  0.00169028
 Iteration 88 RMS(Cart)=  0.00156262 RMS(Int)=  0.00164113
 Iteration 89 RMS(Cart)=  0.00156262 RMS(Int)=  0.00169028
 Iteration 90 RMS(Cart)=  0.00156262 RMS(Int)=  0.00164113
 Iteration 91 RMS(Cart)=  0.00156262 RMS(Int)=  0.00169028
 Iteration 92 RMS(Cart)=  0.00156262 RMS(Int)=  0.00164113
 Iteration 93 RMS(Cart)=  0.00156262 RMS(Int)=  0.00169028
 Iteration 94 RMS(Cart)=  0.00156262 RMS(Int)=  0.00164113
 Iteration 95 RMS(Cart)=  0.00156262 RMS(Int)=  0.00169028
 Iteration 96 RMS(Cart)=  0.00156262 RMS(Int)=  0.00164113
 Iteration 97 RMS(Cart)=  0.00156262 RMS(Int)=  0.00169028
 Iteration 98 RMS(Cart)=  0.00156262 RMS(Int)=  0.00164113
 Iteration 99 RMS(Cart)=  0.00156262 RMS(Int)=  0.00169028
 Iteration100 RMS(Cart)=  0.00156262 RMS(Int)=  0.00164113
 New curvilinear step not converged.
 Iteration  1 RMS(Cart)=  0.01124813 RMS(Int)=  0.00191723
 Iteration  2 RMS(Cart)=  0.00212081 RMS(Int)=  0.00116819
 Iteration  3 RMS(Cart)=  0.00022671 RMS(Int)=  0.00117443
 Iteration  4 RMS(Cart)=  0.00054128 RMS(Int)=  0.00119499
 Iteration  5 RMS(Cart)=  0.00076319 RMS(Int)=  0.00122845
 Iteration  6 RMS(Cart)=  0.00108735 RMS(Int)=  0.00124899
 Iteration  7 RMS(Cart)=  0.00114312 RMS(Int)=  0.00127331
 Iteration  8 RMS(Cart)=  0.00113536 RMS(Int)=  0.00124753
 Iteration  9 RMS(Cart)=  0.00113178 RMS(Int)=  0.00127221
 Iteration 10 RMS(Cart)=  0.00112919 RMS(Int)=  0.00124700
 Iteration 11 RMS(Cart)=  0.00112803 RMS(Int)=  0.00127181
 Iteration 12 RMS(Cart)=  0.00112728 RMS(Int)=  0.00124685
 Iteration 13 RMS(Cart)=  0.00112695 RMS(Int)=  0.00127170
 Iteration 14 RMS(Cart)=  0.00112674 RMS(Int)=  0.00124681
 Iteration 15 RMS(Cart)=  0.00112665 RMS(Int)=  0.00127167
 Iteration 16 RMS(Cart)=  0.00112659 RMS(Int)=  0.00124680
 Iteration 17 RMS(Cart)=  0.00112656 RMS(Int)=  0.00127166
 Iteration 18 RMS(Cart)=  0.00112654 RMS(Int)=  0.00124679
 Iteration 19 RMS(Cart)=  0.00112654 RMS(Int)=  0.00127166
 Iteration 20 RMS(Cart)=  0.00112653 RMS(Int)=  0.00124679
 Iteration 21 RMS(Cart)=  0.00112653 RMS(Int)=  0.00127166
 Iteration 22 RMS(Cart)=  0.00112653 RMS(Int)=  0.00124679
 Iteration 23 RMS(Cart)=  0.00112653 RMS(Int)=  0.00127166
 Iteration 24 RMS(Cart)=  0.00112653 RMS(Int)=  0.00124679
 Iteration 25 RMS(Cart)=  0.00112653 RMS(Int)=  0.00127166
 Iteration 26 RMS(Cart)=  0.00112653 RMS(Int)=  0.00124679
 Iteration 27 RMS(Cart)=  0.00112653 RMS(Int)=  0.00127166
 Iteration 28 RMS(Cart)=  0.00112653 RMS(Int)=  0.00124679
 Iteration 29 RMS(Cart)=  0.00112653 RMS(Int)=  0.00127166
 Iteration 30 RMS(Cart)=  0.00112653 RMS(Int)=  0.00124679
 Iteration 31 RMS(Cart)=  0.00112653 RMS(Int)=  0.00127166
 Iteration 32 RMS(Cart)=  0.00112653 RMS(Int)=  0.00124679
 Iteration 33 RMS(Cart)=  0.00112653 RMS(Int)=  0.00127166
 Iteration 34 RMS(Cart)=  0.00112653 RMS(Int)=  0.00124679
 Iteration 35 RMS(Cart)=  0.00112653 RMS(Int)=  0.00127166
 Iteration 36 RMS(Cart)=  0.00112653 RMS(Int)=  0.00124679
 Iteration 37 RMS(Cart)=  0.00112653 RMS(Int)=  0.00127166
 Iteration 38 RMS(Cart)=  0.00112653 RMS(Int)=  0.00124679
 Iteration 39 RMS(Cart)=  0.00112653 RMS(Int)=  0.00127166
 Iteration 40 RMS(Cart)=  0.00112653 RMS(Int)=  0.00124679
 Iteration 41 RMS(Cart)=  0.00112653 RMS(Int)=  0.00127166
 Iteration 42 RMS(Cart)=  0.00112653 RMS(Int)=  0.00124679
 Iteration 43 RMS(Cart)=  0.00112653 RMS(Int)=  0.00127166
 Iteration 44 RMS(Cart)=  0.00112653 RMS(Int)=  0.00124679
 Iteration 45 RMS(Cart)=  0.00112653 RMS(Int)=  0.00127166
 Iteration 46 RMS(Cart)=  0.00112653 RMS(Int)=  0.00124679
 Iteration 47 RMS(Cart)=  0.00112653 RMS(Int)=  0.00127166
 Iteration 48 RMS(Cart)=  0.00112653 RMS(Int)=  0.00124679
 Iteration 49 RMS(Cart)=  0.00112653 RMS(Int)=  0.00127166
 Iteration 50 RMS(Cart)=  0.00112653 RMS(Int)=  0.00124679
 Iteration 51 RMS(Cart)=  0.00112653 RMS(Int)=  0.00127166
 Iteration 52 RMS(Cart)=  0.00112653 RMS(Int)=  0.00124679
 Iteration 53 RMS(Cart)=  0.00112653 RMS(Int)=  0.00127166
 Iteration 54 RMS(Cart)=  0.00112653 RMS(Int)=  0.00124679
 Iteration 55 RMS(Cart)=  0.00112653 RMS(Int)=  0.00127166
 Iteration 56 RMS(Cart)=  0.00112653 RMS(Int)=  0.00124679
 Iteration 57 RMS(Cart)=  0.00112653 RMS(Int)=  0.00127166
 Iteration 58 RMS(Cart)=  0.00112653 RMS(Int)=  0.00124679
 Iteration 59 RMS(Cart)=  0.00112653 RMS(Int)=  0.00127166
 Iteration 60 RMS(Cart)=  0.00112653 RMS(Int)=  0.00124679
 Iteration 61 RMS(Cart)=  0.00112653 RMS(Int)=  0.00127166
 Iteration 62 RMS(Cart)=  0.00112653 RMS(Int)=  0.00124679
 Iteration 63 RMS(Cart)=  0.00112653 RMS(Int)=  0.00127166
 Iteration 64 RMS(Cart)=  0.00112653 RMS(Int)=  0.00124679
 Iteration 65 RMS(Cart)=  0.00112653 RMS(Int)=  0.00127166
 Iteration 66 RMS(Cart)=  0.00112653 RMS(Int)=  0.00124679
 Iteration 67 RMS(Cart)=  0.00112653 RMS(Int)=  0.00127166
 Iteration 68 RMS(Cart)=  0.00112653 RMS(Int)=  0.00124679
 Iteration 69 RMS(Cart)=  0.00112653 RMS(Int)=  0.00127166
 Iteration 70 RMS(Cart)=  0.00112653 RMS(Int)=  0.00124679
 Iteration 71 RMS(Cart)=  0.00112653 RMS(Int)=  0.00127166
 Iteration 72 RMS(Cart)=  0.00112653 RMS(Int)=  0.00124679
 Iteration 73 RMS(Cart)=  0.00112653 RMS(Int)=  0.00127166
 Iteration 74 RMS(Cart)=  0.00112653 RMS(Int)=  0.00124679
 Iteration 75 RMS(Cart)=  0.00112653 RMS(Int)=  0.00127166
 Iteration 76 RMS(Cart)=  0.00112653 RMS(Int)=  0.00124679
 Iteration 77 RMS(Cart)=  0.00112653 RMS(Int)=  0.00127166
 Iteration 78 RMS(Cart)=  0.00112653 RMS(Int)=  0.00124679
 Iteration 79 RMS(Cart)=  0.00112653 RMS(Int)=  0.00127166
 Iteration 80 RMS(Cart)=  0.00112653 RMS(Int)=  0.00124679
 Iteration 81 RMS(Cart)=  0.00112653 RMS(Int)=  0.00127166
 Iteration 82 RMS(Cart)=  0.00112653 RMS(Int)=  0.00124679
 Iteration 83 RMS(Cart)=  0.00112653 RMS(Int)=  0.00127166
 Iteration 84 RMS(Cart)=  0.00112653 RMS(Int)=  0.00124679
 Iteration 85 RMS(Cart)=  0.00112653 RMS(Int)=  0.00127166
 Iteration 86 RMS(Cart)=  0.00112653 RMS(Int)=  0.00124679
 Iteration 87 RMS(Cart)=  0.00112653 RMS(Int)=  0.00127166
 Iteration 88 RMS(Cart)=  0.00112653 RMS(Int)=  0.00124679
 Iteration 89 RMS(Cart)=  0.00112653 RMS(Int)=  0.00127166
 Iteration 90 RMS(Cart)=  0.00112653 RMS(Int)=  0.00124679
 Iteration 91 RMS(Cart)=  0.00112653 RMS(Int)=  0.00127166
 Iteration 92 RMS(Cart)=  0.00112653 RMS(Int)=  0.00124679
 Iteration 93 RMS(Cart)=  0.00112653 RMS(Int)=  0.00127166
 Iteration 94 RMS(Cart)=  0.00112653 RMS(Int)=  0.00124679
 Iteration 95 RMS(Cart)=  0.00112653 RMS(Int)=  0.00127166
 Iteration 96 RMS(Cart)=  0.00112653 RMS(Int)=  0.00124679
 Iteration 97 RMS(Cart)=  0.00112653 RMS(Int)=  0.00127166
 Iteration 98 RMS(Cart)=  0.00112653 RMS(Int)=  0.00124679
 Iteration 99 RMS(Cart)=  0.00112653 RMS(Int)=  0.00127166
 Iteration100 RMS(Cart)=  0.00112653 RMS(Int)=  0.00124679
 New curvilinear step not converged.
 Iteration  1 RMS(Cart)=  0.00984211 RMS(Int)=  0.00134190
 Iteration  2 RMS(Cart)=  0.00157648 RMS(Int)=  0.00084180
 Iteration  3 RMS(Cart)=  0.00032033 RMS(Int)=  0.00084640
 Iteration  4 RMS(Cart)=  0.00037808 RMS(Int)=  0.00084702
 Iteration  5 RMS(Cart)=  0.00041215 RMS(Int)=  0.00085346
 Iteration  6 RMS(Cart)=  0.00045284 RMS(Int)=  0.00085155
 Iteration  7 RMS(Cart)=  0.00047217 RMS(Int)=  0.00085887
 Iteration  8 RMS(Cart)=  0.00049396 RMS(Int)=  0.00085422
 Iteration  9 RMS(Cart)=  0.00050288 RMS(Int)=  0.00086178
 Iteration 10 RMS(Cart)=  0.00051248 RMS(Int)=  0.00085545
 Iteration 11 RMS(Cart)=  0.00051617 RMS(Int)=  0.00086306
 Iteration 12 RMS(Cart)=  0.00052005 RMS(Int)=  0.00085596
 Iteration 13 RMS(Cart)=  0.00052150 RMS(Int)=  0.00086357
 Iteration 14 RMS(Cart)=  0.00052301 RMS(Int)=  0.00085615
 Iteration 15 RMS(Cart)=  0.00052357 RMS(Int)=  0.00086377
 Iteration 16 RMS(Cart)=  0.00052414 RMS(Int)=  0.00085623
 Iteration 17 RMS(Cart)=  0.00052436 RMS(Int)=  0.00086385
 Iteration 18 RMS(Cart)=  0.00052458 RMS(Int)=  0.00085626
 Iteration 19 RMS(Cart)=  0.00052466 RMS(Int)=  0.00086388
 Iteration 20 RMS(Cart)=  0.00052475 RMS(Int)=  0.00085627
 Iteration 21 RMS(Cart)=  0.00052478 RMS(Int)=  0.00086389
 Iteration 22 RMS(Cart)=  0.00052481 RMS(Int)=  0.00085628
 Iteration 23 RMS(Cart)=  0.00052482 RMS(Int)=  0.00086390
 Iteration 24 RMS(Cart)=  0.00052483 RMS(Int)=  0.00085628
 Iteration 25 RMS(Cart)=  0.00052484 RMS(Int)=  0.00086390
 Iteration 26 RMS(Cart)=  0.00052484 RMS(Int)=  0.00085628
 Iteration 27 RMS(Cart)=  0.00052484 RMS(Int)=  0.00086390
 Iteration 28 RMS(Cart)=  0.00052484 RMS(Int)=  0.00085628
 Iteration 29 RMS(Cart)=  0.00052485 RMS(Int)=  0.00086390
 Iteration 30 RMS(Cart)=  0.00052485 RMS(Int)=  0.00085628
 Iteration 31 RMS(Cart)=  0.00052485 RMS(Int)=  0.00086390
 Iteration 32 RMS(Cart)=  0.00052485 RMS(Int)=  0.00085628
 Iteration 33 RMS(Cart)=  0.00052485 RMS(Int)=  0.00086390
 Iteration 34 RMS(Cart)=  0.00052485 RMS(Int)=  0.00085628
 Iteration 35 RMS(Cart)=  0.00052485 RMS(Int)=  0.00086390
 Iteration 36 RMS(Cart)=  0.00052485 RMS(Int)=  0.00085628
 Iteration 37 RMS(Cart)=  0.00052485 RMS(Int)=  0.00086390
 Iteration 38 RMS(Cart)=  0.00052485 RMS(Int)=  0.00085628
 Iteration 39 RMS(Cart)=  0.00052485 RMS(Int)=  0.00086390
 Iteration 40 RMS(Cart)=  0.00052485 RMS(Int)=  0.00085628
 Iteration 41 RMS(Cart)=  0.00052485 RMS(Int)=  0.00086390
 Iteration 42 RMS(Cart)=  0.00052485 RMS(Int)=  0.00085628
 Iteration 43 RMS(Cart)=  0.00052485 RMS(Int)=  0.00086390
 Iteration 44 RMS(Cart)=  0.00052485 RMS(Int)=  0.00085628
 Iteration 45 RMS(Cart)=  0.00052485 RMS(Int)=  0.00086390
 Iteration 46 RMS(Cart)=  0.00052485 RMS(Int)=  0.00085628
 Iteration 47 RMS(Cart)=  0.00052485 RMS(Int)=  0.00086390
 Iteration 48 RMS(Cart)=  0.00052485 RMS(Int)=  0.00085628
 Iteration 49 RMS(Cart)=  0.00052485 RMS(Int)=  0.00086390
 Iteration 50 RMS(Cart)=  0.00052485 RMS(Int)=  0.00085628
 Iteration 51 RMS(Cart)=  0.00052485 RMS(Int)=  0.00086390
 Iteration 52 RMS(Cart)=  0.00052485 RMS(Int)=  0.00085628
 Iteration 53 RMS(Cart)=  0.00052485 RMS(Int)=  0.00086390
 Iteration 54 RMS(Cart)=  0.00052485 RMS(Int)=  0.00085628
 Iteration 55 RMS(Cart)=  0.00052485 RMS(Int)=  0.00086390
 Iteration 56 RMS(Cart)=  0.00052485 RMS(Int)=  0.00085628
 Iteration 57 RMS(Cart)=  0.00052485 RMS(Int)=  0.00086390
 Iteration 58 RMS(Cart)=  0.00052485 RMS(Int)=  0.00085628
 Iteration 59 RMS(Cart)=  0.00052485 RMS(Int)=  0.00086390
 Iteration 60 RMS(Cart)=  0.00052485 RMS(Int)=  0.00085628
 Iteration 61 RMS(Cart)=  0.00052485 RMS(Int)=  0.00086390
 Iteration 62 RMS(Cart)=  0.00052485 RMS(Int)=  0.00085628
 Iteration 63 RMS(Cart)=  0.00052485 RMS(Int)=  0.00086390
 Iteration 64 RMS(Cart)=  0.00052485 RMS(Int)=  0.00085628
 Iteration 65 RMS(Cart)=  0.00052485 RMS(Int)=  0.00086390
 Iteration 66 RMS(Cart)=  0.00052485 RMS(Int)=  0.00085628
 Iteration 67 RMS(Cart)=  0.00052485 RMS(Int)=  0.00086390
 Iteration 68 RMS(Cart)=  0.00052485 RMS(Int)=  0.00085628
 Iteration 69 RMS(Cart)=  0.00052485 RMS(Int)=  0.00086390
 Iteration 70 RMS(Cart)=  0.00052485 RMS(Int)=  0.00085628
 Iteration 71 RMS(Cart)=  0.00052485 RMS(Int)=  0.00086390
 Iteration 72 RMS(Cart)=  0.00052485 RMS(Int)=  0.00085628
 Iteration 73 RMS(Cart)=  0.00052485 RMS(Int)=  0.00086390
 Iteration 74 RMS(Cart)=  0.00052485 RMS(Int)=  0.00085628
 Iteration 75 RMS(Cart)=  0.00052485 RMS(Int)=  0.00086390
 Iteration 76 RMS(Cart)=  0.00052485 RMS(Int)=  0.00085628
 Iteration 77 RMS(Cart)=  0.00052485 RMS(Int)=  0.00086390
 Iteration 78 RMS(Cart)=  0.00052485 RMS(Int)=  0.00085628
 Iteration 79 RMS(Cart)=  0.00052485 RMS(Int)=  0.00086390
 Iteration 80 RMS(Cart)=  0.00052485 RMS(Int)=  0.00085628
 Iteration 81 RMS(Cart)=  0.00052485 RMS(Int)=  0.00086390
 Iteration 82 RMS(Cart)=  0.00052485 RMS(Int)=  0.00085628
 Iteration 83 RMS(Cart)=  0.00052485 RMS(Int)=  0.00086390
 Iteration 84 RMS(Cart)=  0.00052485 RMS(Int)=  0.00085628
 Iteration 85 RMS(Cart)=  0.00052485 RMS(Int)=  0.00086390
 Iteration 86 RMS(Cart)=  0.00052485 RMS(Int)=  0.00085628
 Iteration 87 RMS(Cart)=  0.00052485 RMS(Int)=  0.00086390
 Iteration 88 RMS(Cart)=  0.00052485 RMS(Int)=  0.00085628
 Iteration 89 RMS(Cart)=  0.00052485 RMS(Int)=  0.00086390
 Iteration 90 RMS(Cart)=  0.00052485 RMS(Int)=  0.00085628
 Iteration 91 RMS(Cart)=  0.00052485 RMS(Int)=  0.00086390
 Iteration 92 RMS(Cart)=  0.00052485 RMS(Int)=  0.00085628
 Iteration 93 RMS(Cart)=  0.00052485 RMS(Int)=  0.00086390
 Iteration 94 RMS(Cart)=  0.00052485 RMS(Int)=  0.00085628
 Iteration 95 RMS(Cart)=  0.00052485 RMS(Int)=  0.00086390
 Iteration 96 RMS(Cart)=  0.00052485 RMS(Int)=  0.00085628
 Iteration 97 RMS(Cart)=  0.00052485 RMS(Int)=  0.00086390
 Iteration 98 RMS(Cart)=  0.00052485 RMS(Int)=  0.00085628
 Iteration 99 RMS(Cart)=  0.00052485 RMS(Int)=  0.00086390
 Iteration100 RMS(Cart)=  0.00052485 RMS(Int)=  0.00085628
 New curvilinear step not converged.
 Iteration  1 RMS(Cart)=  0.00843609 RMS(Int)=  0.00084734
 Iteration  2 RMS(Cart)=  0.00108355 RMS(Int)=  0.00055813
 Iteration  3 RMS(Cart)=  0.00018650 RMS(Int)=  0.00055655
 Iteration  4 RMS(Cart)=  0.00014143 RMS(Int)=  0.00055486
 Iteration  5 RMS(Cart)=  0.00011055 RMS(Int)=  0.00055429
 Iteration  6 RMS(Cart)=  0.00008630 RMS(Int)=  0.00055377
 Iteration  7 RMS(Cart)=  0.00006843 RMS(Int)=  0.00055354
 Iteration  8 RMS(Cart)=  0.00005415 RMS(Int)=  0.00055336
 Iteration  9 RMS(Cart)=  0.00004321 RMS(Int)=  0.00055326
 Iteration 10 RMS(Cart)=  0.00003443 RMS(Int)=  0.00055319
 Iteration 11 RMS(Cart)=  0.00002757 RMS(Int)=  0.00055315
 Iteration 12 RMS(Cart)=  0.00002205 RMS(Int)=  0.00055313
 Iteration 13 RMS(Cart)=  0.00001768 RMS(Int)=  0.00055311
 Iteration 14 RMS(Cart)=  0.00001417 RMS(Int)=  0.00055310
 Iteration 15 RMS(Cart)=  0.00001138 RMS(Int)=  0.00055309
 Iteration 16 RMS(Cart)=  0.00000913 RMS(Int)=  0.00055309
 Iteration 17 RMS(Cart)=  0.00000734 RMS(Int)=  0.00055309
 Iteration 18 RMS(Cart)=  0.00000589 RMS(Int)=  0.00055308
 Iteration 19 RMS(Cart)=  0.00000474 RMS(Int)=  0.00055308
 Iteration 20 RMS(Cart)=  0.00000380 RMS(Int)=  0.00055308
 Iteration 21 RMS(Cart)=  0.00000306 RMS(Int)=  0.00055308
 Iteration 22 RMS(Cart)=  0.00000246 RMS(Int)=  0.00055308
 Iteration 23 RMS(Cart)=  0.00000198 RMS(Int)=  0.00055308
 Iteration 24 RMS(Cart)=  0.00000159 RMS(Int)=  0.00055308
 Iteration 25 RMS(Cart)=  0.00000128 RMS(Int)=  0.00055308
 Iteration 26 RMS(Cart)=  0.00000103 RMS(Int)=  0.00055308
 Iteration 27 RMS(Cart)=  0.00000083 RMS(Int)=  0.00055308
 Variable       Old X    -DE/DX   Delta X   Delta X   Delta X     New X
                                 (Linear)    (Quad)   (Total)
    R1        3.31956  -0.00643   0.00000  -0.00934  -0.00514   3.31442
    R2        4.96701   0.01088   0.00000   0.01883   0.01081   4.97782
    R3        3.68137  -0.00119   0.00000  -0.00087  -0.00052   3.68085
    R4        1.85392  -0.00591   0.00000  -0.00042   0.00023   1.85415
    R5        1.84169   0.00042   0.00000  -0.00002  -0.00001   1.84168
    A1        3.13484   0.00363   0.00000   0.01039   0.00508   3.13991
    A2        2.93626   0.00036   0.00000   0.00317   0.00249   2.93875
    A3        2.01176   0.00159   0.00000  -0.01637  -0.01037   2.00139
    A4        1.90927   0.00029   0.00000  -0.00154  -0.00033   1.90894
    D1       -1.73700   0.00084   0.00000  -0.00829  -0.00518  -1.74218
         Item               Value     Threshold  Converged?
 Maximum Force            0.010877     0.000450     NO 
 RMS     Force            0.004613     0.000300     NO 
 Maximum Displacement     0.015199     0.001800     NO 
 RMS     Displacement     0.008234     0.001200     NO 
 Predicted change in Energy=-1.504194D-04
 GradGradGradGradGradGradGradGradGradGradGradGradGradGradGradGradGradGrad

                          Input orientation:                          
 ---------------------------------------------------------------------
 Center     Atomic      Atomic             Coordinates (Angstroms)
 Number     Number       Type             X           Y           Z
 ---------------------------------------------------------------------
      1          8           0       -1.737041    0.716811    0.204276
      2          1           0       -0.050581    0.834485   -0.262861
      3          8           0        0.888769    0.716606   -0.005135
      4          1           0        1.305754    1.590485    0.105575
      5         53           0       -3.609428    0.588269    0.725475
 ---------------------------------------------------------------------
                    Distance matrix (angstroms):
                    1          2          3          4          5
     1  O    0.000000
     2  H    1.753913   0.000000
     3  O    2.634148   0.981171   0.000000
     4  H    3.167279   1.595910   0.974576   0.000000
     5  I    1.947820   3.701732   4.558952   5.054477   0.000000
 Stoichiometry    H2IO2(2)
 Framework group  C1[X(H2IO2)]
 Deg. of freedom     9
 Full point group                 C1      NOp   1
 Largest Abelian subgroup         C1      NOp   1
 Largest concise Abelian subgroup C1      NOp   1
                         Standard orientation:                         
 ---------------------------------------------------------------------
 Center     Atomic      Atomic             Coordinates (Angstroms)
 Number     Number       Type             X           Y           Z
 ---------------------------------------------------------------------
      1          8           0       -1.084227   -0.033325    0.171926
      2          1           0       -2.829803   -0.064879    0.339793
      3          8           0       -3.703023   -0.085930   -0.107131
      4          1           0       -4.140726    0.778506   -0.002420
      5         53           0        0.854123    0.004536   -0.016146
 ---------------------------------------------------------------------
 Rotational constants (GHZ):    331.6955759      1.4317112      1.4313741
 Standard basis: LANL2DZ (5D, 7F)
 There are    30 symmetry adapted basis functions of A   symmetry.
 Integral buffers will be    262144 words long.
 Raffenetti 2 integral format.
 Two-electron integral symmetry is turned on.
    30 basis functions,    70 primitive gaussians,    30 cartesian basis functions
    13 alpha electrons       12 beta electrons
       nuclear repulsion energy        49.0450358154 Hartrees.
 NAtoms=    5 NActive=    5 NUniq=    5 SFac= 7.50D-01 NAtFMM=   80 NAOKFM=F Big=F
 ------------------------------------------------------------------------------
 Polarizable Continuum Model (PCM)
 =================================
 Model                : PCM.
 Atomic radii         : SMD-Coulomb.
 Polarization charges : Total charges.
 Charge compensation  : None.
 Solution method      : Matrix inversion.
 Cavity type          : VdW (van der Waals Surface) (Alpha=1.000).
 Cavity algorithm     : GePol (No added spheres)
                        Default sphere list used, NSphG=    5.
                        Lebedev-Laikov grids with approx.  5.0 points / Ang**2.
                        Smoothing algorithm: Karplus/York (Gamma=1.0000).
                        Polarization charges: spherical gaussians, with
                                              point-specific exponents (IZeta= 3).
                        Self-potential: point-specific (ISelfS= 7).
                        Self-field    : sphere-specific E.n sum rule (ISelfD= 2).
 1st derivatives      : Analytical E(r).r(x)/FMM algorithm (CHGder, D1EAlg=3).
                        Cavity 1st derivative terms included.
 Solvent              : Water, Eps=  78.355300 Eps(inf)=   1.777849
 ------------------------------------------------------------------------------
 Spheres list:
 ISph  on   Nord    Re0     Alpha      Xe            Ye            Ze
    1   O      1    1.520   1.000     -1.084227     -0.033325      0.171926
    2   H      2    1.200   1.000     -2.829803     -0.064879      0.339793
    3   O      3    1.520   1.000     -3.703023     -0.085930     -0.107131
    4   H      4    1.200   1.000     -4.140726      0.778506     -0.002420
    5   I      5    1.980   1.000      0.854123      0.004536     -0.016146
 ------------------------------------------------------------------------------
 ------------------------------------------------------------------------------
 Atomic radii for non-electrostatic terms: SMD-CDS.
 ------------------------------------------------------------------------------
 Nuclear repulsion after PCM non-electrostatic terms =       49.0466193380 Hartrees.
 One-electron integrals computed using PRISM.
   1 Symmetry operations used in ECPInt.
 ECPInt:  NShTT=     171 NPrTT=    1054 LenC2=     172 LenP2D=     895.
 LDataN:  DoStor=T MaxTD1= 4 Len=   56
 NBasis=    30 RedAO= T  NBF=    30
 NBsUse=    30 1.00D-06 NBFU=    30
 Defaulting to unpruned grid for atomic number  53.
 Initial guess read from the read-write file.
 B after Tr=     0.000000    0.000000    0.000000
         Rot=    1.000000    0.000000    0.000000    0.000000 Ang=   0.00 deg.
 Initial guess orbital symmetries:
 Alpha Orbitals:
       Occupied  (A) (A) (A) (A) (A) (A) (A) (A) (A) (A) (A) (A)
                 (A)
       Virtual   (A) (A) (A) (A) (A) (A) (A) (A) (A) (A) (A) (A)
                 (A) (A) (A) (A) (A)
 Beta  Orbitals:
       Occupied  (A) (A) (A) (A) (A) (A) (A) (A) (A) (A) (A) (A)
       Virtual   (A) (A) (A) (A) (A) (A) (A) (A) (A) (A) (A) (A)
                 (A) (A) (A) (A) (A) (A)
 Initial guess <Sx>= 0.0000 <Sy>= 0.0000 <Sz>= 0.5000 <S**2>= 0.7553 S= 0.5026
 Requested convergence on RMS density matrix=1.00D-08 within 128 cycles.
 Requested convergence on MAX density matrix=1.00D-06.
 Requested convergence on             energy=1.00D-06.
 No special actions if energy rises.
 Keep R1 and R2 ints in memory in canonical form, NReq=3536471.
 Defaulting to unpruned grid for atomic number  53.
 Defaulting to unpruned grid for atomic number  53.
 Defaulting to unpruned grid for atomic number  53.
 Defaulting to unpruned grid for atomic number  53.
 Error on total polarization charges =  0.05974
 SCF Done:  E(UM062X) =  -162.836774683     A.U. after   36 cycles
             Convg  =    0.7918D-08             -V/T =  2.0582
 <Sx>= 0.0000 <Sy>= 0.0000 <Sz>= 0.5000 <S**2>= 0.7553 S= 0.5026
 <L.S>= 0.000000000000E+00
 SMD-CDS (non-electrostatic) energy             (kcal/mol) =       0.99
 (included in total energy above)
 Annihilation of the first spin contaminant:
 S**2 before annihilation     0.7553,   after     0.7500
   1 Symmetry operations used in ECPInt.
 ECPInt:  NShTT=     171 NPrTT=    1054 LenC2=     172 LenP2D=     895.
 LDataN:  DoStor=T MaxTD1= 5 Len=  102
 D1PCM: PCM CHGder 1st derivatives, ID1Alg=3 FixD1E=F DoIter=F DoCFld=F I1PDM=0.
 Calling FoFJK, ICntrl=      2127 FMM=F ISym2X=0 I1Cent= 0 IOpClX= 1 NMat=1 NMatS=1 NMatT=0.
 Defaulting to unpruned grid for atomic number  53.
 Defaulting to unpruned grid for atomic number  53.
 Defaulting to unpruned grid for atomic number  53.
 Defaulting to unpruned grid for atomic number  53.
 ***** Axes restored to original set *****
 -------------------------------------------------------------------
 Center     Atomic                   Forces (Hartrees/Bohr)
 Number     Number              X              Y              Z
 -------------------------------------------------------------------
      1        8          -0.005901110    0.000184759   -0.001573409
      2        1          -0.000470430   -0.002444069    0.003612003
      3        8           0.003884966    0.002114907   -0.002799250
      4        1           0.001163905   -0.000182970    0.000239340
      5       53           0.001322668    0.000327373    0.000521316
 -------------------------------------------------------------------
 Cartesian Forces:  Max     0.005901110 RMS     0.002415914

 GradGradGradGradGradGradGradGradGradGradGradGradGradGradGradGradGradGrad
 Berny optimization.
 Internal  Forces:  Max     0.009527268 RMS     0.004356171
 Search for a saddle point.
 Step number   2 out of a maximum of   20
 All quantities printed in internal units (Hartrees-Bohrs-Radians)
 Swaping is turned off.
 Update second derivatives using D2CorX and points    1    2
 The second derivative matrix:
                          R1        R2        R3        R4        R5
           R1          -0.00093
           R2           0.13202  -0.01889
           R3          -0.01019   0.01927   0.15284
           R4          -0.05150   0.03513  -0.00306   0.47416
           R5          -0.00234  -0.00077  -0.00081  -0.01492   0.58737
           A1          -0.60580   0.46460  -0.06023  -0.32412   0.01852
           A2          -0.43161   0.17065  -0.04527  -0.22883   0.00128
           A3          -0.13023   0.04811  -0.01660  -0.03448   0.00542
           A4           0.21106  -0.19990   0.00674   0.12371   0.01156
           D1          -0.05664   0.02243  -0.01124  -0.02780   0.00503
                          A1        A2        A3        A4        D1
           A1           0.66218
           A2          -0.23127  -0.34639
           A3           0.19788   0.15628  -0.10416
           A4           0.03596   0.25278   0.14649   0.06172
           D1           0.11674   0.05905  -0.02792   0.02897   0.02982
     Eigenvalues ---   -1.13782  -0.11819  -0.01662   0.03183   0.13697
     Eigenvalues ---    0.15304   0.44561   0.49636   0.591671000.00000
 Eigenvectors required to have negative eigenvalues:
                          A2        R1        A1        A4        R2
   1                    0.51777   0.49604   0.45379  -0.36749  -0.33197
                          R4        A3        R3        D1        R5
   1                    0.17040   0.05492   0.05125   0.00097  -0.00094
 RFO step:  Lambda0=9.328496709D-05 Lambda=-1.18229018D-01.
 Linear search not attempted -- option 19 set.
 Maximum step size (   0.030) exceeded in Quadratic search.
    -- Step size scaled by   0.064
 Iteration  1 RMS(Cart)=  0.01703862 RMS(Int)=  0.00078122
 Iteration  2 RMS(Cart)=  0.00092828 RMS(Int)=  0.00045910
 Iteration  3 RMS(Cart)=  0.00014749 RMS(Int)=  0.00045691
 Iteration  4 RMS(Cart)=  0.00006050 RMS(Int)=  0.00045652
 Iteration  5 RMS(Cart)=  0.00002676 RMS(Int)=  0.00045644
 Iteration  6 RMS(Cart)=  0.00001148 RMS(Int)=  0.00045643
 Iteration  7 RMS(Cart)=  0.00000499 RMS(Int)=  0.00045643
 Iteration  8 RMS(Cart)=  0.00000216 RMS(Int)=  0.00045643
 Iteration  9 RMS(Cart)=  0.00000094 RMS(Int)=  0.00045643
 Variable       Old X    -DE/DX   Delta X   Delta X   Delta X     New X
                                 (Linear)    (Quad)   (Total)
    R1        3.31442  -0.00528   0.00000   0.00024   0.00032   3.31474
    R2        4.97782   0.00953   0.00000   0.02441   0.02434   5.00216
    R3        3.68085  -0.00118   0.00000  -0.00039  -0.00039   3.68046
    R4        1.85415  -0.00491   0.00000  -0.00004  -0.00001   1.85413
    R5        1.84168   0.00042   0.00000   0.00029   0.00029   1.84197
    A1        3.13991  -0.00458   0.00000  -0.00239  -0.00349   3.13642
    A2        2.93875   0.00037   0.00000   0.01530   0.01506   2.95381
    A3        2.00139  -0.00217   0.00000  -0.00518  -0.00578   1.99561
    A4        1.90894   0.00439   0.00000  -0.00553  -0.00490   1.90404
    D1       -1.74218  -0.00056   0.00000  -0.00259  -0.00279  -1.74497
         Item               Value     Threshold  Converged?
 Maximum Force            0.009527     0.000450     NO 
 RMS     Force            0.004356     0.000300     NO 
 Maximum Displacement     0.035912     0.001800     NO 
 RMS     Displacement     0.017267     0.001200     NO 
 Predicted change in Energy=-2.612036D-04
 GradGradGradGradGradGradGradGradGradGradGradGradGradGradGradGradGradGrad

                          Input orientation:                          
 ---------------------------------------------------------------------
 Center     Atomic      Atomic             Coordinates (Angstroms)
 Number     Number       Type             X           Y           Z
 ---------------------------------------------------------------------
      1          8           0       -1.740571    0.714348    0.211363
      2          1           0       -0.051020    0.836829   -0.243857
      3          8           0        0.896406    0.716234   -0.019078
      4          1           0        1.309519    1.590920    0.100730
      5         53           0       -3.616862    0.588326    0.718173
 ---------------------------------------------------------------------
                    Distance matrix (angstroms):
                    1          2          3          4          5
     1  O    0.000000
     2  H    1.754083   0.000000
     3  O    2.647028   0.981166   0.000000
     4  H    3.175479   1.593255   0.974727   0.000000
     5  I    1.947615   3.701687   4.574876   5.065142   0.000000
 Stoichiometry    H2IO2(2)
 Framework group  C1[X(H2IO2)]
 Deg. of freedom     9
 Full point group                 C1      NOp   1
 Largest Abelian subgroup         C1      NOp   1
 Largest concise Abelian subgroup C1      NOp   1
                         Standard orientation:                         
 ---------------------------------------------------------------------
 Center     Atomic      Atomic             Coordinates (Angstroms)
 Number     Number       Type             X           Y           Z
 ---------------------------------------------------------------------
      1          8           0       -1.083224   -0.026249    0.160370
      2          1           0       -2.829934   -0.044407    0.320008
      3          8           0       -3.716931   -0.091061   -0.096821
      4          1           0       -4.149131    0.779657   -0.025096
      5         53           0        0.856232    0.003835   -0.015157
 ---------------------------------------------------------------------
 Rotational constants (GHZ):    356.2710840      1.4232945      1.4230514
 Standard basis: LANL2DZ (5D, 7F)
 There are    30 symmetry adapted basis functions of A   symmetry.
 Integral buffers will be    262144 words long.
 Raffenetti 2 integral format.
 Two-electron integral symmetry is turned on.
    30 basis functions,    70 primitive gaussians,    30 cartesian basis functions
    13 alpha electrons       12 beta electrons
       nuclear repulsion energy        48.9561392346 Hartrees.
 NAtoms=    5 NActive=    5 NUniq=    5 SFac= 7.50D-01 NAtFMM=   80 NAOKFM=F Big=F
 ------------------------------------------------------------------------------
 Polarizable Continuum Model (PCM)
 =================================
 Model                : PCM.
 Atomic radii         : SMD-Coulomb.
 Polarization charges : Total charges.
 Charge compensation  : None.
 Solution method      : Matrix inversion.
 Cavity type          : VdW (van der Waals Surface) (Alpha=1.000).
 Cavity algorithm     : GePol (No added spheres)
                        Default sphere list used, NSphG=    5.
                        Lebedev-Laikov grids with approx.  5.0 points / Ang**2.
                        Smoothing algorithm: Karplus/York (Gamma=1.0000).
                        Polarization charges: spherical gaussians, with
                                              point-specific exponents (IZeta= 3).
                        Self-potential: point-specific (ISelfS= 7).
                        Self-field    : sphere-specific E.n sum rule (ISelfD= 2).
 1st derivatives      : Analytical E(r).r(x)/FMM algorithm (CHGder, D1EAlg=3).
                        Cavity 1st derivative terms included.
 Solvent              : Water, Eps=  78.355300 Eps(inf)=   1.777849
 ------------------------------------------------------------------------------
 Spheres list:
 ISph  on   Nord    Re0     Alpha      Xe            Ye            Ze
    1   O      1    1.520   1.000     -1.083224     -0.026249      0.160370
    2   H      2    1.200   1.000     -2.829934     -0.044407      0.320008
    3   O      3    1.520   1.000     -3.716931     -0.091061     -0.096821
    4   H      4    1.200   1.000     -4.149131      0.779657     -0.025096
    5   I      5    1.980   1.000      0.856232      0.003835     -0.015157
 ------------------------------------------------------------------------------
 ------------------------------------------------------------------------------
 Atomic radii for non-electrostatic terms: SMD-CDS.
 ------------------------------------------------------------------------------
 Nuclear repulsion after PCM non-electrostatic terms =       48.9577119704 Hartrees.
 One-electron integrals computed using PRISM.
   1 Symmetry operations used in ECPInt.
 ECPInt:  NShTT=     171 NPrTT=    1054 LenC2=     172 LenP2D=     893.
 LDataN:  DoStor=T MaxTD1= 4 Len=   56
 NBasis=    30 RedAO= T  NBF=    30
 NBsUse=    30 1.00D-06 NBFU=    30
 Defaulting to unpruned grid for atomic number  53.
 Initial guess read from the read-write file.
 B after Tr=     0.000000    0.000000    0.000000
         Rot=    1.000000    0.000000    0.000000    0.000000 Ang=   0.00 deg.
 Initial guess orbital symmetries:
 Alpha Orbitals:
       Occupied  (A) (A) (A) (A) (A) (A) (A) (A) (A) (A) (A) (A)
                 (A)
       Virtual   (A) (A) (A) (A) (A) (A) (A) (A) (A) (A) (A) (A)
                 (A) (A) (A) (A) (A)
 Beta  Orbitals:
       Occupied  (A) (A) (A) (A) (A) (A) (A) (A) (A) (A) (A) (A)
       Virtual   (A) (A) (A) (A) (A) (A) (A) (A) (A) (A) (A) (A)
                 (A) (A) (A) (A) (A) (A)
 Initial guess <Sx>= 0.0000 <Sy>= 0.0000 <Sz>= 0.5000 <S**2>= 0.7553 S= 0.5026
 Harris functional with IExCor= 1009 diagonalized for initial guess.
 ExpMin= 1.05D-01 ExpMax= 7.82D+03 ExpMxC= 2.73D+02 IAcc=1 IRadAn=         1 AccDes= 0.00D+00
 HarFok:  IExCor= 1009 AccDes= 0.00D+00 IRadAn=         1 IDoV= 1
 ScaDFX=  1.000000  1.000000  1.000000  1.000000
 Defaulting to unpruned grid for atomic number  53.
 Defaulting to unpruned grid for atomic number  53.
 Defaulting to unpruned grid for atomic number  53.
 Defaulting to unpruned grid for atomic number  53.
 FoFCou: FMM=F IPFlag=           0 FMFlag=      100000 FMFlg1=           0
         NFxFlg=           0 DoJE=T BraDBF=F KetDBF=T FulRan=T
         Omega=  0.000000  0.000000  1.000000  0.000000  0.000000 ICntrl=     500 IOpCl=  0
         NMat0=    1 NMatS0=    1 NMatT0=    0 NMatD0=    1 NMtDS0=    0 NMtDT0=    0
         I1Cent=           4 NGrid=           0.
 Petite list used in FoFCou.
 Requested convergence on RMS density matrix=1.00D-08 within 128 cycles.
 Requested convergence on MAX density matrix=1.00D-06.
 Requested convergence on             energy=1.00D-06.
 No special actions if energy rises.
 Keep R1 and R2 ints in memory in canonical form, NReq=3536423.
 Defaulting to unpruned grid for atomic number  53.
 Defaulting to unpruned grid for atomic number  53.
 Defaulting to unpruned grid for atomic number  53.
 Defaulting to unpruned grid for atomic number  53.
 Error on total polarization charges =  0.05976
 SCF Done:  E(UM062X) =  -162.837001766     A.U. after   36 cycles
             Convg  =    0.7406D-08             -V/T =  2.0582
 <Sx>= 0.0000 <Sy>= 0.0000 <Sz>= 0.5000 <S**2>= 0.7552 S= 0.5026
 <L.S>= 0.000000000000E+00
 SMD-CDS (non-electrostatic) energy             (kcal/mol) =       0.99
 (included in total energy above)
 Annihilation of the first spin contaminant:
 S**2 before annihilation     0.7552,   after     0.7500
   1 Symmetry operations used in ECPInt.
 ECPInt:  NShTT=     171 NPrTT=    1054 LenC2=     172 LenP2D=     893.
 LDataN:  DoStor=T MaxTD1= 5 Len=  102
 D1PCM: PCM CHGder 1st derivatives, ID1Alg=3 FixD1E=F DoIter=F DoCFld=F I1PDM=0.
 Calling FoFJK, ICntrl=      2127 FMM=F ISym2X=0 I1Cent= 0 IOpClX= 1 NMat=1 NMatS=1 NMatT=0.
 Defaulting to unpruned grid for atomic number  53.
 Defaulting to unpruned grid for atomic number  53.
 Defaulting to unpruned grid for atomic number  53.
 Defaulting to unpruned grid for atomic number  53.
 ***** Axes restored to original set *****
 -------------------------------------------------------------------
 Center     Atomic                   Forces (Hartrees/Bohr)
 Number     Number              X              Y              Z
 -------------------------------------------------------------------
      1        8          -0.005361059    0.000272109   -0.001485561
      2        1          -0.000937568   -0.002888290    0.003293636
      3        8           0.003493681    0.002753249   -0.002619333
      4        1           0.001489117   -0.000403068    0.000302936
      5       53           0.001315828    0.000266000    0.000508322
 -------------------------------------------------------------------
 Cartesian Forces:  Max     0.005361059 RMS     0.002341944

 GradGradGradGradGradGradGradGradGradGradGradGradGradGradGradGradGradGrad
 Berny optimization.
 Internal  Forces:  Max     0.011210743 RMS     0.004855346
 Search for a saddle point.
 Step number   3 out of a maximum of   20
 All quantities printed in internal units (Hartrees-Bohrs-Radians)
 Swaping is turned off.
 Update second derivatives using D2CorX and points    1    2    3
 The second derivative matrix:
                          R1        R2        R3        R4        R5
           R1          -0.01644
           R2           0.23524  -0.21264
           R3          -0.01230   0.02100   0.15286
           R4          -0.05863   0.13089  -0.00525   0.47580
           R5          -0.00157  -0.00027  -0.00084  -0.01402   0.58740
           A1          -0.58919   0.22848  -0.05482  -0.32903   0.01627
           A2          -0.38934   0.23974  -0.04828  -0.17489   0.00316
           A3          -0.15653  -0.04579  -0.01343  -0.07347   0.00367
           A4           0.18608  -0.06840   0.00419   0.10906   0.01240
           D1          -0.07104  -0.00481  -0.01011  -0.04671   0.00434
                          A1        A2        A3        A4        D1
           A1           0.67671
           A2          -0.36602  -0.21244
           A3           0.29529   0.03629  -0.00043
           A4           0.07125   0.29642   0.12236   0.02423
           D1           0.16382   0.01059   0.01550   0.01414   0.04748
     Eigenvalues ---   -0.84171  -0.03582   0.03125   0.08281   0.15230
     Eigenvalues ---    0.17029   0.35590   0.51361   0.592441000.00000
 Eigenvectors required to have negative eigenvalues:
                          R2        A2        R1        A3        A1
   1                    0.55317  -0.50570  -0.50370   0.33438  -0.17578
                          R4        D1        R3        A4        R5
   1                   -0.17480   0.09115  -0.04751  -0.02717   0.00003
 RFO step:  Lambda0=1.693426583D-04 Lambda=-3.72419852D-02.
 Linear search not attempted -- option 19 set.
 Maximum step size (   0.030) exceeded in Quadratic search.
    -- Step size scaled by   0.147
 Iteration  1 RMS(Cart)=  0.01455114 RMS(Int)=  0.00241456
 Iteration  2 RMS(Cart)=  0.00235014 RMS(Int)=  0.00197065
 Iteration  3 RMS(Cart)=  0.00060945 RMS(Int)=  0.00182646
 Iteration  4 RMS(Cart)=  0.00054143 RMS(Int)=  0.00180451
 Iteration  5 RMS(Cart)=  0.00034764 RMS(Int)=  0.00185095
 Iteration  6 RMS(Cart)=  0.00090026 RMS(Int)=  0.00186336
 Iteration  7 RMS(Cart)=  0.00065052 RMS(Int)=  0.00186600
 Iteration  8 RMS(Cart)=  0.00076776 RMS(Int)=  0.00188071
 Iteration  9 RMS(Cart)=  0.00073801 RMS(Int)=  0.00188203
 Iteration 10 RMS(Cart)=  0.00082442 RMS(Int)=  0.00189968
 Iteration 11 RMS(Cart)=  0.00076203 RMS(Int)=  0.00188310
 Iteration 12 RMS(Cart)=  0.00084810 RMS(Int)=  0.00192496
 Iteration 13 RMS(Cart)=  0.00072672 RMS(Int)=  0.00187108
 Iteration 14 RMS(Cart)=  0.00088413 RMS(Int)=  0.00199284
 Iteration 15 RMS(Cart)=  0.00065984 RMS(Int)=  0.00185113
 Iteration 16 RMS(Cart)=  0.00082569 RMS(Int)=  0.00180442
 Iteration 17 RMS(Cart)=  0.00035173 RMS(Int)=  0.00184854
 Iteration 18 RMS(Cart)=  0.00060288 RMS(Int)=  0.00186436
 Iteration 19 RMS(Cart)=  0.00080681 RMS(Int)=  0.00186162
 Iteration 20 RMS(Cart)=  0.00072982 RMS(Int)=  0.00188691
 Iteration 21 RMS(Cart)=  0.00083984 RMS(Int)=  0.00188056
 Iteration 22 RMS(Cart)=  0.00080472 RMS(Int)=  0.00189774
 Iteration 23 RMS(Cart)=  0.00087494 RMS(Int)=  0.00189525
 Iteration 24 RMS(Cart)=  0.00082080 RMS(Int)=  0.00189758
 Iteration 25 RMS(Cart)=  0.00088302 RMS(Int)=  0.00191111
 Iteration 26 RMS(Cart)=  0.00079175 RMS(Int)=  0.00188788
 Iteration 27 RMS(Cart)=  0.00088035 RMS(Int)=  0.00194078
 Iteration 28 RMS(Cart)=  0.00071934 RMS(Int)=  0.00186819
 Iteration 29 RMS(Cart)=  0.00093098 RMS(Int)=  0.00204207
 Iteration 30 RMS(Cart)=  0.00068628 RMS(Int)=  0.00184740
 Iteration 31 RMS(Cart)=  0.00118461 RMS(Int)=  0.00193613
 Iteration 32 RMS(Cart)=  0.00121988 RMS(Int)=  0.00185311
 Iteration 33 RMS(Cart)=  0.00082012 RMS(Int)=  0.00191076
 Iteration 34 RMS(Cart)=  0.00093587 RMS(Int)=  0.00187153
 Iteration 35 RMS(Cart)=  0.00089356 RMS(Int)=  0.00192014
 Iteration 36 RMS(Cart)=  0.00095475 RMS(Int)=  0.00188248
 Iteration 37 RMS(Cart)=  0.00092407 RMS(Int)=  0.00192359
 Iteration 38 RMS(Cart)=  0.00096283 RMS(Int)=  0.00188999
 Iteration 39 RMS(Cart)=  0.00092575 RMS(Int)=  0.00192202
 Iteration 40 RMS(Cart)=  0.00095677 RMS(Int)=  0.00189654
 Iteration 41 RMS(Cart)=  0.00090655 RMS(Int)=  0.00191629
 Iteration 42 RMS(Cart)=  0.00093987 RMS(Int)=  0.00190445
 Iteration 43 RMS(Cart)=  0.00086838 RMS(Int)=  0.00190622
 Iteration 44 RMS(Cart)=  0.00091623 RMS(Int)=  0.00191779
 Iteration 45 RMS(Cart)=  0.00080721 RMS(Int)=  0.00189033
 Iteration 46 RMS(Cart)=  0.00089954 RMS(Int)=  0.00195084
 Iteration 47 RMS(Cart)=  0.00071466 RMS(Int)=  0.00186667
 Iteration 48 RMS(Cart)=  0.00092843 RMS(Int)=  0.00204708
 Iteration 49 RMS(Cart)=  0.00069229 RMS(Int)=  0.00184083
 Iteration 50 RMS(Cart)=  0.00116754 RMS(Int)=  0.00195433
 Iteration 51 RMS(Cart)=  0.00128524 RMS(Int)=  0.00185513
 Iteration 52 RMS(Cart)=  0.00087652 RMS(Int)=  0.00192188
 Iteration 53 RMS(Cart)=  0.00097913 RMS(Int)=  0.00187132
 Iteration 54 RMS(Cart)=  0.00093470 RMS(Int)=  0.00192899
 Iteration 55 RMS(Cart)=  0.00098926 RMS(Int)=  0.00188084
 Iteration 56 RMS(Cart)=  0.00096098 RMS(Int)=  0.00193195
 Iteration 57 RMS(Cart)=  0.00099437 RMS(Int)=  0.00188703
 Iteration 58 RMS(Cart)=  0.00096442 RMS(Int)=  0.00193109
 Iteration 59 RMS(Cart)=  0.00098889 RMS(Int)=  0.00189185
 Iteration 60 RMS(Cart)=  0.00095191 RMS(Int)=  0.00192723
 Iteration 61 RMS(Cart)=  0.00097467 RMS(Int)=  0.00189666
 Iteration 62 RMS(Cart)=  0.00092637 RMS(Int)=  0.00192058
 Iteration 63 RMS(Cart)=  0.00095347 RMS(Int)=  0.00190300
 Iteration 64 RMS(Cart)=  0.00088715 RMS(Int)=  0.00191064
 Iteration 65 RMS(Cart)=  0.00092721 RMS(Int)=  0.00191373
 Iteration 66 RMS(Cart)=  0.00082954 RMS(Int)=  0.00189593
 Iteration 67 RMS(Cart)=  0.00090345 RMS(Int)=  0.00193822
 Iteration 68 RMS(Cart)=  0.00074376 RMS(Int)=  0.00187395
 Iteration 69 RMS(Cart)=  0.00093439 RMS(Int)=  0.00202740
 Iteration 70 RMS(Cart)=  0.00067776 RMS(Int)=  0.00185141
 Iteration 71 RMS(Cart)=  0.00109428 RMS(Int)=  0.00188154
 Iteration 72 RMS(Cart)=  0.00102486 RMS(Int)=  0.00185472
 Iteration 73 RMS(Cart)=  0.00069943 RMS(Int)=  0.00188274
 Iteration 74 RMS(Cart)=  0.00082995 RMS(Int)=  0.00187531
 Iteration 75 RMS(Cart)=  0.00079485 RMS(Int)=  0.00189709
 Iteration 76 RMS(Cart)=  0.00087193 RMS(Int)=  0.00189054
 Iteration 77 RMS(Cart)=  0.00082644 RMS(Int)=  0.00189997
 Iteration 78 RMS(Cart)=  0.00088647 RMS(Int)=  0.00190469
 Iteration 79 RMS(Cart)=  0.00081129 RMS(Int)=  0.00189344
 Iteration 80 RMS(Cart)=  0.00088284 RMS(Int)=  0.00192601
 Iteration 81 RMS(Cart)=  0.00075432 RMS(Int)=  0.00187738
 Iteration 82 RMS(Cart)=  0.00089852 RMS(Int)=  0.00198656
 Iteration 83 RMS(Cart)=  0.00066941 RMS(Int)=  0.00185456
 Iteration 84 RMS(Cart)=  0.00077567 RMS(Int)=  0.00181095
 Iteration 85 RMS(Cart)=  0.00056670 RMS(Int)=  0.00190094
 Iteration 86 RMS(Cart)=  0.00104429 RMS(Int)=  0.00185231
 Iteration 87 RMS(Cart)=  0.00076115 RMS(Int)=  0.00189830
 Iteration 88 RMS(Cart)=  0.00088812 RMS(Int)=  0.00187265
 Iteration 89 RMS(Cart)=  0.00084875 RMS(Int)=  0.00191004
[...]
                        Cavity 1st derivative terms included.
 Solvent              : Water, Eps=  78.355300 Eps(inf)=   1.777849
 ------------------------------------------------------------------------------
 Spheres list:
 ISph  on   Nord    Re0     Alpha      Xe            Ye            Ze
    1   O      1    1.520   1.000     -1.077433     -0.020161      0.054585
    2   H      2    1.200   1.000     -2.821134     -0.160870      0.002254
    3   O      3    1.520   1.000     -3.802035     -0.088070     -0.022090
    4   H      4    1.200   1.000     -4.058821      0.851923     -0.006520
    5   I      5    1.980   1.000      0.866334      0.003298     -0.004824
 ------------------------------------------------------------------------------
 ------------------------------------------------------------------------------
 Atomic radii for non-electrostatic terms: SMD-CDS.
 ------------------------------------------------------------------------------
 Nuclear repulsion after PCM non-electrostatic terms =       48.5106003185 Hartrees.
 One-electron integrals computed using PRISM.
   1 Symmetry operations used in ECPInt.
 ECPInt:  NShTT=     171 NPrTT=    1054 LenC2=     172 LenP2D=     889.
 LDataN:  DoStor=T MaxTD1= 4 Len=   56
 NBasis=    30 RedAO= T  NBF=    30
 NBsUse=    30 1.00D-06 NBFU=    30
 Defaulting to unpruned grid for atomic number  53.
 Initial guess read from the read-write file.
 B after Tr=     0.000000    0.000000    0.000000
         Rot=    1.000000    0.000000    0.000000    0.000000 Ang=   0.00 deg.
 Initial guess orbital symmetries:
 Alpha Orbitals:
       Occupied  (A) (A) (A) (A) (A) (A) (A) (A) (A) (A) (A) (A)
                 (A)
       Virtual   (A) (A) (A) (A) (A) (A) (A) (A) (A) (A) (A) (A)
                 (A) (A) (A) (A) (A)
 Beta  Orbitals:
       Occupied  (A) (A) (A) (A) (A) (A) (A) (A) (A) (A) (A) (A)
       Virtual   (A) (A) (A) (A) (A) (A) (A) (A) (A) (A) (A) (A)
                 (A) (A) (A) (A) (A) (A)
 Initial guess <Sx>= 0.0000 <Sy>= 0.0000 <Sz>= 0.5000 <S**2>= 0.7551 S= 0.5025
 Requested convergence on RMS density matrix=1.00D-08 within 128 cycles.
 Requested convergence on MAX density matrix=1.00D-06.
 Requested convergence on             energy=1.00D-06.
 No special actions if energy rises.
 Keep R1 and R2 ints in memory in canonical form, NReq=3548070.
 Defaulting to unpruned grid for atomic number  53.
 Defaulting to unpruned grid for atomic number  53.
 Defaulting to unpruned grid for atomic number  53.
 Defaulting to unpruned grid for atomic number  53.
 Error on total polarization charges =  0.05993
 SCF Done:  E(UM062X) =  -162.838546736     A.U. after   22 cycles
             Convg  =    0.1473D-08             -V/T =  2.0583
 <Sx>= 0.0000 <Sy>= 0.0000 <Sz>= 0.5000 <S**2>= 0.7551 S= 0.5025
 <L.S>= 0.000000000000E+00
 SMD-CDS (non-electrostatic) energy             (kcal/mol) =       0.96
 (included in total energy above)
 Annihilation of the first spin contaminant:
 S**2 before annihilation     0.7551,   after     0.7500
   1 Symmetry operations used in ECPInt.
 ECPInt:  NShTT=     171 NPrTT=    1054 LenC2=     172 LenP2D=     889.
 LDataN:  DoStor=T MaxTD1= 5 Len=  102
 D1PCM: PCM CHGder 1st derivatives, ID1Alg=3 FixD1E=F DoIter=F DoCFld=F I1PDM=0.
 Calling FoFJK, ICntrl=      2127 FMM=F ISym2X=0 I1Cent= 0 IOpClX= 1 NMat=1 NMatS=1 NMatT=0.
 Defaulting to unpruned grid for atomic number  53.
 Defaulting to unpruned grid for atomic number  53.
 Defaulting to unpruned grid for atomic number  53.
 Defaulting to unpruned grid for atomic number  53.
 ***** Axes restored to original set *****
 -------------------------------------------------------------------
 Center     Atomic                   Forces (Hartrees/Bohr)
 Number     Number              X              Y              Z
 -------------------------------------------------------------------
      1        8          -0.000601778    0.000259745   -0.000358225
      2        1          -0.000038406   -0.000315719   -0.000081734
      3        8           0.000137046    0.000261408    0.000069785
      4        1           0.000277256   -0.000075629   -0.000108017
      5       53           0.000225882   -0.000129806    0.000478191
 -------------------------------------------------------------------
 Cartesian Forces:  Max     0.000601778 RMS     0.000276712

 GradGradGradGradGradGradGradGradGradGradGradGradGradGradGradGradGradGrad
 Berny optimization.
 Internal  Forces:  Max     0.000661110 RMS     0.000326292
 Search for a saddle point.
 Step number  20 out of a maximum of   20
 All quantities printed in internal units (Hartrees-Bohrs-Radians)
 Swaping is turned off.
 Update second derivatives using D2CorX and points   10   11   12   13   14
                                                     15   16   17   18   19
                                                     20
 The second derivative matrix:
                          R1        R2        R3        R4        R5
           R1           0.24377
           R2          -0.01027  -0.10678
           R3           0.02124   0.01360   0.15734
           R4           0.11230   0.07075   0.01038   0.51612
           R5          -0.00729   0.00630  -0.00253  -0.01581   0.58808
           A1          -0.20717   0.27445  -0.02386  -0.17995   0.00966
           A2          -0.10338   0.04322  -0.01593  -0.06571  -0.00013
           A3           0.04752   0.01380   0.00401   0.00355  -0.00385
           A4          -0.02758  -0.26960  -0.00944   0.10158   0.02674
           D1           0.04645  -0.06416   0.00073   0.03957   0.00083
                          A1        A2        A3        A4        D1
           A1           0.13893
           A2          -0.18698   0.14685
           A3          -0.16526   0.02908   0.05711
           A4           0.23537   0.11073  -0.01665   0.24263
           D1          -0.03084   0.00434   0.02554  -0.00933   0.03576
     Eigenvalues ---   -0.16437   0.00433   0.01340   0.04100   0.15773
     Eigenvalues ---    0.32019   0.38341   0.48304   0.593001000.00000
 Eigenvectors required to have negative eigenvalues:
                          A1        A2        A4        R1        R2
   1                    0.63420   0.45256  -0.44655  -0.32501  -0.25102
                          R3        A3        R4        D1        R5
   1                    0.08980   0.07936  -0.07748   0.06728   0.00576
 RFO step:  Lambda0=5.092354422D-06 Lambda=-1.55184038D-05.
 Linear search not attempted -- option 19 set.
 Maximum step size (   0.030) exceeded in Quadratic search.
    -- Step size scaled by   0.622
 Iteration  1 RMS(Cart)=  0.01506424 RMS(Int)=  0.00030567
 Iteration  2 RMS(Cart)=  0.00084904 RMS(Int)=  0.00009122
 Iteration  3 RMS(Cart)=  0.00000270 RMS(Int)=  0.00009121
 Iteration  4 RMS(Cart)=  0.00000001 RMS(Int)=  0.00009121
 Variable       Old X    -DE/DX   Delta X   Delta X   Delta X     New X
                                 (Linear)    (Quad)   (Total)
    R1        3.30731   0.00012   0.00000  -0.01708  -0.01691   3.29039
    R2        5.15239   0.00027   0.00000  -0.01125  -0.01141   5.14098
    R3        3.67517  -0.00012   0.00000   0.00063   0.00063   3.67580
    R4        1.85930   0.00015   0.00000   0.00069   0.00085   1.86015
    R5        1.84165   0.00003   0.00000   0.00025   0.00025   1.84190
    A1        3.05027  -0.00066   0.00000  -0.00175  -0.00176   3.04851
    A2        3.08152  -0.00062   0.00000  -0.01303  -0.01303   3.06849
    A3        1.81196   0.00025   0.00000   0.01447   0.01451   1.82647
    A4        1.91098   0.00024   0.00000  -0.00352  -0.00356   1.90742
    D1       -1.80981   0.00004   0.00000  -0.00928  -0.00927  -1.81909
         Item               Value     Threshold  Converged?
 Maximum Force            0.000661     0.000450     NO 
 RMS     Force            0.000326     0.000300     NO 
 Maximum Displacement     0.029288     0.001800     NO 
 RMS     Displacement     0.015229     0.001200     NO 
 Predicted change in Energy=-5.473663D-06
 Optimization stopped.
    -- Number of steps exceeded,  NStep=  20
    -- Flag reset to prevent archiving.
                           ----------------------------
                           ! Non-Optimized Parameters !
                           ! (Angstroms and Degrees)  !
 --------------------------                            --------------------------
 ! Name  Definition              Value          Derivative Info.                !
 --------------------------------------------------------------------------------
 ! R1    R(1,2)                  1.7412         -DE/DX =    0.0001              !
 ! R2    R(1,3)                  2.7205         -DE/DX =    0.0003              !
 ! R3    R(1,5)                  1.9452         -DE/DX =   -0.0001              !
 ! R4    R(2,3)                  0.9844         -DE/DX =    0.0001              !
 ! R5    R(3,4)                  0.9747         -DE/DX =    0.0                 !
 ! A1    A(2,1,5)              174.6669         -DE/DX =   -0.0007              !
 ! A2    A(3,1,5)              175.8118         -DE/DX =   -0.0006              !
 ! A3    A(1,3,4)              104.6491         -DE/DX =    0.0002              !
 ! A4    A(2,3,4)              109.2869         -DE/DX =    0.0002              !
 ! D1    D(5,1,3,4)           -104.2261         -DE/DX =    0.0                 !
 --------------------------------------------------------------------------------
 GradGradGradGradGradGradGradGradGradGradGradGradGradGradGradGradGradGrad

                          Input orientation:                          
 ---------------------------------------------------------------------
 Center     Atomic      Atomic             Coordinates (Angstroms)
 Number     Number       Type             X           Y           Z
 ---------------------------------------------------------------------
      1          8           0       -1.735772    0.731922    0.251385
      2          1           0       -0.018443    0.668636   -0.079986
      3          8           0        0.951784    0.772569   -0.206154
      4          1           0        1.232648    1.641648    0.133822
      5         53           0       -3.632746    0.631882    0.668265
 ---------------------------------------------------------------------
                    Distance matrix (angstroms):
                    1          2          3          4          5
     1  O    0.000000
     2  H    1.750152   0.000000
     3  O    2.726527   0.983900   0.000000
     4  H    3.106918   1.599280   0.974560   0.000000
     5  I    1.944816   3.691127   4.669295   4.997731   0.000000
 Stoichiometry    H2IO2(2)
 Framework group  C1[X(H2IO2)]
 Deg. of freedom     9
 Full point group                 C1      NOp   1
 Largest Abelian subgroup         C1      NOp   1
 Largest concise Abelian subgroup C1      NOp   1
                         Standard orientation:                         
 ---------------------------------------------------------------------
 Center     Atomic      Atomic             Coordinates (Angstroms)
 Number     Number       Type             X           Y           Z
 ---------------------------------------------------------------------
      1          8           0       -1.077433   -0.020161    0.054585
      2          1           0       -2.821134   -0.160870    0.002254
      3          8           0       -3.802035   -0.088070   -0.022090
      4          1           0       -4.058821    0.851923   -0.006520
      5         53           0        0.866334    0.003298   -0.004824
 ---------------------------------------------------------------------
 Rotational constants (GHZ):    550.1714177      1.3813334      1.3783124

 **********************************************************************

            Population analysis using the SCF density.

 **********************************************************************

 Orbital symmetries:
 Alpha Orbitals:
       Occupied  (A) (A) (A) (A) (A) (A) (A) (A) (A) (A) (A) (A)
                 (A)
       Virtual   (A) (A) (A) (A) (A) (A) (A) (A) (A) (A) (A) (A)
                 (A) (A) (A) (A) (A)
 Beta  Orbitals:
       Occupied  (A) (A) (A) (A) (A) (A) (A) (A) (A) (A) (A) (A)
       Virtual   (A) (A) (A) (A) (A) (A) (A) (A) (A) (A) (A) (A)
                 (A) (A) (A) (A) (A) (A)
 The electronic state is 2-A.
 Alpha  occ. eigenvalues --  -19.69426 -19.61698  -1.12143  -1.10641  -0.75361
 Alpha  occ. eigenvalues --   -0.59938  -0.48644  -0.47953  -0.45131  -0.43184
 Alpha  occ. eigenvalues --   -0.38549  -0.33062  -0.31380
 Alpha virt. eigenvalues --   -0.04652   0.17082   0.30854   0.41220   0.41262
 Alpha virt. eigenvalues --    0.41530   0.63836   0.65130   0.72076   0.73452
 Alpha virt. eigenvalues --    0.78312   0.99487   1.05860   1.12270   1.29888
 Alpha virt. eigenvalues --    1.81285   9.09524
  Beta  occ. eigenvalues --  -19.68241 -19.61695  -1.11646  -1.06127  -0.73203
  Beta  occ. eigenvalues --   -0.59818  -0.46402  -0.42964  -0.42253  -0.38613
  Beta  occ. eigenvalues --   -0.36371  -0.30454
  Beta virt. eigenvalues --   -0.12423  -0.03473   0.17170   0.31065   0.41349
  Beta virt. eigenvalues --    0.41489   0.41686   0.65731   0.66813   0.72497
  Beta virt. eigenvalues --    0.76411   0.78495   0.99525   1.06189   1.13000
  Beta virt. eigenvalues --    1.32168   1.81756   9.09343
          Condensed to atoms (all electrons):
              1          2          3          4          5
     1  O    8.635244   0.026671  -0.017873   0.001606   0.059654
     2  H    0.026671   0.282710   0.284028  -0.030418   0.000003
     3  O   -0.017873   0.284028   8.337865   0.286870   0.000930
     4  H    0.001606  -0.030418   0.286870   0.316076  -0.000033
     5  I    0.059654   0.000003   0.000930  -0.000033   6.205227
 Mulliken atomic charges:
              1
     1  O   -0.705303
     2  H    0.437006
     3  O   -0.891821
     4  H    0.425899
     5  I    0.734219
 Sum of Mulliken atomic charges =   0.00000
 Mulliken charges with hydrogens summed into heavy atoms:
              1
     1  O   -0.705303
     3  O   -0.028916
     5  I    0.734219
 Sum of Mulliken charges with hydrogens summed into heavy atoms =   0.00000
          Atomic-Atomic Spin Densities.
              1          2          3          4          5
     1  O    0.776213  -0.005860   0.000756   0.000049  -0.099589
     2  H   -0.005860  -0.001567   0.002033  -0.000076   0.000131
     3  O    0.000756   0.002033  -0.001119   0.000027  -0.000058
     4  H    0.000049  -0.000076   0.000027  -0.000044   0.000004
     5  I   -0.099589   0.000131  -0.000058   0.000004   0.431679
 Mulliken atomic spin densities:
              1
     1  O    0.671570
     2  H   -0.005338
     3  O    0.001639
     4  H   -0.000039
     5  I    0.332167
 Sum of Mulliken atomic spin densities =   1.00000
 Electronic spatial extent (au):  <R**2>=            634.8510
 Charge=              0.0000 electrons
 Dipole moment (field-independent basis, Debye):
    X=              7.5253    Y=              2.3161    Z=             -0.0510  Tot=              7.8738
 Quadrupole moment (field-independent basis, Debye-Ang):
   XX=            -44.5774   YY=            -31.2140   ZZ=            -31.3882
   XY=             -9.7589   XZ=             -0.2926   YZ=             -0.3605
 Traceless Quadrupole moment (field-independent basis, Debye-Ang):
   XX=             -8.8509   YY=              4.5125   ZZ=              4.3384
   XY=             -9.7589   XZ=             -0.2926   YZ=             -0.3605
 Octapole moment (field-independent basis, Debye-Ang**2):
  XXX=            130.4948  YYY=              2.7099  ZZZ=             -0.1983  XYY=              9.7458
  XXY=             41.8757  XXZ=              0.9432  XZZ=             19.0339  YZZ=              0.5069
  YYZ=             -0.1099  XYZ=             -0.0238
 Hexadecapole moment (field-independent basis, Debye-Ang**3):
 XXXX=          -1016.4801 YYYY=            -45.4791 ZZZZ=            -41.3055 XXXY=           -176.9506
 XXXZ=             -5.9882 YYYX=            -10.4066 YYYZ=             -0.4028 ZZZX=             -0.6635
 ZZZY=             -0.4048 XXYY=           -110.4217 XXZZ=           -141.1670 YYZZ=            -14.6946
 XXYZ=             -0.9188 YYXZ=             -0.0850 ZZXY=             -1.8337
 N-N= 4.851060031852D+01 E-N=-7.111784136516D+02  KE= 2.296812484440D+02
                          Isotropic Fermi Contact Couplings
        Atom                 a.u.       MegaHertz       Gauss      10(-4) cm-1
     1  O(17)              0.09911     -60.08241     -21.43890     -20.04134
     2  H(1)              -0.00009      -0.39146      -0.13968      -0.13058
     3  O(17)             -0.00129       0.78353       0.27958       0.26136
     4  H(1)              -0.00005      -0.22625      -0.08073      -0.07547
     5  I(127)             0.00000       0.00105       0.00038       0.00035
 --------------------------------------------------------
       Center         ----  Spin Dipole Couplings  ----
                      3XX-RR        3YY-RR        3ZZ-RR
 --------------------------------------------------------
     1   Atom       -1.219616     -1.222990      2.442606
     2   Atom        0.033118     -0.018283     -0.014835
     3   Atom        0.004626     -0.008945      0.004319
     4   Atom        0.006026     -0.002538     -0.003489
     5   Atom       -0.009485     -0.030713      0.040198
 --------------------------------------------------------
                        XY            XZ            YZ
 --------------------------------------------------------
     1   Atom       -0.019631      0.111370     -0.616692
     2   Atom        0.004342      0.000949     -0.000573
     3   Atom        0.000769     -0.003041     -0.001834
     4   Atom       -0.002875      0.000062     -0.000041
     5   Atom       -0.000037      0.001539     -0.011933
 --------------------------------------------------------


 ---------------------------------------------------------------------------------
              Anisotropic Spin Dipole Couplings in Principal Axis System
 ---------------------------------------------------------------------------------

       Atom             a.u.   MegaHertz   Gauss  10(-4) cm-1        Axes

              Baa    -1.3240    95.802    34.185    31.956  0.0136  0.9868  0.1612
     1 O(17)  Bbb    -1.2230    88.495    31.577    29.519  0.9995 -0.0086 -0.0318
              Bcc     2.5470  -184.297   -65.762   -61.475  0.0300 -0.1615  0.9864
 
              Baa    -0.0188   -10.007    -3.571    -3.338 -0.0853  0.9827  0.1642
     2 H(1)   Bbb    -0.0147    -7.866    -2.807    -2.624 -0.0046 -0.1652  0.9863
              Bcc     0.0335    17.874     6.378     5.962  0.9963  0.0833  0.0186
 
              Baa    -0.0092     0.666     0.238     0.222 -0.0269  0.9914  0.1284
     3 O(17)  Bbb     0.0015    -0.107    -0.038    -0.036  0.7030 -0.0726  0.7075
              Bcc     0.0077    -0.558    -0.199    -0.186  0.7107  0.1093 -0.6949
 
              Baa    -0.0035    -1.865    -0.665    -0.622  0.0687  0.2482  0.9663
     4 H(1)   Bbb    -0.0034    -1.818    -0.649    -0.606  0.2832  0.9238 -0.2574
              Bcc     0.0069     3.683     1.314     1.228  0.9566 -0.2914  0.0068
 
              Baa    -0.0327    -3.512    -1.253    -1.171 -0.0092  0.9868  0.1618
     5 I(127) Bbb    -0.0095    -1.024    -0.365    -0.342  0.9995  0.0138 -0.0276
              Bcc     0.0422     4.536     1.618     1.513  0.0295 -0.1615  0.9864
 

 ---------------------------------------------------------------------------------



 THERE IS MUCH PLEASURE TO BE GAINED FROM USELESS KNOWLEDGE

                                       -- BERTRAND RUSSELL
 Error termination request processed by link 9999.
 Error termination via Lnk1e in C:\G09W\l9999.exe at Tue Feb 02 04:47:02 2021.
 Job cpu time:  0 days  0 hours  3 minutes 36.0 seconds.
 File lengths (MBytes):  RWF=     18 Int=      0 D2E=      0 Chk=      2 Scr=      1
