 Entering Link 1 = C:\G09W\l1.exe PID=      7296.
  
 Copyright (c) 1988,1990,1992,1993,1995,1998,2003,2009, Gaussian, Inc.
                  All Rights Reserved.
  
 This is part of the Gaussian(R) 09 program.  It is based on
 the Gaussian(R) 03 system (copyright 2003, Gaussian, Inc.),
 the Gaussian(R) 98 system (copyright 1998, Gaussian, Inc.),
 the Gaussian(R) 94 system (copyright 1995, Gaussian, Inc.),
 the Gaussian 92(TM) system (copyright 1992, Gaussian, Inc.),
 the Gaussian 90(TM) system (copyright 1990, Gaussian, Inc.),
 the Gaussian 88(TM) system (copyright 1988, Gaussian, Inc.),
 the Gaussian 86(TM) system (copyright 1986, Carnegie Mellon
 University), and the Gaussian 82(TM) system (copyright 1983,
 Carnegie Mellon University). Gaussian is a federally registered
 trademark of Gaussian, Inc.
  
 This software contains proprietary and confidential information,
 including trade secrets, belonging to Gaussian, Inc.
  
 This software is provided under written license and may be
 used, copied, transmitted, or stored only in accord with that
 written license.
  
 The following legend is applicable only to US Government
 contracts under FAR:
  
                    RESTRICTED RIGHTS LEGEND
  
 Use, reproduction and disclosure by the US Government is
 subject to restrictions as set forth in subparagraphs (a)
 and (c) of the Commercial Computer Software - Restricted
 Rights clause in FAR 52.227-19.
  
 Gaussian, Inc.
 340 Quinnipiac St., Bldg. 40, Wallingford CT 06492
  
  
 ---------------------------------------------------------------
 Warning -- This program may not be used in any manner that
 competes with the business of Gaussian, Inc. or will provide
 assistance to any competitor of Gaussian, Inc.  The licensee
 of this program is prohibited from giving any competitor of
 Gaussian, Inc. access to this program.  By using this program,
 the user acknowledges that Gaussian, Inc. is engaged in the
 business of creating and licensing software in the field of
 computational chemistry and represents and warrants to the
 licensee that it is not a competitor of Gaussian, Inc. and that
 it will not use this program in any manner prohibited above.
 ---------------------------------------------------------------
  

 Cite this work as:
 Gaussian 09, Revision A.02,
 M. J. Frisch, G. W. Trucks, H. B. Schlegel, G. E. Scuseria, 
 M. A. Robb, J. R. Cheeseman, G. Scalmani, V. Barone, B. Mennucci, 
 G. A. Petersson, H. Nakatsuji, M. Caricato, X. Li, H. P. Hratchian, 
 A. F. Izmaylov, J. Bloino, G. Zheng, J. L. Sonnenberg, M. Hada, 
 M. Ehara, K. Toyota, R. Fukuda, J. Hasegawa, M. Ishida, T. Nakajima, 
 Y. Honda, O. Kitao, H. Nakai, T. Vreven, J. A. Montgomery, Jr., 
 J. E. Peralta, F. Ogliaro, M. Bearpark, J. J. Heyd, E. Brothers, 
 K. N. Kudin, V. N. Staroverov, R. Kobayashi, J. Normand, 
 K. Raghavachari, A. Rendell, J. C. Burant, S. S. Iyengar, J. Tomasi, 
 M. Cossi, N. Rega, J. M. Millam, M. Klene, J. E. Knox, J. B. Cross, 
 V. Bakken, C. Adamo, J. Jaramillo, R. Gomperts, R. E. Stratmann, 
 O. Yazyev, A. J. Austin, R. Cammi, C. Pomelli, J. W. Ochterski, 
 R. L. Martin, K. Morokuma, V. G. Zakrzewski, G. A. Voth, 
 P. Salvador, J. J. Dannenberg, S. Dapprich, A. D. Daniels, 
 O. Farkas, J. B. Foresman, J. V. Ortiz, J. Cioslowski, 
 and D. J. Fox, Gaussian, Inc., Wallingford CT, 2009.
 
 ******************************************
 Gaussian 09:  IA32W-G09RevA.02 11-Jun-2009
                02-Feb-2021 
 ******************************************
 %chk=D:\Documents\rayGit\FQ\quimicaComputacional\proyecto\decompositionHydrogenP
 eroxide\decompositionCatalyzedByIodine\step1\ts\ts.chk
 %mem=1500MB
 %nprocshared=4
 Will use up to    4 processors via shared memory.
 ----------------------------------------------------------------------
 # opt=(readfc,ts,noeigen) geom=check guess=check freq=noraman lanl2dz 
 scrf=smd iop(1/8=3) m062x
 ----------------------------------------------------------------------
 1/5=1,8=3,10=3,11=1,14=-1,18=20,26=3,29=2,38=1/1,3;
 2/9=110,12=2,40=1/2;
 3/5=6,6=3,11=2,14=-4,16=1,25=1,30=1,70=32201,71=1,72=1,74=-55,116=-2/1,2,3;
 4/5=1/1;
 5/5=2,38=6/2;
 6/7=2,8=2,9=2,10=2,28=1/1;
 7//1,2,3,16;
 1/5=1,8=3,11=1,14=-1,18=20/3(2);
 2/9=110/2;
 99//99;
 2/9=110/2;
 3/5=6,6=3,11=2,14=-2,16=1,25=1,30=1,70=32205,71=1,74=-55/1,2,3;
 4/5=5,16=3/1;
 5/5=2,38=5/2;
 7//1,2,3,16;
 1/5=1,8=3,11=1,14=-1,18=20/3(-5);
 2/9=110/2;
 6/7=2,8=2,9=2,10=2,19=2,28=1/1;
 99/9=1/99;
 -------------------------------
 Hydrogen peroxide with iodine 6
 -------------------------------
 Redundant internal coordinates taken from checkpoint file:
 D:\Documents\rayGit\FQ\quimicaComputacional\proyecto\decompositionHydrogenPeroxide\decompositionCatalyzedByIodine\step1\ts\ts.chk
 Charge =  0 Multiplicity = 2
 O,0,-1.7357716362,0.7319221725,0.2513850212
 H,0,-0.0184425373,0.6686355144,-0.079986156
 O,0,0.9517838939,0.7725690021,-0.2061544505
 H,0,1.2326478787,1.6416483014,0.1338218588
 I,0,-3.6327456591,0.6318817396,0.6682649964
 Recover connectivity data from disk.

 GradGradGradGradGradGradGradGradGradGradGradGradGradGradGradGradGradGrad
 Berny optimization.
 Initialization pass.
 Force constant matrix read from checkpoint file:
 D:\Documents\rayGit\FQ\quimicaComputacional\proyecto\decompositionHydrogenPeroxi
 de\decompositionCatalyzedByIodine\step1\ts\ts.chk
                           ----------------------------
                           !    Initial Parameters    !
                           ! (Angstroms and Degrees)  !
 --------------------------                            --------------------------
 ! Name  Definition              Value          Derivative Info.                !
 --------------------------------------------------------------------------------
 ! R1    R(1,2)                  1.7502         D2E/DX2 =    0.2438             !
 ! R2    R(1,3)                  2.7265         D2E/DX2 =   -0.1068             !
 ! R3    R(1,5)                  1.9448         D2E/DX2 =    0.1573             !
 ! R4    R(2,3)                  0.9839         D2E/DX2 =    0.5161             !
 ! R5    R(3,4)                  0.9746         D2E/DX2 =    0.5881             !
 ! A1    A(2,1,5)              174.7677         D2E/DX2 =    0.1389             !
 ! A2    A(3,1,5)              176.5583         D2E/DX2 =    0.1468             !
 ! A3    A(1,3,4)              103.8175         D2E/DX2 =    0.0571             !
 ! A4    A(2,3,4)              109.4909         D2E/DX2 =    0.2426             !
 ! D1    D(5,1,3,4)           -103.6947         D2E/DX2 =    0.0358             !
 --------------------------------------------------------------------------------
 Trust Radius=3.00D-02 FncErr=1.00D-07 GrdErr=1.00D-06
 Number of steps in this run=  20 maximum allowed number of steps= 100.
 Search for a saddle point of order  1.
 GradGradGradGradGradGradGradGradGradGradGradGradGradGradGradGradGradGrad

                          Input orientation:                          
 ---------------------------------------------------------------------
 Center     Atomic      Atomic             Coordinates (Angstroms)
 Number     Number       Type             X           Y           Z
 ---------------------------------------------------------------------
      1          8           0       -1.735772    0.731922    0.251385
      2          1           0       -0.018443    0.668636   -0.079986
      3          8           0        0.951784    0.772569   -0.206154
      4          1           0        1.232648    1.641648    0.133822
      5         53           0       -3.632746    0.631882    0.668265
 ---------------------------------------------------------------------
                    Distance matrix (angstroms):
                    1          2          3          4          5
     1  O    0.000000
     2  H    1.750152   0.000000
     3  O    2.726527   0.983900   0.000000
     4  H    3.106918   1.599280   0.974560   0.000000
     5  I    1.944816   3.691127   4.669295   4.997731   0.000000
 Stoichiometry    H2IO2(2)
 Framework group  C1[X(H2IO2)]
 Deg. of freedom     9
 Full point group                 C1      NOp   1
 Largest Abelian subgroup         C1      NOp   1
 Largest concise Abelian subgroup C1      NOp   1
                         Standard orientation:                         
 ---------------------------------------------------------------------
 Center     Atomic      Atomic             Coordinates (Angstroms)
 Number     Number       Type             X           Y           Z
 ---------------------------------------------------------------------
      1          8           0       -1.077433   -0.020161    0.054585
      2          1           0       -2.821134   -0.160870    0.002254
      3          8           0       -3.802035   -0.088070   -0.022090
      4          1           0       -4.058821    0.851923   -0.006520
      5         53           0        0.866334    0.003298   -0.004824
 ---------------------------------------------------------------------
 Rotational constants (GHZ):    550.1714177      1.3813334      1.3783124
 Standard basis: LANL2DZ (5D, 7F)
 There are    30 symmetry adapted basis functions of A   symmetry.
 Integral buffers will be    262144 words long.
 Raffenetti 2 integral format.
 Two-electron integral symmetry is turned on.
    30 basis functions,    70 primitive gaussians,    30 cartesian basis functions
    13 alpha electrons       12 beta electrons
       nuclear repulsion energy        48.5090720959 Hartrees.
 NAtoms=    5 NActive=    5 NUniq=    5 SFac= 7.50D-01 NAtFMM=   80 NAOKFM=F Big=F
 ------------------------------------------------------------------------------
 Polarizable Continuum Model (PCM)
 =================================
 Model                : PCM.
 Atomic radii         : SMD-Coulomb.
 Polarization charges : Total charges.
 Charge compensation  : None.
 Solution method      : Matrix inversion.
 Cavity type          : VdW (van der Waals Surface) (Alpha=1.000).
 Cavity algorithm     : GePol (No added spheres)
                        Default sphere list used, NSphG=    5.
                        Lebedev-Laikov grids with approx.  5.0 points / Ang**2.
                        Smoothing algorithm: Karplus/York (Gamma=1.0000).
                        Polarization charges: spherical gaussians, with
                                              point-specific exponents (IZeta= 3).
                        Self-potential: point-specific (ISelfS= 7).
                        Self-field    : sphere-specific E.n sum rule (ISelfD= 2).
 1st derivatives      : Analytical E(r).r(x)/FMM algorithm (CHGder, D1EAlg=3).
                        Cavity 1st derivative terms included.
 Solvent              : Water, Eps=  78.355300 Eps(inf)=   1.777849
 ------------------------------------------------------------------------------
 Spheres list:
 ISph  on   Nord    Re0     Alpha      Xe            Ye            Ze
    1   O      1    1.520   1.000     -1.077433     -0.020161      0.054585
    2   H      2    1.200   1.000     -2.821134     -0.160870      0.002254
    3   O      3    1.520   1.000     -3.802035     -0.088070     -0.022090
    4   H      4    1.200   1.000     -4.058821      0.851923     -0.006520
    5   I      5    1.980   1.000      0.866334      0.003298     -0.004824
 ------------------------------------------------------------------------------
 ------------------------------------------------------------------------------
 Atomic radii for non-electrostatic terms: SMD-CDS.
 ------------------------------------------------------------------------------
 Nuclear repulsion after PCM non-electrostatic terms =       48.5106003185 Hartrees.
 One-electron integrals computed using PRISM.
   1 Symmetry operations used in ECPInt.
 ECPInt:  NShTT=     171 NPrTT=    1054 LenC2=     172 LenP2D=     889.
 LDataN:  DoStor=T MaxTD1= 4 Len=   56
 NBasis=    30 RedAO= T  NBF=    30
 NBsUse=    30 1.00D-06 NBFU=    30
 Defaulting to unpruned grid for atomic number  53.
 Initial guess read from the checkpoint file:  D:\Documents\rayGit\FQ\quimicaComp
 utacional\proyecto\decompositionHydrogenPeroxide\decompositionCatalyzedByIodine\
 step1\ts\ts.chk
 B after Tr=     0.000000    0.000000    0.000000
         Rot=    1.000000    0.000000    0.000000    0.000000 Ang=   0.00 deg.
 Initial guess orbital symmetries:
 Alpha Orbitals:
       Occupied  (A) (A) (A) (A) (A) (A) (A) (A) (A) (A) (A) (A)
                 (A)
       Virtual   (A) (A) (A) (A) (A) (A) (A) (A) (A) (A) (A) (A)
                 (A) (A) (A) (A) (A)
 Beta  Orbitals:
       Occupied  (A) (A) (A) (A) (A) (A) (A) (A) (A) (A) (A) (A)
       Virtual   (A) (A) (A) (A) (A) (A) (A) (A) (A) (A) (A) (A)
                 (A) (A) (A) (A) (A) (A)
 Initial guess <Sx>= 0.0000 <Sy>= 0.0000 <Sz>= 0.5000 <S**2>= 0.7551 S= 0.5025
 Requested convergence on RMS density matrix=1.00D-08 within 128 cycles.
 Requested convergence on MAX density matrix=1.00D-06.
 Requested convergence on             energy=1.00D-06.
 No special actions if energy rises.
 Keep R1 and R2 ints in memory in canonical form, NReq=3548070.
 Defaulting to unpruned grid for atomic number  53.
 Defaulting to unpruned grid for atomic number  53.
 Defaulting to unpruned grid for atomic number  53.
 Defaulting to unpruned grid for atomic number  53.
 Error on total polarization charges =  0.05993
 SCF Done:  E(UM062X) =  -162.838546736     A.U. after    1 cycles
             Convg  =    0.3243D-09             -V/T =  2.0583
 <Sx>= 0.0000 <Sy>= 0.0000 <Sz>= 0.5000 <S**2>= 0.7551 S= 0.5025
 <L.S>= 0.000000000000E+00
 SMD-CDS (non-electrostatic) energy             (kcal/mol) =       0.96
 (included in total energy above)
 Annihilation of the first spin contaminant:
 S**2 before annihilation     0.7551,   after     0.7500

 **********************************************************************

            Population analysis using the SCF density.

 **********************************************************************

 Orbital symmetries:
 Alpha Orbitals:
       Occupied  (A) (A) (A) (A) (A) (A) (A) (A) (A) (A) (A) (A)
                 (A)
       Virtual   (A) (A) (A) (A) (A) (A) (A) (A) (A) (A) (A) (A)
                 (A) (A) (A) (A) (A)
 Beta  Orbitals:
       Occupied  (A) (A) (A) (A) (A) (A) (A) (A) (A) (A) (A) (A)
       Virtual   (A) (A) (A) (A) (A) (A) (A) (A) (A) (A) (A) (A)
                 (A) (A) (A) (A) (A) (A)
 The electronic state is 2-A.
 Alpha  occ. eigenvalues --  -19.69426 -19.61698  -1.12143  -1.10641  -0.75361
 Alpha  occ. eigenvalues --   -0.59938  -0.48644  -0.47953  -0.45131  -0.43184
 Alpha  occ. eigenvalues --   -0.38549  -0.33062  -0.31380
 Alpha virt. eigenvalues --   -0.04652   0.17082   0.30854   0.41220   0.41262
 Alpha virt. eigenvalues --    0.41530   0.63836   0.65130   0.72076   0.73452
 Alpha virt. eigenvalues --    0.78312   0.99487   1.05860   1.12270   1.29888
 Alpha virt. eigenvalues --    1.81285   9.09524
  Beta  occ. eigenvalues --  -19.68241 -19.61695  -1.11646  -1.06127  -0.73203
  Beta  occ. eigenvalues --   -0.59818  -0.46402  -0.42964  -0.42253  -0.38613
  Beta  occ. eigenvalues --   -0.36371  -0.30454
  Beta virt. eigenvalues --   -0.12423  -0.03473   0.17170   0.31065   0.41349
  Beta virt. eigenvalues --    0.41489   0.41686   0.65731   0.66813   0.72497
  Beta virt. eigenvalues --    0.76411   0.78495   0.99525   1.06189   1.13000
  Beta virt. eigenvalues --    1.32168   1.81756   9.09343
          Condensed to atoms (all electrons):
              1          2          3          4          5
     1  O    8.635244   0.026671  -0.017873   0.001606   0.059654
     2  H    0.026671   0.282710   0.284028  -0.030418   0.000003
     3  O   -0.017873   0.284028   8.337865   0.286870   0.000930
     4  H    0.001606  -0.030418   0.286870   0.316076  -0.000033
     5  I    0.059654   0.000003   0.000930  -0.000033   6.205227
 Mulliken atomic charges:
              1
     1  O   -0.705303
     2  H    0.437006
     3  O   -0.891821
     4  H    0.425899
     5  I    0.734219
 Sum of Mulliken atomic charges =   0.00000
 Mulliken charges with hydrogens summed into heavy atoms:
              1
     1  O   -0.705303
     3  O   -0.028916
     5  I    0.734219
 Sum of Mulliken charges with hydrogens summed into heavy atoms =   0.00000
          Atomic-Atomic Spin Densities.
              1          2          3          4          5
     1  O    0.776213  -0.005860   0.000756   0.000049  -0.099589
     2  H   -0.005860  -0.001567   0.002033  -0.000076   0.000131
     3  O    0.000756   0.002033  -0.001119   0.000027  -0.000058
     4  H    0.000049  -0.000076   0.000027  -0.000044   0.000004
     5  I   -0.099589   0.000131  -0.000058   0.000004   0.431679
 Mulliken atomic spin densities:
              1
     1  O    0.671571
     2  H   -0.005338
     3  O    0.001639
     4  H   -0.000039
     5  I    0.332167
 Sum of Mulliken atomic spin densities =   1.00000
 Electronic spatial extent (au):  <R**2>=            634.8510
 Charge=              0.0000 electrons
 Dipole moment (field-independent basis, Debye):
    X=              7.5253    Y=              2.3161    Z=             -0.0510  Tot=              7.8738
 Quadrupole moment (field-independent basis, Debye-Ang):
   XX=            -44.5774   YY=            -31.2140   ZZ=            -31.3882
   XY=             -9.7589   XZ=             -0.2926   YZ=             -0.3605
 Traceless Quadrupole moment (field-independent basis, Debye-Ang):
   XX=             -8.8509   YY=              4.5125   ZZ=              4.3384
   XY=             -9.7589   XZ=             -0.2926   YZ=             -0.3605
 Octapole moment (field-independent basis, Debye-Ang**2):
  XXX=            130.4948  YYY=              2.7099  ZZZ=             -0.1983  XYY=              9.7458
  XXY=             41.8757  XXZ=              0.9432  XZZ=             19.0339  YZZ=              0.5069
  YYZ=             -0.1099  XYZ=             -0.0238
 Hexadecapole moment (field-independent basis, Debye-Ang**3):
 XXXX=          -1016.4801 YYYY=            -45.4791 ZZZZ=            -41.3055 XXXY=           -176.9506
 XXXZ=             -5.9882 YYYX=            -10.4066 YYYZ=             -0.4028 ZZZX=             -0.6635
 ZZZY=             -0.4048 XXYY=           -110.4217 XXZZ=           -141.1670 YYZZ=            -14.6946
 XXYZ=             -0.9188 YYXZ=             -0.0850 ZZXY=             -1.8337
 N-N= 4.851060031851D+01 E-N=-7.111784134647D+02  KE= 2.296812483820D+02
                          Isotropic Fermi Contact Couplings
        Atom                 a.u.       MegaHertz       Gauss      10(-4) cm-1
     1  O(17)              0.09911     -60.08241     -21.43890     -20.04133
     2  H(1)              -0.00009      -0.39146      -0.13968      -0.13058
     3  O(17)             -0.00129       0.78353       0.27958       0.26136
     4  H(1)              -0.00005      -0.22625      -0.08073      -0.07547
     5  I(127)             0.00000       0.00105       0.00038       0.00035
 --------------------------------------------------------
       Center         ----  Spin Dipole Couplings  ----
                      3XX-RR        3YY-RR        3ZZ-RR
 --------------------------------------------------------
     1   Atom       -1.219616     -1.222990      2.442606
     2   Atom        0.033118     -0.018283     -0.014835
     3   Atom        0.004626     -0.008945      0.004319
     4   Atom        0.006026     -0.002538     -0.003489
     5   Atom       -0.009485     -0.030713      0.040198
 --------------------------------------------------------
                        XY            XZ            YZ
 --------------------------------------------------------
     1   Atom       -0.019631      0.111370     -0.616692
     2   Atom        0.004342      0.000949     -0.000573
     3   Atom        0.000769     -0.003041     -0.001834
     4   Atom       -0.002875      0.000062     -0.000041
     5   Atom       -0.000037      0.001539     -0.011933
 --------------------------------------------------------


 ---------------------------------------------------------------------------------
              Anisotropic Spin Dipole Couplings in Principal Axis System
 ---------------------------------------------------------------------------------

       Atom             a.u.   MegaHertz   Gauss  10(-4) cm-1        Axes

              Baa    -1.3240    95.802    34.185    31.956  0.0136  0.9868  0.1612
     1 O(17)  Bbb    -1.2230    88.495    31.577    29.519  0.9995 -0.0086 -0.0318
              Bcc     2.5470  -184.297   -65.762   -61.475  0.0300 -0.1615  0.9864
 
              Baa    -0.0188   -10.007    -3.571    -3.338 -0.0853  0.9827  0.1642
     2 H(1)   Bbb    -0.0147    -7.866    -2.807    -2.624 -0.0046 -0.1652  0.9863
              Bcc     0.0335    17.874     6.378     5.962  0.9963  0.0833  0.0186
 
              Baa    -0.0092     0.666     0.238     0.222 -0.0269  0.9914  0.1284
     3 O(17)  Bbb     0.0015    -0.107    -0.038    -0.036  0.7030 -0.0726  0.7075
              Bcc     0.0077    -0.558    -0.199    -0.186  0.7107  0.1093 -0.6949
 
              Baa    -0.0035    -1.865    -0.665    -0.622  0.0687  0.2482  0.9663
     4 H(1)   Bbb    -0.0034    -1.818    -0.649    -0.606  0.2832  0.9238 -0.2574
              Bcc     0.0069     3.683     1.314     1.228  0.9566 -0.2914  0.0068
 
              Baa    -0.0327    -3.512    -1.253    -1.171 -0.0092  0.9868  0.1618
     5 I(127) Bbb    -0.0095    -1.024    -0.365    -0.342  0.9995  0.0138 -0.0276
              Bcc     0.0422     4.536     1.618     1.513  0.0295 -0.1615  0.9864
 

 ---------------------------------------------------------------------------------

   1 Symmetry operations used in ECPInt.
 ECPInt:  NShTT=     171 NPrTT=    1054 LenC2=     172 LenP2D=     889.
 LDataN:  DoStor=T MaxTD1= 5 Len=  102
 D1PCM: PCM CHGder 1st derivatives, ID1Alg=3 FixD1E=F DoIter=F DoCFld=F I1PDM=0.
 Calling FoFJK, ICntrl=      2127 FMM=F ISym2X=0 I1Cent= 0 IOpClX= 1 NMat=1 NMatS=1 NMatT=0.
 Defaulting to unpruned grid for atomic number  53.
 Defaulting to unpruned grid for atomic number  53.
 Defaulting to unpruned grid for atomic number  53.
 Defaulting to unpruned grid for atomic number  53.
 ***** Axes restored to original set *****
 -------------------------------------------------------------------
 Center     Atomic                   Forces (Hartrees/Bohr)
 Number     Number              X              Y              Z
 -------------------------------------------------------------------
      1        8          -0.000601778    0.000259745   -0.000358225
      2        1          -0.000038406   -0.000315719   -0.000081734
      3        8           0.000137046    0.000261408    0.000069785
      4        1           0.000277256   -0.000075629   -0.000108017
      5       53           0.000225882   -0.000129805    0.000478191
 -------------------------------------------------------------------
 Cartesian Forces:  Max     0.000601778 RMS     0.000276712

 GradGradGradGradGradGradGradGradGradGradGradGradGradGradGradGradGradGrad
 Berny optimization.
 Internal  Forces:  Max     0.000661110 RMS     0.000326291
 Search for a saddle point.
 Step number   1 out of a maximum of   20
 All quantities printed in internal units (Hartrees-Bohrs-Radians)
 Swaping is turned off.
 Second derivative matrix not updated -- first step.
 The second derivative matrix:
                          R1        R2        R3        R4        R5
           R1           0.24377
           R2          -0.01027  -0.10678
           R3           0.02124   0.01360   0.15734
           R4           0.11230   0.07075   0.01038   0.51612
           R5          -0.00729   0.00630  -0.00253  -0.01581   0.58808
           A1          -0.20717   0.27445  -0.02386  -0.17995   0.00966
           A2          -0.10338   0.04322  -0.01593  -0.06571  -0.00013
           A3           0.04752   0.01380   0.00401   0.00355  -0.00385
           A4          -0.02758  -0.26960  -0.00944   0.10158   0.02674
           D1           0.04645  -0.06416   0.00073   0.03957   0.00083
                          A1        A2        A3        A4        D1
           A1           0.13893
           A2          -0.18698   0.14685
           A3          -0.16526   0.02908   0.05711
           A4           0.23537   0.11073  -0.01665   0.24263
           D1          -0.03084   0.00434   0.02554  -0.00933   0.03576
     Eigenvalues ---   -0.16437   0.00433   0.01340   0.04100   0.15773
     Eigenvalues ---    0.32019   0.38341   0.48304   0.593001000.00000
 Eigenvectors required to have negative eigenvalues:
                          A1        A2        A4        R1        R2
   1                    0.63420   0.45256  -0.44655  -0.32501  -0.25102
                          R3        A3        R4        D1        R5
   1                    0.08980   0.07936  -0.07748   0.06728   0.00576
 RFO step:  Lambda0=5.092352453D-06 Lambda=-1.55183830D-05.
 Linear search not attempted -- option 19 set.
 Maximum step size (   0.030) exceeded in Quadratic search.
    -- Step size scaled by   0.622
 Iteration  1 RMS(Cart)=  0.01506424 RMS(Int)=  0.00030567
 Iteration  2 RMS(Cart)=  0.00084904 RMS(Int)=  0.00009122
 Iteration  3 RMS(Cart)=  0.00000270 RMS(Int)=  0.00009121
 Iteration  4 RMS(Cart)=  0.00000001 RMS(Int)=  0.00009121
 Variable       Old X    -DE/DX   Delta X   Delta X   Delta X     New X
                                 (Linear)    (Quad)   (Total)
    R1        3.30731   0.00012   0.00000  -0.01708  -0.01691   3.29039
    R2        5.15239   0.00027   0.00000  -0.01125  -0.01141   5.14098
    R3        3.67517  -0.00012   0.00000   0.00063   0.00063   3.67580
    R4        1.85930   0.00015   0.00000   0.00069   0.00085   1.86015
    R5        1.84165   0.00003   0.00000   0.00025   0.00025   1.84190
    A1        3.05027  -0.00066   0.00000  -0.00175  -0.00176   3.04851
    A2        3.08152  -0.00062   0.00000  -0.01303  -0.01303   3.06849
    A3        1.81196   0.00025   0.00000   0.01447   0.01451   1.82647
    A4        1.91098   0.00024   0.00000  -0.00352  -0.00356   1.90742
    D1       -1.80981   0.00004   0.00000  -0.00928  -0.00927  -1.81909
         Item               Value     Threshold  Converged?
 Maximum Force            0.000661     0.000450     NO 
 RMS     Force            0.000326     0.000300     NO 
 Maximum Displacement     0.029288     0.001800     NO 
 RMS     Displacement     0.015229     0.001200     NO 
 Predicted change in Energy=-5.473658D-06
 GradGradGradGradGradGradGradGradGradGradGradGradGradGradGradGradGradGrad

                          Input orientation:                          
 ---------------------------------------------------------------------
 Center     Atomic      Atomic             Coordinates (Angstroms)
 Number     Number       Type             X           Y           Z
 ---------------------------------------------------------------------
      1          8           0       -1.736098    0.734517    0.243514
      2          1           0       -0.025184    0.684134   -0.075888
      3          8           0        0.947792    0.766904   -0.200039
      4          1           0        1.241523    1.636130    0.128891
      5         53           0       -3.630561    0.624971    0.670854
 ---------------------------------------------------------------------
                    Distance matrix (angstroms):
                    1          2          3          4          5
     1  O    0.000000
     2  H    1.741201   0.000000
     3  O    2.720488   0.984351   0.000000
     4  H    3.113241   1.597741   0.974693   0.000000
     5  I    1.945150   3.682372   4.662608   5.005334   0.000000
 Stoichiometry    H2IO2(2)
 Framework group  C1[X(H2IO2)]
 Deg. of freedom     9
 Full point group                 C1      NOp   1
 Largest Abelian subgroup         C1      NOp   1
 Largest concise Abelian subgroup C1      NOp   1
                         Standard orientation:                         
 ---------------------------------------------------------------------
 Center     Atomic      Atomic             Coordinates (Angstroms)
 Number     Number       Type             X           Y           Z
 ---------------------------------------------------------------------
      1          8           0       -1.078129   -0.017735    0.066110
      2          1           0       -2.813834   -0.143794    0.009349
      3          8           0       -3.796047   -0.090271   -0.027237
      4          1           0       -4.068362    0.845440   -0.009454
      5         53           0        0.865578    0.003064   -0.005866
 ---------------------------------------------------------------------
 Rotational constants (GHZ):    541.0859668      1.3843630      1.3814800
 Standard basis: LANL2DZ (5D, 7F)
 There are    30 symmetry adapted basis functions of A   symmetry.
 Integral buffers will be    262144 words long.
 Raffenetti 2 integral format.
 Two-electron integral symmetry is turned on.
    30 basis functions,    70 primitive gaussians,    30 cartesian basis functions
    13 alpha electrons       12 beta electrons
       nuclear repulsion energy        48.5518081991 Hartrees.
 NAtoms=    5 NActive=    5 NUniq=    5 SFac= 7.50D-01 NAtFMM=   80 NAOKFM=F Big=F
 ------------------------------------------------------------------------------
 Polarizable Continuum Model (PCM)
 =================================
 Model                : PCM.
 Atomic radii         : SMD-Coulomb.
 Polarization charges : Total charges.
 Charge compensation  : None.
 Solution method      : Matrix inversion.
 Cavity type          : VdW (van der Waals Surface) (Alpha=1.000).
 Cavity algorithm     : GePol (No added spheres)
                        Default sphere list used, NSphG=    5.
                        Lebedev-Laikov grids with approx.  5.0 points / Ang**2.
                        Smoothing algorithm: Karplus/York (Gamma=1.0000).
                        Polarization charges: spherical gaussians, with
                                              point-specific exponents (IZeta= 3).
                        Self-potential: point-specific (ISelfS= 7).
                        Self-field    : sphere-specific E.n sum rule (ISelfD= 2).
 1st derivatives      : Analytical E(r).r(x)/FMM algorithm (CHGder, D1EAlg=3).
                        Cavity 1st derivative terms included.
 Solvent              : Water, Eps=  78.355300 Eps(inf)=   1.777849
 ------------------------------------------------------------------------------
 Spheres list:
 ISph  on   Nord    Re0     Alpha      Xe            Ye            Ze
    1   O      1    1.520   1.000     -1.078129     -0.017735      0.066110
    2   H      2    1.200   1.000     -2.813834     -0.143794      0.009349
    3   O      3    1.520   1.000     -3.796047     -0.090271     -0.027237
    4   H      4    1.200   1.000     -4.068362      0.845440     -0.009454
    5   I      5    1.980   1.000      0.865578      0.003064     -0.005866
 ------------------------------------------------------------------------------
 ------------------------------------------------------------------------------
 Atomic radii for non-electrostatic terms: SMD-CDS.
 ------------------------------------------------------------------------------
 Nuclear repulsion after PCM non-electrostatic terms =       48.5533358286 Hartrees.
 One-electron integrals computed using PRISM.
   1 Symmetry operations used in ECPInt.
 ECPInt:  NShTT=     171 NPrTT=    1054 LenC2=     172 LenP2D=     890.
 LDataN:  DoStor=T MaxTD1= 4 Len=   56
 NBasis=    30 RedAO= T  NBF=    30
 NBsUse=    30 1.00D-06 NBFU=    30
 Defaulting to unpruned grid for atomic number  53.
 Initial guess read from the read-write file.
 B after Tr=     0.000000    0.000000    0.000000
         Rot=    1.000000    0.000000    0.000000    0.000000 Ang=   0.00 deg.
 Initial guess orbital symmetries:
 Alpha Orbitals:
       Occupied  (A) (A) (A) (A) (A) (A) (A) (A) (A) (A) (A) (A)
                 (A)
       Virtual   (A) (A) (A) (A) (A) (A) (A) (A) (A) (A) (A) (A)
                 (A) (A) (A) (A) (A)
 Beta  Orbitals:
       Occupied  (A) (A) (A) (A) (A) (A) (A) (A) (A) (A) (A) (A)
       Virtual   (A) (A) (A) (A) (A) (A) (A) (A) (A) (A) (A) (A)
                 (A) (A) (A) (A) (A) (A)
 Initial guess <Sx>= 0.0000 <Sy>= 0.0000 <Sz>= 0.5000 <S**2>= 0.7551 S= 0.5025
 Harris functional with IExCor= 1009 diagonalized for initial guess.
 ExpMin= 1.05D-01 ExpMax= 7.82D+03 ExpMxC= 2.73D+02 IAcc=1 IRadAn=         1 AccDes= 0.00D+00
 HarFok:  IExCor= 1009 AccDes= 0.00D+00 IRadAn=         1 IDoV= 1
 ScaDFX=  1.000000  1.000000  1.000000  1.000000
 Defaulting to unpruned grid for atomic number  53.
 Defaulting to unpruned grid for atomic number  53.
 Defaulting to unpruned grid for atomic number  53.
 Defaulting to unpruned grid for atomic number  53.
 FoFCou: FMM=F IPFlag=           0 FMFlag=      100000 FMFlg1=           0
         NFxFlg=           0 DoJE=T BraDBF=F KetDBF=T FulRan=T
         Omega=  0.000000  0.000000  1.000000  0.000000  0.000000 ICntrl=     500 IOpCl=  0
         NMat0=    1 NMatS0=    1 NMatT0=    0 NMatD0=    1 NMtDS0=    0 NMtDT0=    0
         I1Cent=           4 NGrid=           0.
 Petite list used in FoFCou.
 Requested convergence on RMS density matrix=1.00D-08 within 128 cycles.
 Requested convergence on MAX density matrix=1.00D-06.
 Requested convergence on             energy=1.00D-06.
 No special actions if energy rises.
 Keep R1 and R2 ints in memory in canonical form, NReq=3549378.
 Defaulting to unpruned grid for atomic number  53.
 Defaulting to unpruned grid for atomic number  53.
 Defaulting to unpruned grid for atomic number  53.
 Defaulting to unpruned grid for atomic number  53.
 Error on total polarization charges =  0.05991
 SCF Done:  E(UM062X) =  -162.838546476     A.U. after   26 cycles
             Convg  =    0.4458D-08             -V/T =  2.0583
 <Sx>= 0.0000 <Sy>= 0.0000 <Sz>= 0.5000 <S**2>= 0.7551 S= 0.5025
 <L.S>= 0.000000000000E+00
 SMD-CDS (non-electrostatic) energy             (kcal/mol) =       0.96
 (included in total energy above)
 Annihilation of the first spin contaminant:
 S**2 before annihilation     0.7551,   after     0.7500
   1 Symmetry operations used in ECPInt.
 ECPInt:  NShTT=     171 NPrTT=    1054 LenC2=     172 LenP2D=     890.
 LDataN:  DoStor=T MaxTD1= 5 Len=  102
 D1PCM: PCM CHGder 1st derivatives, ID1Alg=3 FixD1E=F DoIter=F DoCFld=F I1PDM=0.
 Calling FoFJK, ICntrl=      2127 FMM=F ISym2X=0 I1Cent= 0 IOpClX= 1 NMat=1 NMatS=1 NMatT=0.
 Defaulting to unpruned grid for atomic number  53.
 Defaulting to unpruned grid for atomic number  53.
 Defaulting to unpruned grid for atomic number  53.
 Defaulting to unpruned grid for atomic number  53.
 ***** Axes restored to original set *****
 -------------------------------------------------------------------
 Center     Atomic                   Forces (Hartrees/Bohr)
 Number     Number              X              Y              Z
 -------------------------------------------------------------------
      1        8          -0.001175320    0.000380267   -0.000314480
      2        1           0.000171246   -0.000875652   -0.000232470
      3        8          -0.000211913    0.000833291    0.000287313
      4        1           0.000631707   -0.000171697   -0.000197776
      5       53           0.000584280   -0.000166209    0.000457413
 -------------------------------------------------------------------
 Cartesian Forces:  Max     0.001175320 RMS     0.000538066

 GradGradGradGradGradGradGradGradGradGradGradGradGradGradGradGradGradGrad
 Berny optimization.
 Internal  Forces:  Max     0.001143690 RMS     0.000560915
 Search for a saddle point.
 Step number   2 out of a maximum of   20
 All quantities printed in internal units (Hartrees-Bohrs-Radians)
 Swaping is turned off.
 Update second derivatives using D2CorX and points    1    2
 The second derivative matrix:
                          R1        R2        R3        R4        R5
           R1           0.18191
           R2           0.00470  -0.04991
           R3           0.01519   0.00614   0.15806
           R4           0.08371   0.04384   0.01257   0.52182
           R5          -0.00678   0.00574  -0.00241  -0.01533   0.58808
           A1          -0.22865   0.26359  -0.02359  -0.18090   0.00996
           A2          -0.13173   0.07067  -0.02174  -0.09033  -0.00005
           A3           0.06656  -0.02712   0.01123   0.03265  -0.00374
           A4          -0.00626  -0.23812  -0.01276   0.09094   0.02630
           D1           0.02912  -0.04227  -0.00357   0.02166   0.00084
                          A1        A2        A3        A4        D1
           A1           0.13573
           A2          -0.20229   0.14085
           A3          -0.14901   0.02545   0.07304
           A4           0.23305   0.13296  -0.04520   0.25746
           D1          -0.04155   0.00242   0.02026   0.00736   0.03608
     Eigenvalues ---   -0.17742   0.01272   0.01355   0.04188   0.15796
     Eigenvalues ---    0.31190   0.38621   0.48397   0.593151000.00000
 Eigenvectors required to have negative eigenvalues:
                          A1        A2        A4        R1        R2
   1                    0.67505   0.51929  -0.42833  -0.17993  -0.16056
                          D1        R4        R3        A3        R5
   1                    0.13977  -0.08305   0.08012   0.01275   0.00408
 RFO step:  Lambda0=1.408113539D-05 Lambda=-1.28371416D-05.
 Linear search not attempted -- option 19 set.
 Maximum step size (   0.030) exceeded in Quadratic search.
    -- Step size scaled by   0.994
 Iteration  1 RMS(Cart)=  0.00930877 RMS(Int)=  0.00032027
 Iteration  2 RMS(Cart)=  0.00020857 RMS(Int)=  0.00000872
 Iteration  3 RMS(Cart)=  0.00000088 RMS(Int)=  0.00000870
 Variable       Old X    -DE/DX   Delta X   Delta X   Delta X     New X
                                 (Linear)    (Quad)   (Total)
    R1        3.29039   0.00034   0.00000   0.01484   0.01486   3.30525
    R2        5.14098   0.00027   0.00000   0.01392   0.01391   5.15489
    R3        3.67580  -0.00047   0.00000  -0.00123  -0.00123   3.67457
    R4        1.86015   0.00017   0.00000  -0.00089  -0.00087   1.85928
    R5        1.84190   0.00002   0.00000  -0.00028  -0.00028   1.84162
    A1        3.04851  -0.00114   0.00000   0.00957   0.00957   3.05808
    A2        3.06849  -0.00034   0.00000   0.01314   0.01314   3.08164
    A3        1.82647   0.00007   0.00000   0.00292   0.00292   1.82939
    A4        1.90742   0.00113   0.00000   0.00351   0.00350   1.91092
    D1       -1.81909   0.00006   0.00000   0.01409   0.01409  -1.80500
         Item               Value     Threshold  Converged?
 Maximum Force            0.001144     0.000450     NO 
 RMS     Force            0.000561     0.000300     NO 
 Maximum Displacement     0.013823     0.001800     NO 
 RMS     Displacement     0.009421     0.001200     NO 
 Predicted change in Energy= 5.690237D-07
 GradGradGradGradGradGradGradGradGradGradGradGradGradGradGradGradGradGrad

                          Input orientation:                          
 ---------------------------------------------------------------------
 Center     Atomic      Atomic             Coordinates (Angstroms)
 Number     Number       Type             X           Y           Z
 ---------------------------------------------------------------------
      1          8           0       -1.739583    0.728543    0.250829
      2          1           0       -0.021496    0.682279   -0.073604
      3          8           0        0.949431    0.770863   -0.205859
      4          1           0        1.245456    1.636936    0.128835
      5         53           0       -3.636335    0.628036    0.667130
 ---------------------------------------------------------------------
                    Distance matrix (angstroms):
                    1          2          3          4          5
     1  O    0.000000
     2  H    1.749063   0.000000
     3  O    2.727848   0.983890   0.000000
     4  H    3.122582   1.599225   0.974542   0.000000
     5  I    1.944499   3.690350   4.670306   5.013933   0.000000
 Stoichiometry    H2IO2(2)
 Framework group  C1[X(H2IO2)]
 Deg. of freedom     9
 Full point group                 C1      NOp   1
 Largest Abelian subgroup         C1      NOp   1
 Largest concise Abelian subgroup C1      NOp   1
                         Standard orientation:                         
 ---------------------------------------------------------------------
 Center     Atomic      Atomic             Coordinates (Angstroms)
 Number     Number       Type             X           Y           Z
 ---------------------------------------------------------------------
      1          8           0       -1.076789   -0.020911    0.054513
      2          1           0       -2.820722   -0.144599    0.003335
      3          8           0       -3.802708   -0.089004   -0.022184
      4          1           0       -4.075908    0.846327   -0.006306
      5         53           0        0.866653    0.003351   -0.004824
 ---------------------------------------------------------------------
 Rotational constants (GHZ):    557.5794225      1.3803487      1.3773774
 Standard basis: LANL2DZ (5D, 7F)
 There are    30 symmetry adapted basis functions of A   symmetry.
 Integral buffers will be    262144 words long.
 Raffenetti 2 integral format.
 Two-electron integral symmetry is turned on.
    30 basis functions,    70 primitive gaussians,    30 cartesian basis functions
    13 alpha electrons       12 beta electrons
       nuclear repulsion energy        48.4967878222 Hartrees.
 NAtoms=    5 NActive=    5 NUniq=    5 SFac= 7.50D-01 NAtFMM=   80 NAOKFM=F Big=F
 ------------------------------------------------------------------------------
 Polarizable Continuum Model (PCM)
 =================================
 Model                : PCM.
 Atomic radii         : SMD-Coulomb.
 Polarization charges : Total charges.
 Charge compensation  : None.
 Solution method      : Matrix inversion.
 Cavity type          : VdW (van der Waals Surface) (Alpha=1.000).
 Cavity algorithm     : GePol (No added spheres)
                        Default sphere list used, NSphG=    5.
                        Lebedev-Laikov grids with approx.  5.0 points / Ang**2.
                        Smoothing algorithm: Karplus/York (Gamma=1.0000).
                        Polarization charges: spherical gaussians, with
                                              point-specific exponents (IZeta= 3).
                        Self-potential: point-specific (ISelfS= 7).
                        Self-field    : sphere-specific E.n sum rule (ISelfD= 2).
 1st derivatives      : Analytical E(r).r(x)/FMM algorithm (CHGder, D1EAlg=3).
                        Cavity 1st derivative terms included.
 Solvent              : Water, Eps=  78.355300 Eps(inf)=   1.777849
 ------------------------------------------------------------------------------
 Spheres list:
 ISph  on   Nord    Re0     Alpha      Xe            Ye            Ze
    1   O      1    1.520   1.000     -1.076789     -0.020911      0.054513
    2   H      2    1.200   1.000     -2.820722     -0.144599      0.003335
    3   O      3    1.520   1.000     -3.802708     -0.089004     -0.022184
    4   H      4    1.200   1.000     -4.075908      0.846327     -0.006306
    5   I      5    1.980   1.000      0.866653      0.003351     -0.004824
 ------------------------------------------------------------------------------
 ------------------------------------------------------------------------------
 Atomic radii for non-electrostatic terms: SMD-CDS.
 ------------------------------------------------------------------------------
 Nuclear repulsion after PCM non-electrostatic terms =       48.4983195327 Hartrees.
 One-electron integrals computed using PRISM.
   1 Symmetry operations used in ECPInt.
 ECPInt:  NShTT=     171 NPrTT=    1054 LenC2=     172 LenP2D=     888.
 LDataN:  DoStor=T MaxTD1= 4 Len=   56
 NBasis=    30 RedAO= T  NBF=    30
 NBsUse=    30 1.00D-06 NBFU=    30
 Defaulting to unpruned grid for atomic number  53.
 Initial guess read from the read-write file.
 B after Tr=     0.000000    0.000000    0.000000
         Rot=    1.000000    0.000000    0.000000    0.000000 Ang=   0.00 deg.
 Initial guess orbital symmetries:
 Alpha Orbitals:
       Occupied  (A) (A) (A) (A) (A) (A) (A) (A) (A) (A) (A) (A)
                 (A)
       Virtual   (A) (A) (A) (A) (A) (A) (A) (A) (A) (A) (A) (A)
                 (A) (A) (A) (A) (A)
 Beta  Orbitals:
       Occupied  (A) (A) (A) (A) (A) (A) (A) (A) (A) (A) (A) (A)
       Virtual   (A) (A) (A) (A) (A) (A) (A) (A) (A) (A) (A) (A)
                 (A) (A) (A) (A) (A) (A)
 Initial guess <Sx>= 0.0000 <Sy>= 0.0000 <Sz>= 0.5000 <S**2>= 0.7551 S= 0.5025
 Requested convergence on RMS density matrix=1.00D-08 within 128 cycles.
 Requested convergence on MAX density matrix=1.00D-06.
 Requested convergence on             energy=1.00D-06.
 No special actions if energy rises.
 Keep R1 and R2 ints in memory in canonical form, NReq=3548070.
 Defaulting to unpruned grid for atomic number  53.
 Defaulting to unpruned grid for atomic number  53.
 Defaulting to unpruned grid for atomic number  53.
 Defaulting to unpruned grid for atomic number  53.
 Error on total polarization charges =  0.05991
 SCF Done:  E(UM062X) =  -162.838544498     A.U. after   27 cycles
             Convg  =    0.3022D-08             -V/T =  2.0583
 <Sx>= 0.0000 <Sy>= 0.0000 <Sz>= 0.5000 <S**2>= 0.7551 S= 0.5025
 <L.S>= 0.000000000000E+00
 SMD-CDS (non-electrostatic) energy             (kcal/mol) =       0.96
 (included in total energy above)
 Annihilation of the first spin contaminant:
 S**2 before annihilation     0.7551,   after     0.7500
   1 Symmetry operations used in ECPInt.
 ECPInt:  NShTT=     171 NPrTT=    1054 LenC2=     172 LenP2D=     888.
 LDataN:  DoStor=T MaxTD1= 5 Len=  102
 D1PCM: PCM CHGder 1st derivatives, ID1Alg=3 FixD1E=F DoIter=F DoCFld=F I1PDM=0.
 Calling FoFJK, ICntrl=      2127 FMM=F ISym2X=0 I1Cent= 0 IOpClX= 1 NMat=1 NMatS=1 NMatT=0.
 Defaulting to unpruned grid for atomic number  53.
 Defaulting to unpruned grid for atomic number  53.
 Defaulting to unpruned grid for atomic number  53.
 Defaulting to unpruned grid for atomic number  53.
 ***** Axes restored to original set *****
 -------------------------------------------------------------------
 Center     Atomic                   Forces (Hartrees/Bohr)
 Number     Number              X              Y              Z
 -------------------------------------------------------------------
      1        8          -0.000504541    0.000272655   -0.000373063
      2        1          -0.000093074   -0.000549386   -0.000174601
      3        8           0.000088459    0.000452317    0.000161819
      4        1           0.000368248   -0.000075771   -0.000120814
      5       53           0.000140907   -0.000099815    0.000506659
 -------------------------------------------------------------------
 Cartesian Forces:  Max     0.000549386 RMS     0.000315184

 GradGradGradGradGradGradGradGradGradGradGradGradGradGradGradGradGradGrad
 Berny optimization.
 Internal  Forces:  Max     0.000744220 RMS     0.000379542
 Search for a saddle point.
 Step number   3 out of a maximum of   20
 All quantities printed in internal units (Hartrees-Bohrs-Radians)
 Swaping is turned off.
 Update second derivatives using D2CorX and points    1    2    3
 The second derivative matrix:
                          R1        R2        R3        R4        R5
           R1           0.18929
           R2           0.00877  -0.07918
           R3           0.01362   0.00920   0.15791
           R4           0.08756   0.05150   0.01106   0.52287
           R5          -0.00730   0.00551  -0.00231  -0.01562   0.58811
           A1          -0.20545   0.23758  -0.02370  -0.16188   0.00837
           A2          -0.12189   0.06724  -0.02272  -0.08362  -0.00073
           A3           0.10465  -0.08128   0.01247   0.06592  -0.00633
           A4          -0.01062  -0.24987  -0.01067   0.09029   0.02663
           D1           0.04475  -0.06783  -0.00264   0.03588  -0.00021
                          A1        A2        A3        A4        D1
           A1           0.16139
           A2          -0.18216   0.15151
           A3          -0.12082   0.05531   0.09234
           A4           0.20771   0.12450  -0.09024   0.25730
           D1          -0.03422   0.01371   0.01997  -0.01207   0.03228
     Eigenvalues ---   -0.14877   0.00270   0.01898   0.03885   0.15833
     Eigenvalues ---    0.32011   0.38529   0.48774   0.593591000.00000
 Eigenvectors required to have negative eigenvalues:
                          A1        A2        A4        A3        R2
   1                    0.53633   0.52558  -0.47668  -0.27931  -0.25495
                          R1        R3        R4        D1        R5
   1                   -0.22042   0.09593  -0.08154   0.03715   0.00756
 RFO step:  Lambda0=7.923160642D-06 Lambda=-1.36544175D-05.
 Linear search not attempted -- option 19 set.
 Maximum step size (   0.030) exceeded in Quadratic search.
    -- Step size scaled by   0.518
 Iteration  1 RMS(Cart)=  0.01399366 RMS(Int)=  0.00031238
 Iteration  2 RMS(Cart)=  0.00012373 RMS(Int)=  0.00004776
 Iteration  3 RMS(Cart)=  0.00000021 RMS(Int)=  0.00004776
 Variable       Old X    -DE/DX   Delta X   Delta X   Delta X     New X
                                 (Linear)    (Quad)   (Total)
    R1        3.30525   0.00016   0.00000  -0.00906  -0.00897   3.29628
    R2        5.15489   0.00021   0.00000  -0.01217  -0.01226   5.14263
    R3        3.67457  -0.00003   0.00000  -0.00008  -0.00008   3.67449
    R4        1.85928   0.00025   0.00000   0.00005   0.00014   1.85942
    R5        1.84162   0.00006   0.00000   0.00023   0.00023   1.84185
    A1        3.05808  -0.00061   0.00000  -0.01097  -0.01097   3.04711
    A2        3.08164  -0.00061   0.00000  -0.00497  -0.00498   3.07666
    A3        1.82939  -0.00009   0.00000  -0.01853  -0.01851   1.81088
    A4        1.91092   0.00074   0.00000  -0.00520  -0.00522   1.90570
    D1       -1.80500   0.00004   0.00000  -0.01242  -0.01242  -1.81742
         Item               Value     Threshold  Converged?
 Maximum Force            0.000744     0.000450     NO 
 RMS     Force            0.000380     0.000300     NO 
 Maximum Displacement     0.028555     0.001800     NO 
 RMS     Displacement     0.013973     0.001200     NO 
 Predicted change in Energy=-2.596574D-06
 GradGradGradGradGradGradGradGradGradGradGradGradGradGradGradGradGradGrad

                          Input orientation:                          
 ---------------------------------------------------------------------
 Center     Atomic      Atomic             Coordinates (Angstroms)
 Number     Number       Type             X           Y           Z
 ---------------------------------------------------------------------
      1          8           0       -1.733269    0.734042    0.247778
      2          1           0       -0.020705    0.671262   -0.077515
      3          8           0        0.949816    0.770607   -0.205582
      4          1           0        1.230345    1.640225    0.133595
      5         53           0       -3.628715    0.630521    0.669055
 ---------------------------------------------------------------------
                    Distance matrix (angstroms):
                    1          2          3          4          5
     1  O    0.000000
     2  H    1.744314   0.000000
     3  O    2.721363   0.983962   0.000000
     4  H    3.101163   1.596429   0.974666   0.000000
     5  I    1.944456   3.684666   4.663428   4.991662   0.000000
 Stoichiometry    H2IO2(2)
 Framework group  C1[X(H2IO2)]
 Deg. of freedom     9
 Full point group                 C1      NOp   1
 Largest Abelian subgroup         C1      NOp   1
 Largest concise Abelian subgroup C1      NOp   1
                         Standard orientation:                         
 ---------------------------------------------------------------------
 Center     Atomic      Atomic             Coordinates (Angstroms)
 Number     Number       Type             X           Y           Z
 ---------------------------------------------------------------------
      1          8           0       -1.077832   -0.018949    0.058918
      2          1           0       -2.815746   -0.156759    0.001547
      3          8           0       -3.797042   -0.088894   -0.023659
      4          1           0       -4.053648    0.851255   -0.007960
      5         53           0        0.865441    0.003175   -0.005201
 ---------------------------------------------------------------------
 Rotational constants (GHZ):    545.2238903      1.3845258      1.3815309
 Standard basis: LANL2DZ (5D, 7F)
 There are    30 symmetry adapted basis functions of A   symmetry.
 Integral buffers will be    262144 words long.
 Raffenetti 2 integral format.
 Two-electron integral symmetry is turned on.
    30 basis functions,    70 primitive gaussians,    30 cartesian basis functions
    13 alpha electrons       12 beta electrons
       nuclear repulsion energy        48.5565762761 Hartrees.
 NAtoms=    5 NActive=    5 NUniq=    5 SFac= 7.50D-01 NAtFMM=   80 NAOKFM=F Big=F
 ------------------------------------------------------------------------------
 Polarizable Continuum Model (PCM)
 =================================
 Model                : PCM.
 Atomic radii         : SMD-Coulomb.
 Polarization charges : Total charges.
 Charge compensation  : None.
 Solution method      : Matrix inversion.
 Cavity type          : VdW (van der Waals Surface) (Alpha=1.000).
 Cavity algorithm     : GePol (No added spheres)
                        Default sphere list used, NSphG=    5.
                        Lebedev-Laikov grids with approx.  5.0 points / Ang**2.
                        Smoothing algorithm: Karplus/York (Gamma=1.0000).
                        Polarization charges: spherical gaussians, with
                                              point-specific exponents (IZeta= 3).
                        Self-potential: point-specific (ISelfS= 7).
                        Self-field    : sphere-specific E.n sum rule (ISelfD= 2).
 1st derivatives      : Analytical E(r).r(x)/FMM algorithm (CHGder, D1EAlg=3).
                        Cavity 1st derivative terms included.
 Solvent              : Water, Eps=  78.355300 Eps(inf)=   1.777849
 ------------------------------------------------------------------------------
 Spheres list:
 ISph  on   Nord    Re0     Alpha      Xe            Ye            Ze
    1   O      1    1.520   1.000     -1.077832     -0.018949      0.058918
    2   H      2    1.200   1.000     -2.815746     -0.156759      0.001547
    3   O      3    1.520   1.000     -3.797042     -0.088894     -0.023659
    4   H      4    1.200   1.000     -4.053648      0.851255     -0.007960
    5   I      5    1.980   1.000      0.865441      0.003175     -0.005201
 ------------------------------------------------------------------------------
 ------------------------------------------------------------------------------
 Atomic radii for non-electrostatic terms: SMD-CDS.
 ------------------------------------------------------------------------------
 Nuclear repulsion after PCM non-electrostatic terms =       48.5581010586 Hartrees.
 One-electron integrals computed using PRISM.
   1 Symmetry operations used in ECPInt.
 ECPInt:  NShTT=     171 NPrTT=    1054 LenC2=     172 LenP2D=     890.
 LDataN:  DoStor=T MaxTD1= 4 Len=   56
 NBasis=    30 RedAO= T  NBF=    30
 NBsUse=    30 1.00D-06 NBFU=    30
 Defaulting to unpruned grid for atomic number  53.
 Initial guess read from the read-write file.
 B after Tr=     0.000000    0.000000    0.000000
         Rot=    1.000000    0.000000    0.000000    0.000000 Ang=   0.00 deg.
 Initial guess orbital symmetries:
 Alpha Orbitals:
       Occupied  (A) (A) (A) (A) (A) (A) (A) (A) (A) (A) (A) (A)
                 (A)
       Virtual   (A) (A) (A) (A) (A) (A) (A) (A) (A) (A) (A) (A)
                 (A) (A) (A) (A) (A)
 Beta  Orbitals:
       Occupied  (A) (A) (A) (A) (A) (A) (A) (A) (A) (A) (A) (A)
       Virtual   (A) (A) (A) (A) (A) (A) (A) (A) (A) (A) (A) (A)
                 (A) (A) (A) (A) (A) (A)
 Initial guess <Sx>= 0.0000 <Sy>= 0.0000 <Sz>= 0.5000 <S**2>= 0.7551 S= 0.5025
 Harris functional with IExCor= 1009 diagonalized for initial guess.
 ExpMin= 1.05D-01 ExpMax= 7.82D+03 ExpMxC= 2.73D+02 IAcc=1 IRadAn=         1 AccDes= 0.00D+00
 HarFok:  IExCor= 1009 AccDes= 0.00D+00 IRadAn=         1 IDoV= 1
 ScaDFX=  1.000000  1.000000  1.000000  1.000000
 Defaulting to unpruned grid for atomic number  53.
 Defaulting to unpruned grid for atomic number  53.
 Defaulting to unpruned grid for atomic number  53.
 Defaulting to unpruned grid for atomic number  53.
 FoFCou: FMM=F IPFlag=           0 FMFlag=      100000 FMFlg1=           0
         NFxFlg=           0 DoJE=T BraDBF=F KetDBF=T FulRan=T
         Omega=  0.000000  0.000000  1.000000  0.000000  0.000000 ICntrl=     500 IOpCl=  0
         NMat0=    1 NMatS0=    1 NMatT0=    0 NMatD0=    1 NMtDS0=    0 NMtDT0=    0
         I1Cent=           4 NGrid=           0.
 Petite list used in FoFCou.
 Requested convergence on RMS density matrix=1.00D-08 within 128 cycles.
 Requested convergence on MAX density matrix=1.00D-06.
 Requested convergence on             energy=1.00D-06.
 No special actions if energy rises.
 Keep R1 and R2 ints in memory in canonical form, NReq=3546765.
 Defaulting to unpruned grid for atomic number  53.
 Defaulting to unpruned grid for atomic number  53.
 Defaulting to unpruned grid for atomic number  53.
 Defaulting to unpruned grid for atomic number  53.
 Error on total polarization charges =  0.05991
 SCF Done:  E(UM062X) =  -162.838541878     A.U. after   25 cycles
             Convg  =    0.2095D-08             -V/T =  2.0583
 <Sx>= 0.0000 <Sy>= 0.0000 <Sz>= 0.5000 <S**2>= 0.7551 S= 0.5025
 <L.S>= 0.000000000000E+00
 SMD-CDS (non-electrostatic) energy             (kcal/mol) =       0.96
 (included in total energy above)
 Annihilation of the first spin contaminant:
 S**2 before annihilation     0.7551,   after     0.7500
   1 Symmetry operations used in ECPInt.
 ECPInt:  NShTT=     171 NPrTT=    1054 LenC2=     172 LenP2D=     890.
 LDataN:  DoStor=T MaxTD1= 5 Len=  102
 D1PCM: PCM CHGder 1st derivatives, ID1Alg=3 FixD1E=F DoIter=F DoCFld=F I1PDM=0.
 Calling FoFJK, ICntrl=      2127 FMM=F ISym2X=0 I1Cent= 0 IOpClX= 1 NMat=1 NMatS=1 NMatT=0.
 Defaulting to unpruned grid for atomic number  53.
 Defaulting to unpruned grid for atomic number  53.
 Defaulting to unpruned grid for atomic number  53.
 Defaulting to unpruned grid for atomic number  53.
 ***** Axes restored to original set *****
 -------------------------------------------------------------------
 Center     Atomic                   Forces (Hartrees/Bohr)
 Number     Number              X              Y              Z
 -------------------------------------------------------------------
      1        8          -0.000732220    0.000320702   -0.000350874
      2        1          -0.000184131   -0.000803721   -0.000286638
      3        8           0.000003327    0.000748811    0.000329974
      4        1           0.000718195   -0.000101317   -0.000201276
      5       53           0.000194829   -0.000164474    0.000508814
 -------------------------------------------------------------------
 Cartesian Forces:  Max     0.000803721 RMS     0.000453449

 GradGradGradGradGradGradGradGradGradGradGradGradGradGradGradGradGradGrad
 Berny optimization.
 Internal  Forces:  Max     0.001235647 RMS     0.000528974
 Search for a saddle point.
 Step number   4 out of a maximum of   20
 All quantities printed in internal units (Hartrees-Bohrs-Radians)
 Swaping is turned off.
 Update second derivatives using D2CorX and points    1    2    3    4
 The second derivative matrix:
                          R1        R2        R3        R4        R5
           R1           0.19624
           R2          -0.01564  -0.02880
           R3           0.00580   0.01832   0.15689
           R4           0.09196   0.03278   0.00417   0.52521
           R5          -0.00753   0.00650  -0.00192  -0.01571   0.58812
           A1          -0.20804   0.23740  -0.02615  -0.16486   0.00855
           A2          -0.09265   0.02536  -0.02347  -0.05918  -0.00210
           A3           0.05206  -0.01704   0.00699   0.01998  -0.00372
           A4          -0.03944  -0.19955  -0.00497   0.06712   0.02788
           D1           0.03941  -0.06114  -0.00290   0.03145   0.00003
                          A1        A2        A3        A4        D1
           A1           0.15895
           A2          -0.17584   0.16934
           A3          -0.13700   0.04484   0.06510
           A4           0.20447   0.09130  -0.04772   0.30322
           D1          -0.03545   0.01175   0.01957  -0.00725   0.03236
     Eigenvalues ---   -0.09196   0.00729   0.01451   0.03889   0.15945
     Eigenvalues ---    0.32214   0.38478   0.49081   0.593791000.00000
 Eigenvectors required to have negative eigenvalues:
                          A1        A2        A4        R1        R2
   1                    0.63988   0.53203  -0.41530  -0.22979  -0.20223
                          R3        D1        A3        R4        R5
   1                    0.13400   0.11450  -0.07534  -0.06718   0.00842
 RFO step:  Lambda0=2.281126745D-05 Lambda=-1.21289262D-05.
 Linear search not attempted -- option 19 set.
 Maximum step size (   0.030) exceeded in Quadratic search.
    -- Step size scaled by   0.731
 Iteration  1 RMS(Cart)=  0.00945935 RMS(Int)=  0.00068293
 Iteration  2 RMS(Cart)=  0.00068285 RMS(Int)=  0.00002065
 Iteration  3 RMS(Cart)=  0.00000447 RMS(Int)=  0.00002027
 Iteration  4 RMS(Cart)=  0.00000000 RMS(Int)=  0.00002027
 Variable       Old X    -DE/DX   Delta X   Delta X   Delta X     New X
                                 (Linear)    (Quad)   (Total)
    R1        3.29628   0.00023   0.00000   0.00885   0.00889   3.30517
    R2        5.14263   0.00033   0.00000   0.01067   0.01063   5.15326
    R3        3.67449  -0.00008   0.00000   0.00198   0.00198   3.67647
    R4        1.85942   0.00042   0.00000  -0.00033  -0.00029   1.85912
    R5        1.84185   0.00009   0.00000  -0.00008  -0.00008   1.84177
    A1        3.04711  -0.00059   0.00000   0.01429   0.01429   3.06140
    A2        3.07666  -0.00076   0.00000   0.01061   0.01061   3.08727
    A3        1.81088   0.00008   0.00000   0.00924   0.00925   1.82013
    A4        1.90570   0.00124   0.00000   0.00159   0.00158   1.90728
    D1       -1.81742   0.00004   0.00000   0.01729   0.01729  -1.80013
         Item               Value     Threshold  Converged?
 Maximum Force            0.001236     0.000450     NO 
 RMS     Force            0.000529     0.000300     NO 
 Maximum Displacement     0.015466     0.001800     NO 
 RMS     Displacement     0.010106     0.001200     NO 
 Predicted change in Energy= 4.785296D-06
 GradGradGradGradGradGradGradGradGradGradGradGradGradGradGradGradGradGrad

                          Input orientation:                          
 ---------------------------------------------------------------------
 Center     Atomic      Atomic             Coordinates (Angstroms)
 Number     Number       Type             X           Y           Z
 ---------------------------------------------------------------------
      1          8           0       -1.736469    0.726804    0.254400
      2          1           0       -0.019893    0.677895   -0.077326
      3          8           0        0.950856    0.771380   -0.206873
      4          1           0        1.238529    1.639064    0.131152
      5         53           0       -3.635551    0.631514    0.665979
 ---------------------------------------------------------------------
                    Distance matrix (angstroms):
                    1          2          3          4          5
     1  O    0.000000
     2  H    1.749019   0.000000
     3  O    2.726990   0.983806   0.000000
     4  H    3.114165   1.597165   0.974625   0.000000
     5  I    1.945506   3.691563   4.670820   5.005783   0.000000
 Stoichiometry    H2IO2(2)
 Framework group  C1[X(H2IO2)]
 Deg. of freedom     9
 Full point group                 C1      NOp   1
 Largest Abelian subgroup         C1      NOp   1
 Largest concise Abelian subgroup C1      NOp   1
                         Standard orientation:                         
 ---------------------------------------------------------------------
 Center     Atomic      Atomic             Coordinates (Angstroms)
 Number     Number       Type             X           Y           Z
 ---------------------------------------------------------------------
      1          8           0       -1.077865   -0.022089    0.049327
      2          1           0       -2.821625   -0.150090    0.004819
      3          8           0       -3.803161   -0.088222   -0.020373
      4          1           0       -4.066967    0.849893   -0.004872
      5         53           0        0.866732    0.003447   -0.004369
 ---------------------------------------------------------------------
 Rotational constants (GHZ):    559.9251916      1.3802248      1.3771906
 Standard basis: LANL2DZ (5D, 7F)
 There are    30 symmetry adapted basis functions of A   symmetry.
 Integral buffers will be    262144 words long.
 Raffenetti 2 integral format.
 Two-electron integral symmetry is turned on.
    30 basis functions,    70 primitive gaussians,    30 cartesian basis functions
    13 alpha electrons       12 beta electrons
       nuclear repulsion energy        48.4971318590 Hartrees.
 NAtoms=    5 NActive=    5 NUniq=    5 SFac= 7.50D-01 NAtFMM=   80 NAOKFM=F Big=F
 ------------------------------------------------------------------------------
 Polarizable Continuum Model (PCM)
 =================================
 Model                : PCM.
 Atomic radii         : SMD-Coulomb.
 Polarization charges : Total charges.
 Charge compensation  : None.
 Solution method      : Matrix inversion.
 Cavity type          : VdW (van der Waals Surface) (Alpha=1.000).
 Cavity algorithm     : GePol (No added spheres)
                        Default sphere list used, NSphG=    5.
                        Lebedev-Laikov grids with approx.  5.0 points / Ang**2.
                        Smoothing algorithm: Karplus/York (Gamma=1.0000).
                        Polarization charges: spherical gaussians, with
                                              point-specific exponents (IZeta= 3).
                        Self-potential: point-specific (ISelfS= 7).
                        Self-field    : sphere-specific E.n sum rule (ISelfD= 2).
 1st derivatives      : Analytical E(r).r(x)/FMM algorithm (CHGder, D1EAlg=3).
                        Cavity 1st derivative terms included.
 Solvent              : Water, Eps=  78.355300 Eps(inf)=   1.777849
 ------------------------------------------------------------------------------
 Spheres list:
 ISph  on   Nord    Re0     Alpha      Xe            Ye            Ze
    1   O      1    1.520   1.000     -1.077865     -0.022089      0.049327
    2   H      2    1.200   1.000     -2.821625     -0.150090      0.004819
    3   O      3    1.520   1.000     -3.803161     -0.088222     -0.020373
    4   H      4    1.200   1.000     -4.066967      0.849893     -0.004872
    5   I      5    1.980   1.000      0.866732      0.003447     -0.004369
 ------------------------------------------------------------------------------
 ------------------------------------------------------------------------------
 Atomic radii for non-electrostatic terms: SMD-CDS.
 ------------------------------------------------------------------------------
 Nuclear repulsion after PCM non-electrostatic terms =       48.4986615465 Hartrees.
 One-electron integrals computed using PRISM.
   1 Symmetry operations used in ECPInt.
 ECPInt:  NShTT=     171 NPrTT=    1054 LenC2=     172 LenP2D=     889.
 LDataN:  DoStor=T MaxTD1= 4 Len=   56
 NBasis=    30 RedAO= T  NBF=    30
 NBsUse=    30 1.00D-06 NBFU=    30
 Defaulting to unpruned grid for atomic number  53.
 Initial guess read from the read-write file.
 B after Tr=     0.000000    0.000000    0.000000
         Rot=    1.000000    0.000000    0.000000    0.000000 Ang=   0.00 deg.
 Initial guess orbital symmetries:
 Alpha Orbitals:
       Occupied  (A) (A) (A) (A) (A) (A) (A) (A) (A) (A) (A) (A)
                 (A)
       Virtual   (A) (A) (A) (A) (A) (A) (A) (A) (A) (A) (A) (A)
                 (A) (A) (A) (A) (A)
 Beta  Orbitals:
       Occupied  (A) (A) (A) (A) (A) (A) (A) (A) (A) (A) (A) (A)
       Virtual   (A) (A) (A) (A) (A) (A) (A) (A) (A) (A) (A) (A)
                 (A) (A) (A) (A) (A) (A)
 Initial guess <Sx>= 0.0000 <Sy>= 0.0000 <Sz>= 0.5000 <S**2>= 0.7551 S= 0.5025
 Requested convergence on RMS density matrix=1.00D-08 within 128 cycles.
 Requested convergence on MAX density matrix=1.00D-06.
 Requested convergence on             energy=1.00D-06.
 No special actions if energy rises.
 Keep R1 and R2 ints in memory in canonical form, NReq=3546765.
 Defaulting to unpruned grid for atomic number  53.
 Defaulting to unpruned grid for atomic number  53.
 Defaulting to unpruned grid for atomic number  53.
 Defaulting to unpruned grid for atomic number  53.
 Error on total polarization charges =  0.05993
 SCF Done:  E(UM062X) =  -162.838536043     A.U. after   29 cycles
             Convg  =    0.8031D-09             -V/T =  2.0583
 <Sx>= 0.0000 <Sy>= 0.0000 <Sz>= 0.5000 <S**2>= 0.7551 S= 0.5025
 <L.S>= 0.000000000000E+00
 SMD-CDS (non-electrostatic) energy             (kcal/mol) =       0.96
 (included in total energy above)
 Annihilation of the first spin contaminant:
 S**2 before annihilation     0.7551,   after     0.7500
   1 Symmetry operations used in ECPInt.
 ECPInt:  NShTT=     171 NPrTT=    1054 LenC2=     172 LenP2D=     889.
 LDataN:  DoStor=T MaxTD1= 5 Len=  102
 D1PCM: PCM CHGder 1st derivatives, ID1Alg=3 FixD1E=F DoIter=F DoCFld=F I1PDM=0.
 Calling FoFJK, ICntrl=      2127 FMM=F ISym2X=0 I1Cent= 0 IOpClX= 1 NMat=1 NMatS=1 NMatT=0.
 Defaulting to unpruned grid for atomic number  53.
 Defaulting to unpruned grid for atomic number  53.
 Defaulting to unpruned grid for atomic number  53.
 Defaulting to unpruned grid for atomic number  53.
 ***** Axes restored to original set *****
 -------------------------------------------------------------------
 Center     Atomic                   Forces (Hartrees/Bohr)
 Number     Number              X              Y              Z
 -------------------------------------------------------------------
      1        8          -0.000898122    0.000212188   -0.000263167
      2        1          -0.000208643   -0.000774993   -0.000221279
      3        8          -0.000000023    0.000700719    0.000256916
      4        1           0.000620315   -0.000090421   -0.000167152
      5       53           0.000486474   -0.000047493    0.000394682
 -------------------------------------------------------------------
 Cartesian Forces:  Max     0.000898122 RMS     0.000446215

 GradGradGradGradGradGradGradGradGradGradGradGradGradGradGradGradGradGrad
 Berny optimization.
 Internal  Forces:  Max     0.001056533 RMS     0.000477520
 Search for a saddle point.
 Step number   5 out of a maximum of   20
 All quantities printed in internal units (Hartrees-Bohrs-Radians)
 Swaping is turned off.
 Update second derivatives using D2CorX and points    1    2    3    4    5
 The second derivative matrix:
                          R1        R2        R3        R4        R5
           R1           0.13514
           R2          -0.02988   0.07646
           R3           0.02291  -0.01171   0.16543
           R4           0.07630  -0.01614   0.02232   0.53999
           R5          -0.00445   0.00733  -0.00274  -0.01494   0.58795
           A1          -0.14633   0.14858  -0.00585  -0.10635   0.00535
           A2          -0.04910  -0.02973  -0.01108  -0.02007  -0.00464
           A3           0.02502  -0.01375   0.00512   0.00880  -0.00216
           A4          -0.08087  -0.09702  -0.03094   0.00952   0.03019
           D1           0.09667  -0.11534   0.00691   0.07475  -0.00313
                          A1        A2        A3        A4        D1
           A1           0.20352
           A2          -0.15419   0.17064
           A3          -0.12712   0.06065   0.05847
           A4           0.13682   0.05527  -0.05551   0.39088
           D1          -0.02371   0.00740   0.03831  -0.03767   0.01918
     Eigenvalues ---   -0.00448   0.00932   0.01642   0.03431   0.16282
     Eigenvalues ---    0.31614   0.38834   0.49366   0.594261000.00000
 Eigenvectors required to have negative eigenvalues:
                          A2        A1        D1        R1        R2
   1                    0.59775   0.52908   0.48651   0.23870   0.23697
                          A4        A3        R4        R3        R5
   1                   -0.10154  -0.04809  -0.01549   0.00666   0.00597
 RFO step:  Lambda0=8.760815575D-05 Lambda=-7.13127295D-05.
 Linear search not attempted -- option 19 set.
 Maximum step size (   0.030) exceeded in Quadratic search.
    -- Step size scaled by   0.193
 Iteration  1 RMS(Cart)=  0.00768323 RMS(Int)=  0.00082752
 Iteration  2 RMS(Cart)=  0.00113532 RMS(Int)=  0.00001519
 Iteration  3 RMS(Cart)=  0.00003378 RMS(Int)=  0.00001098
 Iteration  4 RMS(Cart)=  0.00000003 RMS(Int)=  0.00001098
 Variable       Old X    -DE/DX   Delta X   Delta X   Delta X     New X
                                 (Linear)    (Quad)   (Total)
    R1        3.30517   0.00016   0.00000   0.01167   0.01169   3.31686
    R2        5.15326   0.00027   0.00000   0.01057   0.01055   5.16381
    R3        3.67647  -0.00040   0.00000  -0.00073  -0.00073   3.67575
    R4        1.85912   0.00037   0.00000   0.00032   0.00034   1.85946
    R5        1.84177   0.00010   0.00000   0.00003   0.00003   1.84180
    A1        3.06140  -0.00079   0.00000   0.00785   0.00785   3.06925
    A2        3.08727  -0.00037   0.00000   0.01201   0.01201   3.09928
    A3        1.82013   0.00006   0.00000  -0.00407  -0.00406   1.81606
    A4        1.90728   0.00106   0.00000   0.00162   0.00161   1.90889
    D1       -1.80013   0.00005   0.00000   0.02065   0.02065  -1.77948
         Item               Value     Threshold  Converged?
 Maximum Force            0.001057     0.000450     NO 
 RMS     Force            0.000478     0.000300     NO 
 Maximum Displacement     0.014614     0.001800     NO 
 RMS     Displacement     0.008464     0.001200     NO 
 Predicted change in Energy= 2.940147D-06
 GradGradGradGradGradGradGradGradGradGradGradGradGradGradGradGradGradGrad

                          Input orientation:                          
 ---------------------------------------------------------------------
 Center     Atomic      Atomic             Coordinates (Angstroms)
 Number     Number       Type             X           Y           Z
 ---------------------------------------------------------------------
      1          8           0       -1.737453    0.721618    0.262133
      2          1           0       -0.016743    0.673540   -0.080787
      3          8           0        0.953567    0.774100   -0.209679
      4          1           0        1.236980    1.641524    0.132634
      5         53           0       -3.638880    0.635875    0.663030
 ---------------------------------------------------------------------
                    Distance matrix (angstroms):
                    1          2          3          4          5
     1  O    0.000000
     2  H    1.755207   0.000000
     3  O    2.732572   0.983985   0.000000
     4  H    3.116127   1.598237   0.974641   0.000000
     5  I    1.945121   3.697913   4.676676   5.006661   0.000000
 Stoichiometry    H2IO2(2)
 Framework group  C1[X(H2IO2)]
 Deg. of freedom     9
 Full point group                 C1      NOp   1
 Largest Abelian subgroup         C1      NOp   1
 Largest concise Abelian subgroup C1      NOp   1
                         Standard orientation:                         
 ---------------------------------------------------------------------
 Center     Atomic      Atomic             Coordinates (Angstroms)
 Number     Number       Type             X           Y           Z
 ---------------------------------------------------------------------
      1          8           0       -1.076987   -0.024884    0.038481
      2          1           0       -2.826988   -0.155826    0.005301
      3          8           0       -3.808311   -0.086766   -0.016203
      4          1           0       -4.066643    0.852915   -0.002451
      5         53           0        0.867472    0.003700   -0.003417
 ---------------------------------------------------------------------
 Rotational constants (GHZ):    568.2647827      1.3773566      1.3742456
 Standard basis: LANL2DZ (5D, 7F)
 There are    30 symmetry adapted basis functions of A   symmetry.
 Integral buffers will be    262144 words long.
 Raffenetti 2 integral format.
 Two-electron integral symmetry is turned on.
    30 basis functions,    70 primitive gaussians,    30 cartesian basis functions
    13 alpha electrons       12 beta electrons
       nuclear repulsion energy        48.4545123095 Hartrees.
 NAtoms=    5 NActive=    5 NUniq=    5 SFac= 7.50D-01 NAtFMM=   80 NAOKFM=F Big=F
 ------------------------------------------------------------------------------
 Polarizable Continuum Model (PCM)
 =================================
 Model                : PCM.
 Atomic radii         : SMD-Coulomb.
 Polarization charges : Total charges.
 Charge compensation  : None.
 Solution method      : Matrix inversion.
 Cavity type          : VdW (van der Waals Surface) (Alpha=1.000).
 Cavity algorithm     : GePol (No added spheres)
                        Default sphere list used, NSphG=    5.
                        Lebedev-Laikov grids with approx.  5.0 points / Ang**2.
                        Smoothing algorithm: Karplus/York (Gamma=1.0000).
                        Polarization charges: spherical gaussians, with
                                              point-specific exponents (IZeta= 3).
                        Self-potential: point-specific (ISelfS= 7).
                        Self-field    : sphere-specific E.n sum rule (ISelfD= 2).
 1st derivatives      : Analytical E(r).r(x)/FMM algorithm (CHGder, D1EAlg=3).
                        Cavity 1st derivative terms included.
 Solvent              : Water, Eps=  78.355300 Eps(inf)=   1.777849
 ------------------------------------------------------------------------------
 Spheres list:
 ISph  on   Nord    Re0     Alpha      Xe            Ye            Ze
    1   O      1    1.520   1.000     -1.076987     -0.024884      0.038481
    2   H      2    1.200   1.000     -2.826988     -0.155826      0.005301
    3   O      3    1.520   1.000     -3.808311     -0.086766     -0.016203
    4   H      4    1.200   1.000     -4.066643      0.852915     -0.002451
    5   I      5    1.980   1.000      0.867472      0.003700     -0.003417
 ------------------------------------------------------------------------------
 ------------------------------------------------------------------------------
 Atomic radii for non-electrostatic terms: SMD-CDS.
 ------------------------------------------------------------------------------
 Nuclear repulsion after PCM non-electrostatic terms =       48.4560443715 Hartrees.
 One-electron integrals computed using PRISM.
   1 Symmetry operations used in ECPInt.
 ECPInt:  NShTT=     171 NPrTT=    1054 LenC2=     172 LenP2D=     889.
 LDataN:  DoStor=T MaxTD1= 4 Len=   56
 NBasis=    30 RedAO= T  NBF=    30
[...]
                        Cavity 1st derivative terms included.
 Solvent              : Water, Eps=  78.355300 Eps(inf)=   1.777849
 ------------------------------------------------------------------------------
 Spheres list:
 ISph  on   Nord    Re0     Alpha      Xe            Ye            Ze
    1   O      1    1.520   1.000     -1.076934     -0.024344      0.032266
    2   H      2    1.200   1.000     -2.825185     -0.145188      0.007347
    3   O      3    1.520   1.000     -3.807654     -0.087730     -0.013862
    4   H      4    1.200   1.000     -4.079077      0.848268     -0.002147
    5   I      5    1.980   1.000      0.867565      0.003651     -0.002876
 ------------------------------------------------------------------------------
 ------------------------------------------------------------------------------
 Atomic radii for non-electrostatic terms: SMD-CDS.
 ------------------------------------------------------------------------------
 Nuclear repulsion after PCM non-electrostatic terms =       48.4568460610 Hartrees.
 One-electron integrals computed using PRISM.
   1 Symmetry operations used in ECPInt.
 ECPInt:  NShTT=     171 NPrTT=    1054 LenC2=     172 LenP2D=     888.
 LDataN:  DoStor=T MaxTD1= 4 Len=   56
 NBasis=    30 RedAO= T  NBF=    30
 NBsUse=    30 1.00D-06 NBFU=    30
 Defaulting to unpruned grid for atomic number  53.
 Initial guess read from the read-write file.
 B after Tr=     0.000000    0.000000    0.000000
         Rot=    1.000000    0.000000    0.000000    0.000000 Ang=   0.00 deg.
 Initial guess orbital symmetries:
 Alpha Orbitals:
       Occupied  (A) (A) (A) (A) (A) (A) (A) (A) (A) (A) (A) (A)
                 (A)
       Virtual   (A) (A) (A) (A) (A) (A) (A) (A) (A) (A) (A) (A)
                 (A) (A) (A) (A) (A)
 Beta  Orbitals:
       Occupied  (A) (A) (A) (A) (A) (A) (A) (A) (A) (A) (A) (A)
       Virtual   (A) (A) (A) (A) (A) (A) (A) (A) (A) (A) (A) (A)
                 (A) (A) (A) (A) (A) (A)
 Initial guess <Sx>= 0.0000 <Sy>= 0.0000 <Sz>= 0.5000 <S**2>= 0.7551 S= 0.5025
 Requested convergence on RMS density matrix=1.00D-08 within 128 cycles.
 Requested convergence on MAX density matrix=1.00D-06.
 Requested convergence on             energy=1.00D-06.
 No special actions if energy rises.
 Keep R1 and R2 ints in memory in canonical form, NReq=3548070.
 Defaulting to unpruned grid for atomic number  53.
 Defaulting to unpruned grid for atomic number  53.
 Defaulting to unpruned grid for atomic number  53.
 Defaulting to unpruned grid for atomic number  53.
 Error on total polarization charges =  0.05993
 SCF Done:  E(UM062X) =  -162.838527222     A.U. after   26 cycles
             Convg  =    0.5882D-09             -V/T =  2.0583
 <Sx>= 0.0000 <Sy>= 0.0000 <Sz>= 0.5000 <S**2>= 0.7551 S= 0.5025
 <L.S>= 0.000000000000E+00
 SMD-CDS (non-electrostatic) energy             (kcal/mol) =       0.96
 (included in total energy above)
 Annihilation of the first spin contaminant:
 S**2 before annihilation     0.7551,   after     0.7500
   1 Symmetry operations used in ECPInt.
 ECPInt:  NShTT=     171 NPrTT=    1054 LenC2=     172 LenP2D=     888.
 LDataN:  DoStor=T MaxTD1= 5 Len=  102
 D1PCM: PCM CHGder 1st derivatives, ID1Alg=3 FixD1E=F DoIter=F DoCFld=F I1PDM=0.
 Calling FoFJK, ICntrl=      2127 FMM=F ISym2X=0 I1Cent= 0 IOpClX= 1 NMat=1 NMatS=1 NMatT=0.
 Defaulting to unpruned grid for atomic number  53.
 Defaulting to unpruned grid for atomic number  53.
 Defaulting to unpruned grid for atomic number  53.
 Defaulting to unpruned grid for atomic number  53.
 ***** Axes restored to original set *****
 -------------------------------------------------------------------
 Center     Atomic                   Forces (Hartrees/Bohr)
 Number     Number              X              Y              Z
 -------------------------------------------------------------------
      1        8          -0.000454726    0.000116628   -0.000249293
      2        1           0.000430599   -0.000462820   -0.000153464
      3        8          -0.000444052    0.000434796    0.000176168
      4        1           0.000297887   -0.000137476   -0.000120046
      5       53           0.000170292    0.000048871    0.000346635
 -------------------------------------------------------------------
 Cartesian Forces:  Max     0.000462820 RMS     0.000305128

 GradGradGradGradGradGradGradGradGradGradGradGradGradGradGradGradGradGrad
 Berny optimization.
 Internal  Forces:  Max     0.001154122 RMS     0.000404863
 Search for a saddle point.
 Step number  20 out of a maximum of   20
 All quantities printed in internal units (Hartrees-Bohrs-Radians)
 Swaping is turned off.
 Update second derivatives using D2CorX and points   10   11   12   13   14
                                                     15   16   17   18   19
                                                     20
 The second derivative matrix:
                          R1        R2        R3        R4        R5
           R1           0.12096
           R2          -0.08725   0.15941
           R3           0.02711  -0.02020   0.16714
           R4           0.07371  -0.04827   0.02823   0.52772
           R5          -0.00270   0.00851  -0.00299  -0.01441   0.58787
           A1          -0.02770   0.04503  -0.00424  -0.02414   0.00338
           A2          -0.00167  -0.06166  -0.00772   0.00434  -0.00619
           A3           0.02410  -0.00534   0.01556  -0.00336  -0.00282
           A4          -0.07732  -0.05089  -0.03394  -0.01941   0.03054
           D1           0.00864  -0.01208  -0.00046   0.01078  -0.00028
                          A1        A2        A3        A4        D1
           A1           0.24395
           A2          -0.19318   0.17016
           A3          -0.13774   0.08233   0.09805
           A4           0.08950   0.01294  -0.12275   0.43373
           D1           0.00591   0.00218  -0.00080   0.00764  -0.00118
     Eigenvalues ---   -0.00776   0.00055   0.01230   0.02995   0.16424
     Eigenvalues ---    0.33580   0.40101   0.54495   0.598931000.00000
 Eigenvectors required to have negative eigenvalues:
                          A2        A1        D1        A3        R2
   1                    0.58518   0.55973  -0.50538   0.19664   0.18082
                          R1        R3        A4        R4        R5
   1                    0.13019   0.01787  -0.01414   0.00442   0.00252
 RFO step:  Lambda0=2.778473774D-05 Lambda=-6.91135380D-05.
 Linear search not attempted -- option 19 set.
 Maximum step size (   0.030) exceeded in Quadratic search.
    -- Step size scaled by   0.099
 Iteration  1 RMS(Cart)=  0.00439181 RMS(Int)=  0.00117476
 Iteration  2 RMS(Cart)=  0.00022029 RMS(Int)=  0.00000689
 Iteration  3 RMS(Cart)=  0.00000037 RMS(Int)=  0.00000689
 Variable       Old X    -DE/DX   Delta X   Delta X   Delta X     New X
                                 (Linear)    (Quad)   (Total)
    R1        3.31193   0.00022   0.00000  -0.00107  -0.00106   3.31088
    R2        5.16244   0.00007   0.00000  -0.00204  -0.00205   5.16039
    R3        3.67555  -0.00011   0.00000  -0.00021  -0.00021   3.67534
    R4        1.86020  -0.00023   0.00000  -0.00005  -0.00004   1.86016
    R5        1.84178  -0.00001   0.00000  -0.00009  -0.00009   1.84169
    A1        3.07815  -0.00115   0.00000  -0.00646  -0.00647   3.07168
    A2        3.10554   0.00020   0.00000  -0.00643  -0.00643   3.09912
    A3        1.82956   0.00027   0.00000  -0.00271  -0.00271   1.82685
    A4        1.91107   0.00027   0.00000   0.00099   0.00098   1.91206
    D1       -1.83466   0.00005   0.00000  -0.02834  -0.02834  -1.86300
         Item               Value     Threshold  Converged?
 Maximum Force            0.001154     0.000450     NO 
 RMS     Force            0.000405     0.000300     NO 
 Maximum Displacement     0.007716     0.001800     NO 
 RMS     Displacement     0.004439     0.001200     NO 
 Predicted change in Energy=-3.908075D-06
 Optimization stopped.
    -- Number of steps exceeded,  NStep=  20
    -- Flag reset to prevent archiving.
                           ----------------------------
                           ! Non-Optimized Parameters !
                           ! (Angstroms and Degrees)  !
 --------------------------                            --------------------------
 ! Name  Definition              Value          Derivative Info.                !
 --------------------------------------------------------------------------------
 ! R1    R(1,2)                  1.752          -DE/DX =    0.0002              !
 ! R2    R(1,3)                  2.7308         -DE/DX =    0.0001              !
 ! R3    R(1,5)                  1.9449         -DE/DX =   -0.0001              !
 ! R4    R(2,3)                  0.9844         -DE/DX =   -0.0002              !
 ! R5    R(3,4)                  0.9746         -DE/DX =    0.0                 !
 ! A1    A(2,1,5)              175.9945         -DE/DX =   -0.0012              !
 ! A2    A(3,1,5)              177.5664         -DE/DX =    0.0002              !
 ! A3    A(1,3,4)              104.6711         -DE/DX =    0.0003              !
 ! A4    A(2,3,4)              109.5527         -DE/DX =    0.0003              !
 ! D1    D(5,1,3,4)           -106.7421         -DE/DX =    0.0                 !
 --------------------------------------------------------------------------------
 GradGradGradGradGradGradGradGradGradGradGradGradGradGradGradGradGradGrad

                          Input orientation:                          
 ---------------------------------------------------------------------
 Center     Atomic      Atomic             Coordinates (Angstroms)
 Number     Number       Type             X           Y           Z
 ---------------------------------------------------------------------
      1          8           0       -1.738348    0.717838    0.266676
      2          1           0       -0.020070    0.682828   -0.076696
      3          8           0        0.951005    0.773538   -0.210039
      4          1           0        1.246383    1.638551    0.128199
      5         53           0       -3.641498    0.633902    0.659191
 ---------------------------------------------------------------------
                    Distance matrix (angstroms):
                    1          2          3          4          5
     1  O    0.000000
     2  H    1.752600   0.000000
     3  O    2.731845   0.984376   0.000000
     4  H    3.126580   1.599779   0.974628   0.000000
     5  I    1.945018   3.695763   4.676125   5.018232   0.000000
 Stoichiometry    H2IO2(2)
 Framework group  C1[X(H2IO2)]
 Deg. of freedom     9
 Full point group                 C1      NOp   1
 Largest Abelian subgroup         C1      NOp   1
 Largest concise Abelian subgroup C1      NOp   1
                         Standard orientation:                         
 ---------------------------------------------------------------------
 Center     Atomic      Atomic             Coordinates (Angstroms)
 Number     Number       Type             X           Y           Z
 ---------------------------------------------------------------------
      1          8           0       -1.076934   -0.024344    0.032266
      2          1           0       -2.825185   -0.145188    0.007347
      3          8           0       -3.807654   -0.087730   -0.013862
      4          1           0       -4.079077    0.848268   -0.002147
      5         53           0        0.867565    0.003651   -0.002876
 ---------------------------------------------------------------------
 Rotational constants (GHZ):    579.9795793      1.3772879      1.3741804

 **********************************************************************

            Population analysis using the SCF density.

 **********************************************************************

 Orbital symmetries:
 Alpha Orbitals:
       Occupied  (A) (A) (A) (A) (A) (A) (A) (A) (A) (A) (A) (A)
                 (A)
       Virtual   (A) (A) (A) (A) (A) (A) (A) (A) (A) (A) (A) (A)
                 (A) (A) (A) (A) (A)
 Beta  Orbitals:
       Occupied  (A) (A) (A) (A) (A) (A) (A) (A) (A) (A) (A) (A)
       Virtual   (A) (A) (A) (A) (A) (A) (A) (A) (A) (A) (A) (A)
                 (A) (A) (A) (A) (A) (A)
 The electronic state is 2-A.
 Alpha  occ. eigenvalues --  -19.69427 -19.61713  -1.12129  -1.10644  -0.75359
 Alpha  occ. eigenvalues --   -0.59934  -0.48634  -0.47927  -0.45132  -0.43214
 Alpha  occ. eigenvalues --   -0.38554  -0.33058  -0.31381
 Alpha virt. eigenvalues --   -0.04659   0.17069   0.30840   0.41218   0.41254
 Alpha virt. eigenvalues --    0.41528   0.63861   0.65170   0.72046   0.73404
 Alpha virt. eigenvalues --    0.78433   0.99251   1.05944   1.12179   1.29754
 Alpha virt. eigenvalues --    1.82192   9.09534
  Beta  occ. eigenvalues --  -19.68242 -19.61710  -1.11641  -1.06120  -0.73201
  Beta  occ. eigenvalues --   -0.59814  -0.46367  -0.42969  -0.42279  -0.38617
  Beta  occ. eigenvalues --   -0.36365  -0.30454
  Beta virt. eigenvalues --   -0.12417  -0.03482   0.17157   0.31050   0.41349
  Beta virt. eigenvalues --    0.41485   0.41683   0.65779   0.66831   0.72432
  Beta virt. eigenvalues --    0.76403   0.78605   0.99297   1.06258   1.12912
  Beta virt. eigenvalues --    1.32040   1.82659   9.09354
          Condensed to atoms (all electrons):
              1          2          3          4          5
     1  O    8.635024   0.026556  -0.017665   0.001530   0.059722
     2  H    0.026556   0.282916   0.283970  -0.030213   0.000038
     3  O   -0.017665   0.283970   8.338097   0.286734   0.000896
     4  H    0.001530  -0.030213   0.286734   0.315838  -0.000032
     5  I    0.059722   0.000038   0.000896  -0.000032   6.205051
 Mulliken atomic charges:
              1
     1  O   -0.705168
     2  H    0.436732
     3  O   -0.892032
     4  H    0.426143
     5  I    0.734325
 Sum of Mulliken atomic charges =   0.00000
 Mulliken charges with hydrogens summed into heavy atoms:
              1
     1  O   -0.705168
     3  O   -0.029157
     5  I    0.734325
 Sum of Mulliken charges with hydrogens summed into heavy atoms =   0.00000
          Atomic-Atomic Spin Densities.
              1          2          3          4          5
     1  O    0.776660  -0.005860   0.000778   0.000049  -0.099540
     2  H   -0.005860  -0.001555   0.002025  -0.000075   0.000128
     3  O    0.000778   0.002025  -0.001196   0.000028  -0.000058
     4  H    0.000049  -0.000075   0.000028  -0.000045   0.000004
     5  I   -0.099540   0.000128  -0.000058   0.000004   0.431178
 Mulliken atomic spin densities:
              1
     1  O    0.672086
     2  H   -0.005336
     3  O    0.001577
     4  H   -0.000038
     5  I    0.331712
 Sum of Mulliken atomic spin densities =   1.00000
 Electronic spatial extent (au):  <R**2>=            636.4747
 Charge=              0.0000 electrons
 Dipole moment (field-independent basis, Debye):
    X=              7.4928    Y=              2.3612    Z=             -0.0053  Tot=              7.8560
 Quadrupole moment (field-independent basis, Debye-Ang):
   XX=            -44.2916   YY=            -31.2894   ZZ=            -31.3417
   XY=             -9.8784   XZ=             -0.2509   YZ=             -0.1825
 Traceless Quadrupole moment (field-independent basis, Debye-Ang):
   XX=             -8.6507   YY=              4.3515   ZZ=              4.2992
   XY=             -9.8784   XZ=             -0.2509   YZ=             -0.1825
 Octapole moment (field-independent basis, Debye-Ang**2):
  XXX=            128.8909  YYY=              2.7427  ZZZ=             -0.1037  XYY=              9.8375
  XXY=             42.4605  XXZ=              0.8148  XZZ=             19.0510  YZZ=              0.5242
  YYZ=             -0.0583  XYZ=             -0.0121
 Hexadecapole moment (field-independent basis, Debye-Ang**3):
 XXXX=          -1009.3249 YYYY=            -45.5913 ZZZZ=            -41.1362 XXXY=           -179.3726
 XXXZ=             -4.3977 YYYX=            -10.4268 YYYZ=             -0.2012 ZZZX=             -0.4392
 ZZZY=             -0.2052 XXYY=           -111.0270 XXZZ=           -141.4444 YYZZ=            -14.6803
 XXYZ=             -0.4646 YYXZ=             -0.0752 ZZXY=             -1.8531
 N-N= 4.845684606099D+01 E-N=-7.110209078332D+02  KE= 2.296782642884D+02
                          Isotropic Fermi Contact Couplings
        Atom                 a.u.       MegaHertz       Gauss      10(-4) cm-1
     1  O(17)              0.09922     -60.14785     -21.46225     -20.06316
     2  H(1)              -0.00008      -0.33570      -0.11979      -0.11198
     3  O(17)             -0.00127       0.76956       0.27460       0.25670
     4  H(1)              -0.00005      -0.22440      -0.08007      -0.07485
     5  I(127)             0.00000       0.00106       0.00038       0.00035
 --------------------------------------------------------
       Center         ----  Spin Dipole Couplings  ----
                      3XX-RR        3YY-RR        3ZZ-RR
 --------------------------------------------------------
     1   Atom       -1.222323     -1.299415      2.521738
     2   Atom        0.033084     -0.018388     -0.014695
     3   Atom        0.004236     -0.008910      0.004674
     4   Atom        0.005924     -0.002510     -0.003413
     5   Atom       -0.009489     -0.032159      0.041648
 --------------------------------------------------------
                        XY            XZ            YZ
 --------------------------------------------------------
     1   Atom       -0.005914      0.067973     -0.312192
     2   Atom        0.003652      0.000388     -0.000302
     3   Atom        0.000370     -0.001818     -0.001002
     4   Atom       -0.002817      0.000034     -0.000022
     5   Atom        0.000259      0.000951     -0.006027
 --------------------------------------------------------


 ---------------------------------------------------------------------------------
              Anisotropic Spin Dipole Couplings in Principal Axis System
 ---------------------------------------------------------------------------------

       Atom             a.u.   MegaHertz   Gauss  10(-4) cm-1        Axes

              Baa    -1.3248    95.858    34.205    31.975  0.0039  0.9967  0.0808
     1 O(17)  Bbb    -1.2236    88.536    31.592    29.532  0.9998 -0.0024 -0.0183
              Bcc     2.5483  -184.394   -65.796   -61.507  0.0181 -0.0809  0.9966
 
              Baa    -0.0187    -9.963    -3.555    -3.323 -0.0708  0.9941  0.0823
     2 H(1)   Bbb    -0.0147    -7.828    -2.793    -2.611 -0.0018 -0.0827  0.9966
              Bcc     0.0333    17.791     6.348     5.934  0.9975  0.0704  0.0076
 
              Baa    -0.0090     0.650     0.232     0.217 -0.0182  0.9973  0.0707
     3 O(17)  Bbb     0.0026    -0.191    -0.068    -0.064  0.7538 -0.0328  0.6563
              Bcc     0.0064    -0.460    -0.164    -0.153 -0.6569 -0.0652  0.7511
 
              Baa    -0.0034    -1.823    -0.650    -0.608  0.0589  0.2071  0.9765
     4 H(1)   Bbb    -0.0034    -1.794    -0.640    -0.598  0.2842  0.9343 -0.2153
              Bcc     0.0068     3.616     1.290     1.206  0.9570 -0.2902  0.0038
 
              Baa    -0.0327    -3.510    -1.252    -1.171 -0.0145  0.9966  0.0810
     5 I(127) Bbb    -0.0095    -1.021    -0.364    -0.341  0.9997  0.0159 -0.0167
              Bcc     0.0422     4.531     1.617     1.511  0.0180 -0.0808  0.9966
 

 ---------------------------------------------------------------------------------



 FORGIVE MY NONSENSE AS I ALSO FORGIVE THOSE WHO THINK THEY TALK SENSE

                                                       -- ROBERT FROST
 Error termination request processed by link 9999.
 Error termination via Lnk1e in C:\G09W\l9999.exe at Tue Feb 02 04:52:38 2021.
 Job cpu time:  0 days  0 hours  3 minutes 52.0 seconds.
 File lengths (MBytes):  RWF=     18 Int=      0 D2E=      0 Chk=      2 Scr=      1
