 Entering Link 1 = C:\G09W\l1.exe PID=     11900.
  
 Copyright (c) 1988,1990,1992,1993,1995,1998,2003,2009, Gaussian, Inc.
                  All Rights Reserved.
  
 This is part of the Gaussian(R) 09 program.  It is based on
 the Gaussian(R) 03 system (copyright 2003, Gaussian, Inc.),
 the Gaussian(R) 98 system (copyright 1998, Gaussian, Inc.),
 the Gaussian(R) 94 system (copyright 1995, Gaussian, Inc.),
 the Gaussian 92(TM) system (copyright 1992, Gaussian, Inc.),
 the Gaussian 90(TM) system (copyright 1990, Gaussian, Inc.),
 the Gaussian 88(TM) system (copyright 1988, Gaussian, Inc.),
 the Gaussian 86(TM) system (copyright 1986, Carnegie Mellon
 University), and the Gaussian 82(TM) system (copyright 1983,
 Carnegie Mellon University). Gaussian is a federally registered
 trademark of Gaussian, Inc.
  
 This software contains proprietary and confidential information,
 including trade secrets, belonging to Gaussian, Inc.
  
 This software is provided under written license and may be
 used, copied, transmitted, or stored only in accord with that
 written license.
  
 The following legend is applicable only to US Government
 contracts under FAR:
  
                    RESTRICTED RIGHTS LEGEND
  
 Use, reproduction and disclosure by the US Government is
 subject to restrictions as set forth in subparagraphs (a)
 and (c) of the Commercial Computer Software - Restricted
 Rights clause in FAR 52.227-19.
  
 Gaussian, Inc.
 340 Quinnipiac St., Bldg. 40, Wallingford CT 06492
  
  
 ---------------------------------------------------------------
 Warning -- This program may not be used in any manner that
 competes with the business of Gaussian, Inc. or will provide
 assistance to any competitor of Gaussian, Inc.  The licensee
 of this program is prohibited from giving any competitor of
 Gaussian, Inc. access to this program.  By using this program,
 the user acknowledges that Gaussian, Inc. is engaged in the
 business of creating and licensing software in the field of
 computational chemistry and represents and warrants to the
 licensee that it is not a competitor of Gaussian, Inc. and that
 it will not use this program in any manner prohibited above.
 ---------------------------------------------------------------
  

 Cite this work as:
 Gaussian 09, Revision A.02,
 M. J. Frisch, G. W. Trucks, H. B. Schlegel, G. E. Scuseria, 
 M. A. Robb, J. R. Cheeseman, G. Scalmani, V. Barone, B. Mennucci, 
 G. A. Petersson, H. Nakatsuji, M. Caricato, X. Li, H. P. Hratchian, 
 A. F. Izmaylov, J. Bloino, G. Zheng, J. L. Sonnenberg, M. Hada, 
 M. Ehara, K. Toyota, R. Fukuda, J. Hasegawa, M. Ishida, T. Nakajima, 
 Y. Honda, O. Kitao, H. Nakai, T. Vreven, J. A. Montgomery, Jr., 
 J. E. Peralta, F. Ogliaro, M. Bearpark, J. J. Heyd, E. Brothers, 
 K. N. Kudin, V. N. Staroverov, R. Kobayashi, J. Normand, 
 K. Raghavachari, A. Rendell, J. C. Burant, S. S. Iyengar, J. Tomasi, 
 M. Cossi, N. Rega, J. M. Millam, M. Klene, J. E. Knox, J. B. Cross, 
 V. Bakken, C. Adamo, J. Jaramillo, R. Gomperts, R. E. Stratmann, 
 O. Yazyev, A. J. Austin, R. Cammi, C. Pomelli, J. W. Ochterski, 
 R. L. Martin, K. Morokuma, V. G. Zakrzewski, G. A. Voth, 
 P. Salvador, J. J. Dannenberg, S. Dapprich, A. D. Daniels, 
 O. Farkas, J. B. Foresman, J. V. Ortiz, J. Cioslowski, 
 and D. J. Fox, Gaussian, Inc., Wallingford CT, 2009.
 
 ******************************************
 Gaussian 09:  IA32W-G09RevA.02 11-Jun-2009
                02-Feb-2021 
 ******************************************
 %chk=D:\Documents\rayGit\FQ\quimicaComputacional\proyecto\decompositionHydrogenP
 eroxide\decompositionCatalyzedByIodine\step1\ts\ts.chk
 %mem=1500MB
 %nprocshared=4
 Will use up to    4 processors via shared memory.
 ----------------------------------------------------------------------
 # opt=(calcfc,ts,noeigen) freq=noraman lanl2dz scrf=smd iop(1/8=3) m06
 2x
 ----------------------------------------------------------------------
 1/5=1,8=3,10=4,11=1,14=-1,18=20,26=3,38=1/1,3;
 2/9=110,12=2,17=6,18=5,40=1/2;
 3/5=6,6=3,11=2,16=1,25=1,30=1,70=32201,71=2,72=1,74=-55/1,2,3;
 4//1;
 5/5=2,38=5/2;
 8/6=4,10=90,11=11/1;
 11/6=1,8=1,9=11,15=111,16=1/1,2,10;
 10/6=1,7=6,13=1/2;
 6/7=2,8=2,9=2,10=2,28=1/1;
 7/10=1,18=20,25=1/1,2,3,16;
 1/5=1,8=3,10=4,11=1,14=-1,18=20/3(2);
 2/9=110/2;
 99//99;
 2/9=110/2;
 3/5=6,6=3,11=2,16=1,25=1,30=1,70=32205,71=1,74=-55/1,2,3;
 4/5=5,16=3/1;
 5/5=2,38=5/2;
 7//1,2,3,16;
 1/5=1,8=3,11=1,14=-1,18=20/3(-5);
 2/9=110/2;
 6/7=2,8=2,9=2,10=2,19=2,28=1/1;
 99/9=1/99;
 -----------------------------
 Hydrogen peroxide with iodine
 -----------------------------
 Symbolic Z-matrix:
 Charge = -1 Multiplicity = 1
 O                    -1.44958   0.70831  -0.03651 
 H                    -0.397     0.70831  -0.79944 
 O                     0.52544   0.70831   0.27859 
 H                     0.84544   1.61341   0.27859 
 I                    -3.18163   0.70831   0.96349 
 

 GradGradGradGradGradGradGradGradGradGradGradGradGradGradGradGradGradGrad
 Berny optimization.
 Initialization pass.
                           ----------------------------
                           !    Initial Parameters    !
                           ! (Angstroms and Degrees)  !
 --------------------------                            --------------------------
 ! Name  Definition              Value          Derivative Info.                !
 --------------------------------------------------------------------------------
 ! R1    R(1,2)                  1.3            calculate D2E/DX2 analytically  !
 ! R2    R(1,5)                  2.0            calculate D2E/DX2 analytically  !
 ! R3    R(2,3)                  1.4188         calculate D2E/DX2 analytically  !
 ! R4    R(3,4)                  0.96           calculate D2E/DX2 analytically  !
 ! A1    A(2,1,5)              174.0647         calculate D2E/DX2 analytically  !
 ! A2    A(1,2,3)               94.6173         calculate D2E/DX2 analytically  !
 ! A3    A(2,3,4)              102.5162         calculate D2E/DX2 analytically  !
 ! D1    D(5,1,2,3)            180.0            calculate D2E/DX2 analytically  !
 ! D2    D(1,2,3,4)           -105.0366         calculate D2E/DX2 analytically  !
 --------------------------------------------------------------------------------
 Trust Radius=3.00D-02 FncErr=1.00D-07 GrdErr=1.00D-06
 Number of steps in this run=  20 maximum allowed number of steps= 100.
 Search for a saddle point of order  1.
 GradGradGradGradGradGradGradGradGradGradGradGradGradGradGradGradGradGrad

                          Input orientation:                          
 ---------------------------------------------------------------------
 Center     Atomic      Atomic             Coordinates (Angstroms)
 Number     Number       Type             X           Y           Z
 ---------------------------------------------------------------------
      1          8           0       -1.449584    0.708312   -0.036510
      2          1           0       -0.397000    0.708312   -0.799443
      3          8           0        0.525438    0.708312    0.278589
      4          1           0        0.845438    1.613409    0.278589
      5         53           0       -3.181635    0.708312    0.963490
 ---------------------------------------------------------------------
                    Distance matrix (angstroms):
                    1          2          3          4          5
     1  O    0.000000
     2  H    1.300000   0.000000
     3  O    2.000000   1.418818   0.000000
     4  H    2.487090   1.877500   0.960000   0.000000
     5  I    2.000000   3.295774   3.769812   4.183970   0.000000
 Stoichiometry    H2IO2(1-)
 Framework group  C1[X(H2IO2)]
 Deg. of freedom     9
 Full point group                 C1      NOp   1
 Largest Abelian subgroup         C1      NOp   1
 Largest concise Abelian subgroup C1      NOp   1
                         Standard orientation:                         
 ---------------------------------------------------------------------
 Center     Atomic      Atomic             Coordinates (Angstroms)
 Number     Number       Type             X           Y           Z
 ---------------------------------------------------------------------
      1          8           0        1.183968    0.496902    0.013724
      2          1           0        2.393444    0.972935    0.037397
      3          8           0        3.017154   -0.292245   -0.115411
      4          1           0        3.347990   -0.469187    0.768240
      5         53           0       -0.742460   -0.040396    0.000148
 ---------------------------------------------------------------------
 Rotational constants (GHZ):     67.6988791      1.9972297      1.9514128
 Standard basis: LANL2DZ (5D, 7F)
 There are    30 symmetry adapted basis functions of A   symmetry.
 Integral buffers will be    262144 words long.
 Raffenetti 2 integral format.
 Two-electron integral symmetry is turned on.
    30 basis functions,    70 primitive gaussians,    30 cartesian basis functions
    13 alpha electrons       13 beta electrons
       nuclear repulsion energy        54.2548179603 Hartrees.
 NAtoms=    5 NActive=    5 NUniq=    5 SFac= 7.50D-01 NAtFMM=   80 NAOKFM=F Big=F
 ------------------------------------------------------------------------------
 Polarizable Continuum Model (PCM)
 =================================
 Model                : PCM.
 Atomic radii         : SMD-Coulomb.
 Polarization charges : Total charges.
 Charge compensation  : None.
 Solution method      : Matrix inversion.
 Cavity type          : VdW (van der Waals Surface) (Alpha=1.000).
 Cavity algorithm     : GePol (No added spheres)
                        Default sphere list used, NSphG=    5.
                        Lebedev-Laikov grids with approx.  5.0 points / Ang**2.
                        Smoothing algorithm: Karplus/York (Gamma=1.0000).
                        Polarization charges: spherical gaussians, with
                                              point-specific exponents (IZeta= 3).
                        Self-potential: point-specific (ISelfS= 7).
                        Self-field    : sphere-specific E.n sum rule (ISelfD= 2).
 1st derivatives      : Analytical E(r).r(x)/FMM algorithm (CHGder, D1EAlg=3).
                        Cavity 1st derivative terms included.
 2nd derivatives      : Analytical E(r).r(xy)/FMM algorithm (CHGder, D2EAlg=3).
                        Cavity 2nd derivative terms included.
 Solvent              : Water, Eps=  78.355300 Eps(inf)=   1.777849
 ------------------------------------------------------------------------------
 Spheres list:
 ISph  on   Nord    Re0     Alpha      Xe            Ye            Ze
    1   O      1    1.520   1.000      1.183968      0.496902      0.013724
    2   H      2    1.200   1.000      2.393444      0.972935      0.037397
    3   O      3    1.520   1.000      3.017154     -0.292245     -0.115411
    4   H      4    1.200   1.000      3.347990     -0.469187      0.768240
    5   I      5    1.980   1.000     -0.742460     -0.040396      0.000148
 ------------------------------------------------------------------------------
 ------------------------------------------------------------------------------
 Atomic radii for non-electrostatic terms: SMD-CDS.
 ------------------------------------------------------------------------------
 Nuclear repulsion after PCM non-electrostatic terms =       54.2567545628 Hartrees.
 One-electron integrals computed using PRISM.
   1 Symmetry operations used in ECPInt.
 ECPInt:  NShTT=     171 NPrTT=    1054 LenC2=     172 LenP2D=     930.
 LDataN:  DoStor=T MaxTD1= 4 Len=   56
 NBasis=    30 RedAO= T  NBF=    30
 NBsUse=    30 1.00D-06 NBFU=    30
 Defaulting to unpruned grid for atomic number  53.
 Harris functional with IExCor= 1009 diagonalized for initial guess.
 ExpMin= 1.05D-01 ExpMax= 7.82D+03 ExpMxC= 2.73D+02 IAcc=1 IRadAn=         1 AccDes= 0.00D+00
 HarFok:  IExCor= 1009 AccDes= 0.00D+00 IRadAn=         1 IDoV= 1
 ScaDFX=  1.000000  1.000000  1.000000  1.000000
 Defaulting to unpruned grid for atomic number  53.
 Defaulting to unpruned grid for atomic number  53.
 Defaulting to unpruned grid for atomic number  53.
 Defaulting to unpruned grid for atomic number  53.
 FoFCou: FMM=F IPFlag=           0 FMFlag=      100000 FMFlg1=           0
         NFxFlg=           0 DoJE=T BraDBF=F KetDBF=T FulRan=T
         Omega=  0.000000  0.000000  1.000000  0.000000  0.000000 ICntrl=     500 IOpCl=  0
         NMat0=    1 NMatS0=    1 NMatT0=    0 NMatD0=    1 NMtDS0=    0 NMtDT0=    0
         I1Cent=           4 NGrid=           0.
 Petite list used in FoFCou.
 Initial guess orbital symmetries:
       Occupied  (A) (A) (A) (A) (A) (A) (A) (A) (A) (A) (A) (A)
                 (A)
       Virtual   (A) (A) (A) (A) (A) (A) (A) (A) (A) (A) (A) (A)
                 (A) (A) (A) (A) (A)
 The electronic state of the initial guess is 1-A.
 Requested convergence on RMS density matrix=1.00D-08 within 128 cycles.
 Requested convergence on MAX density matrix=1.00D-06.
 Requested convergence on             energy=1.00D-06.
 No special actions if energy rises.
 Keep R1 ints in memory in canonical form, NReq=3419783.
 Defaulting to unpruned grid for atomic number  53.
 Defaulting to unpruned grid for atomic number  53.
 Defaulting to unpruned grid for atomic number  53.
 Defaulting to unpruned grid for atomic number  53.
 Error on total polarization charges =  0.07838
 SCF Done:  E(RM062X) =  -162.918081456     A.U. after   14 cycles
             Convg  =    0.3781D-08             -V/T =  2.0572
 SMD-CDS (non-electrostatic) energy             (kcal/mol) =       1.22
 (included in total energy above)
 Range of M.O.s used for correlation:     1    30
 NBasis=    30 NAE=    13 NBE=    13 NFC=     0 NFV=     0
 NROrb=     30 NOA=    13 NOB=    13 NVA=    17 NVB=    17
   1 Symmetry operations used in ECPInt.
 ECPInt:  NShTT=     171 NPrTT=    1054 LenC2=     172 LenP2D=     930.
 LDataN:  DoStor=T MaxTD1= 5 Len=  102
 Symmetrizing basis deriv contribution to polar:
 IMax=3 JMax=2 DiffMx= 0.00D+00
 G2DrvN: will do     6 centers at a time, making    1 passes doing MaxLOS=1.
 Calling FoFCou, ICntrl=  3107 FMM=F I1Cent=   0 AccDes= 0.00D+00.
 Defaulting to unpruned grid for atomic number  53.
 Defaulting to unpruned grid for atomic number  53.
 Defaulting to unpruned grid for atomic number  53.
 Defaulting to unpruned grid for atomic number  53.
 FoFDir/FoFCou used for L=0 through L=1.
 G2PCM: DoFxE=T DoFxN=T DoGrad=T DoPD/DQ/DG=FFF NFrqRd=   0 IEInf=0 DoCFld=F IF1Alg=4.
 End of G2Drv Frequency-dependent properties file   721 does not exist.
 End of G2Drv Frequency-dependent properties file   722 does not exist.
          IDoAtm=11111
 NEqPCM:  Using equilibrium solvation (IEInf=0, Eps=  78.3553, EpsInf=   1.7778)
          Differentiating once with respect to nuclear coordinates.
 Defaulting to unpruned grid for atomic number  53.
          Keep R1 ints in memory in canonical form, NReq=909358.
 Defaulting to unpruned grid for atomic number  53.
 Defaulting to unpruned grid for atomic number  53.
 Defaulting to unpruned grid for atomic number  53.
 Defaulting to unpruned grid for atomic number  53.
          There are    18 degrees of freedom in the 1st order CPHF.  IDoFFX=5.
     12 vectors produced by pass  0 Test12= 1.23D-11 5.56D-07 XBig12= 1.23D-01 2.39D-01.
 AX will form    12 AO Fock derivatives at one time.
     12 vectors produced by pass  1 Test12= 1.23D-11 5.56D-07 XBig12= 1.48D-02 3.56D-02.
     12 vectors produced by pass  2 Test12= 1.23D-11 5.56D-07 XBig12= 8.90D-04 1.12D-02.
     12 vectors produced by pass  3 Test12= 1.23D-11 5.56D-07 XBig12= 5.53D-06 8.88D-04.
      8 vectors produced by pass  4 Test12= 1.23D-11 5.56D-07 XBig12= 7.57D-09 2.52D-05.
      1 vectors produced by pass  5 Test12= 1.23D-11 5.56D-07 XBig12= 2.19D-11 1.15D-06.
 Inverted reduced A of dimension    57 with in-core refinement.
 End of Minotr Frequency-dependent properties file   721 does not exist.
 End of Minotr Frequency-dependent properties file   722 does not exist.

 **********************************************************************

            Population analysis using the SCF density.

 **********************************************************************

 Orbital symmetries:
       Occupied  (A) (A) (A) (A) (A) (A) (A) (A) (A) (A) (A) (A)
                 (A)
       Virtual   (A) (A) (A) (A) (A) (A) (A) (A) (A) (A) (A) (A)
                 (A) (A) (A) (A) (A)
 The electronic state is 1-A.
 Alpha  occ. eigenvalues --  -19.57850 -19.57646  -1.05044  -0.98515  -0.69855
 Alpha  occ. eigenvalues --   -0.50829  -0.44220  -0.38626  -0.36402  -0.33450
 Alpha  occ. eigenvalues --   -0.29178  -0.26028  -0.23625
 Alpha virt. eigenvalues --   -0.01234   0.15491   0.22111   0.43055   0.43574
 Alpha virt. eigenvalues --    0.43631   0.68696   0.75699   0.77691   0.80242
 Alpha virt. eigenvalues --    0.86422   0.88380   1.07733   1.19578   1.41601
 Alpha virt. eigenvalues --    1.60258   9.17962
          Condensed to atoms (all electrons):
              1          2          3          4          5
     1  O    9.264741   0.053451  -0.228402   0.007381  -0.102182
     2  H    0.053451   0.324908   0.182643  -0.014595   0.009509
     3  O   -0.228402   0.182643   8.672432   0.261905   0.029608
     4  H    0.007381  -0.014595   0.261905   0.375056  -0.001595
     5  I   -0.102182   0.009509   0.029608  -0.001595   6.967418
 Mulliken atomic charges:
              1
     1  O   -0.994989
     2  H    0.444084
     3  O   -0.918185
     4  H    0.371848
     5  I    0.097242
 Sum of Mulliken atomic charges =  -1.00000
 Mulliken charges with hydrogens summed into heavy atoms:
              1
     1  O   -0.550905
     3  O   -0.546337
     5  I    0.097242
 Sum of Mulliken charges with hydrogens summed into heavy atoms =  -1.00000
 APT atomic charges:
              1
     1  O   -0.728968
     2  H    0.495445
     3  O   -1.484989
     4  H    0.640531
     5  I    0.077980
 Sum of APT charges=  -1.00000
 APT Atomic charges with hydrogens summed into heavy atoms:
              1
     1  O   -0.233523
     2  H    0.000000
     3  O   -0.844458
     4  H    0.000000
     5  I    0.077980
 Sum of APT charges=  -1.00000
 Electronic spatial extent (au):  <R**2>=            479.2588
 Charge=             -1.0000 electrons
 Dipole moment (field-independent basis, Debye):
    X=             -6.4376    Y=              0.6056    Z=              2.4244  Tot=              6.9056
 Quadrupole moment (field-independent basis, Debye-Ang):
   XX=            -49.0896   YY=            -35.0239   ZZ=            -35.1666
   XY=              4.5206   XZ=              8.1579   YZ=             -1.0191
 Traceless Quadrupole moment (field-independent basis, Debye-Ang):
   XX=             -9.3296   YY=              4.7361   ZZ=              4.5935
   XY=              4.5206   XZ=              8.1579   YZ=             -1.0191
 Octapole moment (field-independent basis, Debye-Ang**2):
  XXX=            -87.0965  YYY=             -1.3150  ZZZ=              2.0429  XYY=            -11.3887
  XXY=              7.7716  XXZ=             27.2297  XZZ=            -10.4218  YZZ=             -1.3808
  YYZ=              0.9872  XYZ=             -3.4338
 Hexadecapole moment (field-independent basis, Debye-Ang**3):
 XXXX=           -679.9197 YYYY=            -67.5437 ZZZZ=            -53.7116 XXXY=             33.8076
 XXXZ=             93.4200 YYYX=              7.2607 YYYZ=             -0.7226 ZZZX=              7.0868
 ZZZY=             -1.0003 XXYY=            -97.8151 XXZZ=            -94.7873 YYZZ=            -20.4527
 XXYZ=            -11.3601 YYXZ=              3.2710 ZZXY=             -0.6462
 N-N= 5.425675456279D+01 E-N=-4.964555234885D+02  KE= 1.540988742908D+02
  Exact polarizability:   0.000   0.000   0.000   0.000   0.000   0.000
 Approx polarizability:  91.425   4.059  14.449   0.178   0.304   7.896
   1 Symmetry operations used in ECPInt.
 ECPInt:  NShTT=     171 NPrTT=    1054 LenC2=     172 LenP2D=    1039.
 LDataN:  DoStor=T MaxTD1= 6 Len=  172
 D2PCM: PCM CHGder 2nd derivatives, FixD1E=F FixD2E=F DoIter=F DoCFld=F I1PDM=0
 Calling FoFJK, ICntrl=    100147 FMM=F ISym2X=0 I1Cent= 0 IOpClX= 0 NMat=1 NMatS=1 NMatT=0.
 Defaulting to unpruned grid for atomic number  53.
 Defaulting to unpruned grid for atomic number  53.
 Defaulting to unpruned grid for atomic number  53.
 Defaulting to unpruned grid for atomic number  53.
 ***** Axes restored to original set *****
 -------------------------------------------------------------------
 Center     Atomic                   Forces (Hartrees/Bohr)
 Number     Number              X              Y              Z
 -------------------------------------------------------------------
      1        8          -0.021075791    0.001789898   -0.023884198
      2        1           0.013142215   -0.001251375    0.074940679
      3        8           0.035157979   -0.021975130   -0.053985048
      4        1           0.008259432    0.022170012    0.000827076
      5       53          -0.035483834   -0.000733404    0.002101491
 -------------------------------------------------------------------
 Cartesian Forces:  Max     0.074940679 RMS     0.029738953

 GradGradGradGradGradGradGradGradGradGradGradGradGradGradGradGradGradGrad
 Berny optimization.
 Internal  Forces:  Max     0.181890332 RMS     0.066113133
 Search for a saddle point.
 Step number   1 out of a maximum of   20
 All quantities printed in internal units (Hartrees-Bohrs-Radians)
 Swaping is turned off.
 Second derivative matrix not updated -- analytic derivatives used.
 The second derivative matrix:
                          R1        R2        R3        R4        A1
           R1           0.06734
           R2           0.02206   0.16452
           R3           0.13489   0.03791   0.03273
           R4           0.00099   0.00003  -0.00265   0.57896
           A1          -0.04618   0.04047   0.00024  -0.00402  -0.04157
           A2           0.12049   0.10529   0.11367   0.00181  -0.05867
           A3           0.00760   0.00849   0.01331   0.01009  -0.00313
           D1          -0.00008  -0.00037   0.00011  -0.00034   0.00342
           D2           0.00136  -0.00370  -0.00353   0.00933  -0.00503
                          A2        A3        D1        D2
           A2           0.35372
           A3          -0.00154   0.08502
           D1          -0.00056  -0.00075   0.00556
           D2           0.00413   0.01039   0.00071  -0.00909
     Eigenvalues ---   -0.10561  -0.04858  -0.01051   0.00573   0.06931
     Eigenvalues ---    0.09684   0.15205   0.49857   0.57939
 Eigenvectors required to have negative eigenvalues:
                          R3        R1        A1        A2        R2
   1                    0.60795  -0.56532  -0.54322  -0.08973   0.07847
                          A3        D1        D2        R4
   1                   -0.03368   0.01522   0.01218   0.00055
 RFO step:  Lambda0=6.895684985D-04 Lambda=-1.14439775D-01.
 Linear search not attempted -- option 19 set.
 Maximum step size (   0.030) exceeded in Quadratic search.
    -- Step size scaled by   0.029
 Iteration  1 RMS(Cart)=  0.02471366 RMS(Int)=  0.00031796
 Iteration  2 RMS(Cart)=  0.00027934 RMS(Int)=  0.00000004
 Iteration  3 RMS(Cart)=  0.00000002 RMS(Int)=  0.00000000
 Variable       Old X    -DE/DX   Delta X   Delta X   Delta X     New X
                                 (Linear)    (Quad)   (Total)
    R1        2.45664   0.03326   0.00000   0.00196   0.00196   2.45860
    R2        3.77945   0.03188   0.00000   0.00464   0.00464   3.78409
    R3        2.68118  -0.01257   0.00000  -0.01356  -0.01356   2.66761
    R4        1.81414   0.02371   0.00000   0.00088   0.00088   1.81502
    A1        3.03800  -0.05840   0.00000  -0.02274  -0.02274   3.01526
    A2        1.65138   0.18189   0.00000   0.01012   0.01012   1.66150
    A3        1.78924   0.00110   0.00000   0.00122   0.00122   1.79046
    D1        3.14159   0.00027   0.00000   0.00125   0.00125  -3.14034
    D2       -1.83323  -0.00002   0.00000  -0.00821  -0.00821  -1.84144
         Item               Value     Threshold  Converged?
 Maximum Force            0.181890     0.000450     NO 
 RMS     Force            0.066113     0.000300     NO 
 Maximum Displacement     0.036752     0.001800     NO 
 RMS     Displacement     0.024602     0.001200     NO 
 Predicted change in Energy=-3.567048D-03
 GradGradGradGradGradGradGradGradGradGradGradGradGradGradGradGradGradGrad

                          Input orientation:                          
 ---------------------------------------------------------------------
 Center     Atomic      Atomic             Coordinates (Angstroms)
 Number     Number       Type             X           Y           Z
 ---------------------------------------------------------------------
      1          8           0       -1.449684    0.709295   -0.018328
      2          1           0       -0.400301    0.714117   -0.787396
      3          8           0        0.533871    0.708549    0.270914
      4          1           0        0.859855    1.611994    0.267087
      5         53           0       -3.201083    0.702702    0.952438
 ---------------------------------------------------------------------
                    Distance matrix (angstroms):
                    1          2          3          4          5
     1  O    0.000000
     2  H    1.301036   0.000000
     3  O    2.004532   1.411640   0.000000
     4  H    2.496056   1.872461   0.960466   0.000000
     5  I    2.002456   3.297201   3.796629   4.217551   0.000000
 Stoichiometry    H2IO2(1-)
 Framework group  C1[X(H2IO2)]
 Deg. of freedom     9
 Full point group                 C1      NOp   1
 Largest Abelian subgroup         C1      NOp   1
 Largest concise Abelian subgroup C1      NOp   1
                         Standard orientation:                         
 ---------------------------------------------------------------------
 Center     Atomic      Atomic             Coordinates (Angstroms)
 Number     Number       Type             X           Y           Z
 ---------------------------------------------------------------------
      1          8           0        1.188131    0.475263    0.013018
      2          1           0        2.393552    0.964082    0.039723
      3          8           0        3.039997   -0.281241   -0.115221
      4          1           0        3.379535   -0.451979    0.766854
      5         53           0       -0.747134   -0.038949    0.000208
 ---------------------------------------------------------------------
 Rotational constants (GHZ):     72.4352077      1.9705022      1.9294374
 Standard basis: LANL2DZ (5D, 7F)
 There are    30 symmetry adapted basis functions of A   symmetry.
 Integral buffers will be    262144 words long.
 Raffenetti 2 integral format.
 Two-electron integral symmetry is turned on.
    30 basis functions,    70 primitive gaussians,    30 cartesian basis functions
    13 alpha electrons       13 beta electrons
       nuclear repulsion energy        54.1403851899 Hartrees.
 NAtoms=    5 NActive=    5 NUniq=    5 SFac= 7.50D-01 NAtFMM=   80 NAOKFM=F Big=F
 ------------------------------------------------------------------------------
 Polarizable Continuum Model (PCM)
 =================================
 Model                : PCM.
 Atomic radii         : SMD-Coulomb.
 Polarization charges : Total charges.
 Charge compensation  : None.
 Solution method      : Matrix inversion.
 Cavity type          : VdW (van der Waals Surface) (Alpha=1.000).
 Cavity algorithm     : GePol (No added spheres)
                        Default sphere list used, NSphG=    5.
                        Lebedev-Laikov grids with approx.  5.0 points / Ang**2.
                        Smoothing algorithm: Karplus/York (Gamma=1.0000).
                        Polarization charges: spherical gaussians, with
                                              point-specific exponents (IZeta= 3).
                        Self-potential: point-specific (ISelfS= 7).
                        Self-field    : sphere-specific E.n sum rule (ISelfD= 2).
 1st derivatives      : Analytical E(r).r(x)/FMM algorithm (CHGder, D1EAlg=3).
                        Cavity 1st derivative terms included.
 Solvent              : Water, Eps=  78.355300 Eps(inf)=   1.777849
 ------------------------------------------------------------------------------
 Spheres list:
 ISph  on   Nord    Re0     Alpha      Xe            Ye            Ze
    1   O      1    1.520   1.000      1.188131      0.475263      0.013018
    2   H      2    1.200   1.000      2.393552      0.964082      0.039723
    3   O      3    1.520   1.000      3.039997     -0.281241     -0.115221
    4   H      4    1.200   1.000      3.379535     -0.451979      0.766854
    5   I      5    1.980   1.000     -0.747134     -0.038949      0.000208
 ------------------------------------------------------------------------------
 ------------------------------------------------------------------------------
 Atomic radii for non-electrostatic terms: SMD-CDS.
 ------------------------------------------------------------------------------
 Nuclear repulsion after PCM non-electrostatic terms =       54.1423164182 Hartrees.
 One-electron integrals computed using PRISM.
   1 Symmetry operations used in ECPInt.
 ECPInt:  NShTT=     171 NPrTT=    1054 LenC2=     172 LenP2D=     929.
 LDataN:  DoStor=T MaxTD1= 4 Len=   56
 NBasis=    30 RedAO= T  NBF=    30
 NBsUse=    30 1.00D-06 NBFU=    30
 Defaulting to unpruned grid for atomic number  53.
 Initial guess read from the read-write file.
 B after Tr=     0.000000    0.000000    0.000000
         Rot=    1.000000    0.000000    0.000000    0.000000 Ang=   0.00 deg.
 Initial guess orbital symmetries:
       Occupied  (A) (A) (A) (A) (A) (A) (A) (A) (A) (A) (A) (A)
                 (A)
       Virtual   (A) (A) (A) (A) (A) (A) (A) (A) (A) (A) (A) (A)
                 (A) (A) (A) (A) (A)
 Harris functional with IExCor= 1009 diagonalized for initial guess.
 ExpMin= 1.05D-01 ExpMax= 7.82D+03 ExpMxC= 2.73D+02 IAcc=1 IRadAn=         1 AccDes= 0.00D+00
 HarFok:  IExCor= 1009 AccDes= 0.00D+00 IRadAn=         1 IDoV= 1
 ScaDFX=  1.000000  1.000000  1.000000  1.000000
 Defaulting to unpruned grid for atomic number  53.
 Defaulting to unpruned grid for atomic number  53.
 Defaulting to unpruned grid for atomic number  53.
 Defaulting to unpruned grid for atomic number  53.
 FoFCou: FMM=F IPFlag=           0 FMFlag=      100000 FMFlg1=           0
         NFxFlg=           0 DoJE=T BraDBF=F KetDBF=T FulRan=T
         Omega=  0.000000  0.000000  1.000000  0.000000  0.000000 ICntrl=     500 IOpCl=  0
         NMat0=    1 NMatS0=    1 NMatT0=    0 NMatD0=    1 NMtDS0=    0 NMtDT0=    0
         I1Cent=           4 NGrid=           0.
 Petite list used in FoFCou.
 Requested convergence on RMS density matrix=1.00D-08 within 128 cycles.
 Requested convergence on MAX density matrix=1.00D-06.
 Requested convergence on             energy=1.00D-06.
 No special actions if energy rises.
 Keep R1 ints in memory in canonical form, NReq=3415969.
 Defaulting to unpruned grid for atomic number  53.
 Defaulting to unpruned grid for atomic number  53.
 Defaulting to unpruned grid for atomic number  53.
 Defaulting to unpruned grid for atomic number  53.
 Error on total polarization charges =  0.07840
 SCF Done:  E(RM062X) =  -162.921607295     A.U. after   11 cycles
             Convg  =    0.8811D-08             -V/T =  2.0573
 SMD-CDS (non-electrostatic) energy             (kcal/mol) =       1.21
 (included in total energy above)
   1 Symmetry operations used in ECPInt.
 ECPInt:  NShTT=     171 NPrTT=    1054 LenC2=     172 LenP2D=     929.
 LDataN:  DoStor=T MaxTD1= 5 Len=  102
 D1PCM: PCM CHGder 1st derivatives, ID1Alg=3 FixD1E=F DoIter=F DoCFld=F I1PDM=0.
 Calling FoFJK, ICntrl=      2127 FMM=F ISym2X=0 I1Cent= 0 IOpClX= 0 NMat=1 NMatS=1 NMatT=0.
 Defaulting to unpruned grid for atomic number  53.
 Defaulting to unpruned grid for atomic number  53.
 Defaulting to unpruned grid for atomic number  53.
 Defaulting to unpruned grid for atomic number  53.
 ***** Axes restored to original set *****
 -------------------------------------------------------------------
 Center     Atomic                   Forces (Hartrees/Bohr)
 Number     Number              X              Y              Z
 -------------------------------------------------------------------
      1        8          -0.020086821    0.001857563   -0.021939546
      2        1           0.014103308   -0.001716373    0.074342722
      3        8           0.032756181   -0.020928378   -0.054252482
      4        1           0.008299707    0.021588403    0.000794389
      5       53          -0.035072375   -0.000801215    0.001054917
 -------------------------------------------------------------------
 Cartesian Forces:  Max     0.074342722 RMS     0.029255953

 GradGradGradGradGradGradGradGradGradGradGradGradGradGradGradGradGradGrad
 Berny optimization.
 Internal  Forces:  Max     0.177763941 RMS     0.064756801
 Search for a saddle point.
 Step number   2 out of a maximum of   20
 All quantities printed in internal units (Hartrees-Bohrs-Radians)
 Swaping is turned off.
 Update second derivatives using D2CorX and points    1    2
 The second derivative matrix:
                          R1        R2        R3        R4        A1
           R1           0.06758
           R2           0.02232   0.16477
           R3           0.13388   0.03690   0.03677
           R4           0.00096   0.00000  -0.00253   0.57895
           A1          -0.04853   0.03804   0.00986  -0.00377  -0.01899
           A2           0.12074   0.10547   0.11282   0.00175  -0.06094
           A3           0.00736   0.00820   0.01436   0.01010  -0.00078
           D1           0.00000  -0.00030  -0.00017  -0.00035   0.00273
           D2           0.00106  -0.00395  -0.00246   0.00938  -0.00232
                          A2        A3        D1        D2
           A2           0.35371
           A3          -0.00189   0.08521
           D1          -0.00050  -0.00083   0.00558
           D2           0.00403   0.01075   0.00064  -0.00888
     Eigenvalues ---   -0.10483  -0.02534  -0.01061   0.00575   0.07004
     Eigenvalues ---    0.09883   0.15277   0.49871   0.57939
 Eigenvectors required to have negative eigenvalues:
                          R3        R1        A1        A2        R2
   1                    0.63845  -0.58203  -0.49070  -0.08413   0.06424
                          A3        D2        D1        R4
   1                   -0.03250   0.02061   0.01255   0.00090
 RFO step:  Lambda0=1.340386149D-03 Lambda=-1.04263452D-01.
 Linear search not attempted -- option 19 set.
 Maximum step size (   0.030) exceeded in Quadratic search.
    -- Step size scaled by   0.025
 Iteration  1 RMS(Cart)=  0.02358817 RMS(Int)=  0.00027187
 Iteration  2 RMS(Cart)=  0.00025188 RMS(Int)=  0.00000007
 Iteration  3 RMS(Cart)=  0.00000002 RMS(Int)=  0.00000000
 Variable       Old X    -DE/DX   Delta X   Delta X   Delta X     New X
                                 (Linear)    (Quad)   (Total)
    R1        2.45860   0.03252   0.00000   0.00195   0.00195   2.46056
    R2        3.78409   0.03133   0.00000   0.00595   0.00595   3.79004
    R3        2.66761  -0.01345   0.00000  -0.01167  -0.01167   2.65595
    R4        1.81502   0.02312   0.00000   0.00076   0.00076   1.81578
    A1        3.01526  -0.05818   0.00000  -0.02415  -0.02415   2.99112
    A2        1.66150   0.17776   0.00000   0.00716   0.00716   1.66867
    A3        1.79046   0.00122   0.00000   0.00158   0.00158   1.79204
    D1       -3.14034   0.00034   0.00000   0.00176   0.00176  -3.13858
    D2       -1.84144  -0.00022   0.00000  -0.00917  -0.00917  -1.85061
         Item               Value     Threshold  Converged?
 Maximum Force            0.177764     0.000450     NO 
 RMS     Force            0.064757     0.000300     NO 
 Maximum Displacement     0.034800     0.001800     NO 
 RMS     Displacement     0.023529     0.001200     NO 
 Predicted change in Energy=-3.098112D-03
 GradGradGradGradGradGradGradGradGradGradGradGradGradGradGradGradGradGrad

                          Input orientation:                          
 ---------------------------------------------------------------------
 Center     Atomic      Atomic             Coordinates (Angstroms)
 Number     Number       Type             X           Y           Z
 ---------------------------------------------------------------------
      1          8           0       -1.448699    0.710210   -0.000009
      2          1           0       -0.403702    0.719737   -0.776719
      3          8           0        0.540954    0.708986    0.263878
      4          1           0        0.873603    1.610402    0.256006
      5         53           0       -3.219499    0.697322    0.941558
 ---------------------------------------------------------------------
                    Distance matrix (angstroms):
                    1          2          3          4          5
     1  O    0.000000
     2  H    1.302070   0.000000
     3  O    2.007077   1.405466   0.000000
     4  H    2.503793   1.868506   0.960869   0.000000
     5  I    2.005604   3.298740   3.821046   4.249374   0.000000
 Stoichiometry    H2IO2(1-)
 Framework group  C1[X(H2IO2)]
 Deg. of freedom     9
 Full point group                 C1      NOp   1
 Largest Abelian subgroup         C1      NOp   1
 Largest concise Abelian subgroup C1      NOp   1
                         Standard orientation:                         
 ---------------------------------------------------------------------
 Center     Atomic      Atomic             Coordinates (Angstroms)
 Number     Number       Type             X           Y           Z
 ---------------------------------------------------------------------
      1          8           0        1.193016    0.453434    0.012223
      2          1           0        2.393602    0.956512    0.042088
      3          8           0        3.060633   -0.270573   -0.114964
      4          1           0        3.409469   -0.435099    0.765101
      5         53           0       -0.751552   -0.037440    0.000278
 ---------------------------------------------------------------------
 Rotational constants (GHZ):     77.6247953      1.9461499      1.9093916
 Standard basis: LANL2DZ (5D, 7F)
 There are    30 symmetry adapted basis functions of A   symmetry.
 Integral buffers will be    262144 words long.
 Raffenetti 2 integral format.
 Two-electron integral symmetry is turned on.
    30 basis functions,    70 primitive gaussians,    30 cartesian basis functions
    13 alpha electrons       13 beta electrons
       nuclear repulsion energy        54.0428554994 Hartrees.
 NAtoms=    5 NActive=    5 NUniq=    5 SFac= 7.50D-01 NAtFMM=   80 NAOKFM=F Big=F
 ------------------------------------------------------------------------------
 Polarizable Continuum Model (PCM)
 =================================
 Model                : PCM.
 Atomic radii         : SMD-Coulomb.
 Polarization charges : Total charges.
 Charge compensation  : None.
 Solution method      : Matrix inversion.
 Cavity type          : VdW (van der Waals Surface) (Alpha=1.000).
 Cavity algorithm     : GePol (No added spheres)
                        Default sphere list used, NSphG=    5.
                        Lebedev-Laikov grids with approx.  5.0 points / Ang**2.
                        Smoothing algorithm: Karplus/York (Gamma=1.0000).
                        Polarization charges: spherical gaussians, with
                                              point-specific exponents (IZeta= 3).
                        Self-potential: point-specific (ISelfS= 7).
                        Self-field    : sphere-specific E.n sum rule (ISelfD= 2).
 1st derivatives      : Analytical E(r).r(x)/FMM algorithm (CHGder, D1EAlg=3).
                        Cavity 1st derivative terms included.
 Solvent              : Water, Eps=  78.355300 Eps(inf)=   1.777849
 ------------------------------------------------------------------------------
 Spheres list:
 ISph  on   Nord    Re0     Alpha      Xe            Ye            Ze
    1   O      1    1.520   1.000      1.193016      0.453434      0.012223
    2   H      2    1.200   1.000      2.393602      0.956512      0.042088
    3   O      3    1.520   1.000      3.060633     -0.270573     -0.114964
    4   H      4    1.200   1.000      3.409469     -0.435099      0.765101
    5   I      5    1.980   1.000     -0.751552     -0.037440      0.000278
 ------------------------------------------------------------------------------
 ------------------------------------------------------------------------------
 Atomic radii for non-electrostatic terms: SMD-CDS.
 ------------------------------------------------------------------------------
 Nuclear repulsion after PCM non-electrostatic terms =       54.0447833020 Hartrees.
 One-electron integrals computed using PRISM.
   1 Symmetry operations used in ECPInt.
 ECPInt:  NShTT=     171 NPrTT=    1054 LenC2=     172 LenP2D=     929.
 LDataN:  DoStor=T MaxTD1= 4 Len=   56
 NBasis=    30 RedAO= T  NBF=    30
 NBsUse=    30 1.00D-06 NBFU=    30
 Defaulting to unpruned grid for atomic number  53.
 Initial guess read from the read-write file.
 B after Tr=     0.000000    0.000000    0.000000
         Rot=    1.000000    0.000000    0.000000    0.000000 Ang=   0.00 deg.
 Initial guess orbital symmetries:
       Occupied  (A) (A) (A) (A) (A) (A) (A) (A) (A) (A) (A) (A)
                 (A)
       Virtual   (A) (A) (A) (A) (A) (A) (A) (A) (A) (A) (A) (A)
                 (A) (A) (A) (A) (A)
 Harris functional with IExCor= 1009 diagonalized for initial guess.
 ExpMin= 1.05D-01 ExpMax= 7.82D+03 ExpMxC= 2.73D+02 IAcc=1 IRadAn=         1 AccDes= 0.00D+00
 HarFok:  IExCor= 1009 AccDes= 0.00D+00 IRadAn=         1 IDoV= 1
 ScaDFX=  1.000000  1.000000  1.000000  1.000000
 Defaulting to unpruned grid for atomic number  53.
 Defaulting to unpruned grid for atomic number  53.
 Defaulting to unpruned grid for atomic number  53.
 Defaulting to unpruned grid for atomic number  53.
 FoFCou: FMM=F IPFlag=           0 FMFlag=      100000 FMFlg1=           0
         NFxFlg=           0 DoJE=T BraDBF=F KetDBF=T FulRan=T
         Omega=  0.000000  0.000000  1.000000  0.000000  0.000000 ICntrl=     500 IOpCl=  0
         NMat0=    1 NMatS0=    1 NMatT0=    0 NMatD0=    1 NMtDS0=    0 NMtDT0=    0
         I1Cent=           4 NGrid=           0.
 Petite list used in FoFCou.
 Requested convergence on RMS density matrix=1.00D-08 within 128 cycles.
 Requested convergence on MAX density matrix=1.00D-06.
 Requested convergence on             energy=1.00D-06.
 No special actions if energy rises.
 Keep R1 ints in memory in canonical form, NReq=3412172.
 Defaulting to unpruned grid for atomic number  53.
 Defaulting to unpruned grid for atomic number  53.
 Defaulting to unpruned grid for atomic number  53.
 Defaulting to unpruned grid for atomic number  53.
 Error on total polarization charges =  0.07846
 SCF Done:  E(RM062X) =  -162.924661713     A.U. after   11 cycles
             Convg  =    0.7501D-08             -V/T =  2.0574
 SMD-CDS (non-electrostatic) energy             (kcal/mol) =       1.21
 (included in total energy above)
   1 Symmetry operations used in ECPInt.
 ECPInt:  NShTT=     171 NPrTT=    1054 LenC2=     172 LenP2D=     929.
 LDataN:  DoStor=T MaxTD1= 5 Len=  102
 D1PCM: PCM CHGder 1st derivatives, ID1Alg=3 FixD1E=F DoIter=F DoCFld=F I1PDM=0.
 Calling FoFJK, ICntrl=      2127 FMM=F ISym2X=0 I1Cent= 0 IOpClX= 0 NMat=1 NMatS=1 NMatT=0.
 Defaulting to unpruned grid for atomic number  53.
 Defaulting to unpruned grid for atomic number  53.
 Defaulting to unpruned grid for atomic number  53.
 Defaulting to unpruned grid for atomic number  53.
 ***** Axes restored to original set *****
 -------------------------------------------------------------------
 Center     Atomic                   Forces (Hartrees/Bohr)
 Number     Number              X              Y              Z
 -------------------------------------------------------------------
      1        8          -0.019316616    0.001970346   -0.020143704
      2        1           0.014802979   -0.002149600    0.073667070
      3        8           0.030730790   -0.020054157   -0.054325457
      4        1           0.008366239    0.021081976    0.000729384
      5       53          -0.034583393   -0.000848565    0.000072707
 -------------------------------------------------------------------
 Cartesian Forces:  Max     0.073667070 RMS     0.028801489

 GradGradGradGradGradGradGradGradGradGradGradGradGradGradGradGradGradGrad
 Berny optimization.
 Internal  Forces:  Max     0.174228708 RMS     0.063576577
 Search for a saddle point.
 Step number   3 out of a maximum of   20
 All quantities printed in internal units (Hartrees-Bohrs-Radians)
 Swaping is turned off.
 Update second derivatives using D2CorX and points    1    2    3
 The second derivative matrix:
                          R1        R2        R3        R4        A1
           R1           0.06766
           R2           0.02264   0.16614
           R3           0.13370   0.03610   0.03705
           R4           0.00088  -0.00035  -0.00229   0.57903
           A1          -0.04940   0.03434   0.01184  -0.00280  -0.00916
           A2           0.12081   0.10582   0.11276   0.00163  -0.06174
           A3           0.00735   0.00817   0.01442   0.01010  -0.00065
           D1          -0.00002  -0.00036  -0.00010  -0.00034   0.00293
           D2           0.00095  -0.00446  -0.00230   0.00955  -0.00106
                          A2        A3        D1        D2
           A2           0.35370
           A3          -0.00192   0.08520
           D1          -0.00055  -0.00084   0.00557
           D2           0.00400   0.01079   0.00069  -0.00880
     Eigenvalues ---   -0.10398  -0.01566  -0.01056   0.00587   0.07016
     Eigenvalues ---    0.09901   0.15276   0.49933   0.57944
 Eigenvectors required to have negative eigenvalues:
                          R3        R1        A1        A2        R2
   1                    0.65315  -0.59117  -0.46125  -0.07985   0.05362
                          A3        D2        D1        R4
   1                   -0.03303   0.02593   0.01219   0.00140
 RFO step:  Lambda0=1.726154781D-03 Lambda=-9.99460885D-02.
 Linear search not attempted -- option 19 set.
 Maximum step size (   0.030) exceeded in Quadratic search.
    -- Step size scaled by   0.024
 Iteration  1 RMS(Cart)=  0.02302760 RMS(Int)=  0.00024121
 Iteration  2 RMS(Cart)=  0.00024669 RMS(Int)=  0.00000005
 Iteration  3 RMS(Cart)=  0.00000002 RMS(Int)=  0.00000000
 Variable       Old X    -DE/DX   Delta X   Delta X   Delta X     New X
                                 (Linear)    (Quad)   (Total)
    R1        2.46056   0.03175   0.00000   0.00163   0.00163   2.46219
    R2        3.79004   0.03073   0.00000   0.00613   0.00613   3.79617
    R3        2.65595  -0.01406   0.00000  -0.01068  -0.01068   2.64527
    R4        1.81578   0.02265   0.00000   0.00076   0.00076   1.81654
    A1        2.99112  -0.05794   0.00000  -0.02475  -0.02475   2.96637
    A2        1.66867   0.17423   0.00000   0.00608   0.00608   1.67475
    A3        1.79204   0.00128   0.00000   0.00155   0.00155   1.79359
    D1       -3.13858   0.00041   0.00000   0.00272   0.00272  -3.13587
    D2       -1.85061  -0.00038   0.00000  -0.00928  -0.00928  -1.85989
         Item               Value     Threshold  Converged?
 Maximum Force            0.174229     0.000450     NO 
 RMS     Force            0.063577     0.000300     NO 
 Maximum Displacement     0.034861     0.001800     NO 
 RMS     Displacement     0.022984     0.001200     NO 
 Predicted change in Energy=-2.897054D-03
 GradGradGradGradGradGradGradGradGradGradGradGradGradGradGradGradGradGrad

                          Input orientation:                          
 ---------------------------------------------------------------------
 Center     Atomic      Atomic             Coordinates (Angstroms)
 Number     Number       Type             X           Y           Z
 ---------------------------------------------------------------------
      1          8           0       -1.447229    0.711162    0.018439
      2          1           0       -0.407323    0.725314   -0.766439
      3          8           0        0.547427    0.709402    0.257124
      4          1           0        0.886758    1.608710    0.245064
      5         53           0       -3.236975    0.692070    0.930526
 ---------------------------------------------------------------------
                    Distance matrix (angstroms):
                    1          2          3          4          5
     1  O    0.000000
     2  H    1.302934   0.000000
     3  O    2.008887   1.399815   0.000000
     4  H    2.510866   1.864986   0.961273   0.000000
     5  I    2.008845   3.299655   3.843888   4.279634   0.000000
 Stoichiometry    H2IO2(1-)
 Framework group  C1[X(H2IO2)]
 Deg. of freedom     9
 Full point group                 C1      NOp   1
 Largest Abelian subgroup         C1      NOp   1
 Largest concise Abelian subgroup C1      NOp   1
                         Standard orientation:                         
 ---------------------------------------------------------------------
 Center     Atomic      Atomic             Coordinates (Angstroms)
 Number     Number       Type             X           Y           Z
 ---------------------------------------------------------------------
      1          8           0        1.197969    0.431419    0.011353
      2          1           0        2.393101    0.949316    0.044214
      3          8           0        3.079888   -0.260051   -0.114649
      4          1           0        3.437971   -0.417886    0.763366
      5         53           0       -0.755735   -0.035894    0.000354
 ---------------------------------------------------------------------
 Rotational constants (GHZ):     83.3577450      1.9236271      1.8908170
 Standard basis: LANL2DZ (5D, 7F)
 There are    30 symmetry adapted basis functions of A   symmetry.
 Integral buffers will be    262144 words long.
 Raffenetti 2 integral format.
 Two-electron integral symmetry is turned on.
    30 basis functions,    70 primitive gaussians,    30 cartesian basis functions
    13 alpha electrons       13 beta electrons
       nuclear repulsion energy        53.9551708604 Hartrees.
 NAtoms=    5 NActive=    5 NUniq=    5 SFac= 7.50D-01 NAtFMM=   80 NAOKFM=F Big=F
 ------------------------------------------------------------------------------
 Polarizable Continuum Model (PCM)
 =================================
 Model                : PCM.
 Atomic radii         : SMD-Coulomb.
 Polarization charges : Total charges.
 Charge compensation  : None.
 Solution method      : Matrix inversion.
 Cavity type          : VdW (van der Waals Surface) (Alpha=1.000).
 Cavity algorithm     : GePol (No added spheres)
                        Default sphere list used, NSphG=    5.
                        Lebedev-Laikov grids with approx.  5.0 points / Ang**2.
                        Smoothing algorithm: Karplus/York (Gamma=1.0000).
                        Polarization charges: spherical gaussians, with
                                              point-specific exponents (IZeta= 3).
                        Self-potential: point-specific (ISelfS= 7).
                        Self-field    : sphere-specific E.n sum rule (ISelfD= 2).
 1st derivatives      : Analytical E(r).r(x)/FMM algorithm (CHGder, D1EAlg=3).
                        Cavity 1st derivative terms included.
 Solvent              : Water, Eps=  78.355300 Eps(inf)=   1.777849
 ------------------------------------------------------------------------------
 Spheres list:
 ISph  on   Nord    Re0     Alpha      Xe            Ye            Ze
    1   O      1    1.520   1.000      1.197969      0.431419      0.011353
    2   H      2    1.200   1.000      2.393101      0.949316      0.044214
    3   O      3    1.520   1.000      3.079888     -0.260051     -0.114649
    4   H      4    1.200   1.000      3.437971     -0.417886      0.763366
    5   I      5    1.980   1.000     -0.755735     -0.035894      0.000354
 ------------------------------------------------------------------------------
 ------------------------------------------------------------------------------
 Atomic radii for non-electrostatic terms: SMD-CDS.
 ------------------------------------------------------------------------------
 Nuclear repulsion after PCM non-electrostatic terms =       53.9570965500 Hartrees.
 One-electron integrals computed using PRISM.
   1 Symmetry operations used in ECPInt.
 ECPInt:  NShTT=     171 NPrTT=    1054 LenC2=     172 LenP2D=     929.
 LDataN:  DoStor=T MaxTD1= 4 Len=   56
 NBasis=    30 RedAO= T  NBF=    30
 NBsUse=    30 1.00D-06 NBFU=    30
 Defaulting to unpruned grid for atomic number  53.
 Initial guess read from the read-write file.
 B after Tr=     0.000000    0.000000    0.000000
         Rot=    1.000000    0.000000    0.000000    0.000000 Ang=   0.00 deg.
 Initial guess orbital symmetries:
       Occupied  (A) (A) (A) (A) (A) (A) (A) (A) (A) (A) (A) (A)
                 (A)
       Virtual   (A) (A) (A) (A) (A) (A) (A) (A) (A) (A) (A) (A)
                 (A) (A) (A) (A) (A)
 Harris functional with IExCor= 1009 diagonalized for initial guess.
 ExpMin= 1.05D-01 ExpMax= 7.82D+03 ExpMxC= 2.73D+02 IAcc=1 IRadAn=         1 AccDes= 0.00D+00
 HarFok:  IExCor= 1009 AccDes= 0.00D+00 IRadAn=         1 IDoV= 1
 ScaDFX=  1.000000  1.000000  1.000000  1.000000
 Defaulting to unpruned grid for atomic number  53.
 Defaulting to unpruned grid for atomic number  53.
 Defaulting to unpruned grid for atomic number  53.
 Defaulting to unpruned grid for atomic number  53.
 FoFCou: FMM=F IPFlag=           0 FMFlag=      100000 FMFlg1=           0
         NFxFlg=           0 DoJE=T BraDBF=F KetDBF=T FulRan=T
         Omega=  0.000000  0.000000  1.000000  0.000000  0.000000 ICntrl=     500 IOpCl=  0
         NMat0=    1 NMatS0=    1 NMatT0=    0 NMatD0=    1 NMtDS0=    0 NMtDT0=    0
         I1Cent=           4 NGrid=           0.
 Petite list used in FoFCou.
 Requested convergence on RMS density matrix=1.00D-08 within 128 cycles.
 Requested convergence on MAX density matrix=1.00D-06.
 Requested convergence on             energy=1.00D-06.
 No special actions if energy rises.
 Keep R1 ints in memory in canonical form, NReq=3412142.
 Defaulting to unpruned grid for atomic number  53.
 Defaulting to unpruned grid for atomic number  53.
 Defaulting to unpruned grid for atomic number  53.
 Defaulting to unpruned grid for atomic number  53.
 Error on total polarization charges =  0.07852
 SCF Done:  E(RM062X) =  -162.927514368     A.U. after   11 cycles
             Convg  =    0.6804D-08             -V/T =  2.0574
 SMD-CDS (non-electrostatic) energy             (kcal/mol) =       1.21
 (included in total energy above)
   1 Symmetry operations used in ECPInt.
 ECPInt:  NShTT=     171 NPrTT=    1054 LenC2=     172 LenP2D=     929.
 LDataN:  DoStor=T MaxTD1= 5 Len=  102
 D1PCM: PCM CHGder 1st derivatives, ID1Alg=3 FixD1E=F DoIter=F DoCFld=F I1PDM=0.
 Calling FoFJK, ICntrl=      2127 FMM=F ISym2X=0 I1Cent= 0 IOpClX= 0 NMat=1 NMatS=1 NMatT=0.
 Defaulting to unpruned grid for atomic number  53.
 Defaulting to unpruned grid for atomic number  53.
 Defaulting to unpruned grid for atomic number  53.
 Defaulting to unpruned grid for atomic number  53.
 ***** Axes restored to original set *****
 -------------------------------------------------------------------
 Center     Atomic                   Forces (Hartrees/Bohr)
 Number     Number              X              Y              Z
 -------------------------------------------------------------------
      1        8          -0.018715261    0.002190205   -0.018345218
      2        1           0.015397430   -0.002590633    0.072961574
      3        8           0.028854766   -0.019306737   -0.054473448
      4        1           0.008442869    0.020576637    0.000652180
      5       53          -0.033979804   -0.000869472   -0.000795088
 -------------------------------------------------------------------
 Cartesian Forces:  Max     0.072961574 RMS     0.028381465

 GradGradGradGradGradGradGradGradGradGradGradGradGradGradGradGradGradGrad
 Berny optimization.
 Internal  Forces:  Max     0.170976254 RMS     0.062488994
 Search for a saddle point.
 Step number   4 out of a maximum of   20
 All quantities printed in internal units (Hartrees-Bohrs-Radians)
 Swaping is turned off.
 Update second derivatives using D2CorX and points    1    2    3    4
 The second derivative matrix:
                          R1        R2        R3        R4        A1
           R1           0.06748
           R2           0.02261   0.16857
           R3           0.13426   0.03548   0.03549
           R4           0.00079  -0.00093  -0.00183   0.57911
           A1          -0.04832   0.03012   0.00976  -0.00123  -0.00768
           A2           0.12054   0.10624   0.11349   0.00138  -0.06090
           A3           0.00728   0.00813   0.01465   0.01007  -0.00018
           D1          -0.00010  -0.00027   0.00013  -0.00041   0.00323
           D2           0.00106  -0.00626  -0.00211   0.01003   0.00155
                          A2        A3        D1        D2
           A2           0.35336
           A3          -0.00204   0.08517
           D1          -0.00066  -0.00088   0.00553
           D2           0.00382   0.01086   0.00067  -0.00754
     Eigenvalues ---   -0.10302  -0.01524  -0.00807   0.00600   0.06914
     Eigenvalues ---    0.09870   0.15268   0.49980   0.57952
 Eigenvectors required to have negative eigenvalues:
                          R3        R1        A1        A2        R2
   1                    0.66585  -0.59814  -0.43426  -0.07593   0.04256
                          D2        A3        D1        R4
   1                    0.03786  -0.03402   0.01071   0.00186
 RFO step:  Lambda0=2.114399390D-03 Lambda=-9.84153814D-02.
 Linear search not attempted -- option 19 set.
 Maximum step size (   0.030) exceeded in Quadratic search.
    -- Step size scaled by   0.024
 Iteration  1 RMS(Cart)=  0.02132835 RMS(Int)=  0.00024098
 Iteration  2 RMS(Cart)=  0.00024782 RMS(Int)=  0.00000003
 Iteration  3 RMS(Cart)=  0.00000001 RMS(Int)=  0.00000000
 Variable       Old X    -DE/DX   Delta X   Delta X   Delta X     New X
                                 (Linear)    (Quad)   (Total)
    R1        2.46219   0.03100   0.00000   0.00165   0.00165   2.46384
    R2        3.79617   0.03007   0.00000   0.00638   0.00638   3.80255
    R3        2.64527  -0.01461   0.00000  -0.01056  -0.01056   2.63471
    R4        1.81654   0.02223   0.00000   0.00069   0.00069   1.81723
    A1        2.96637  -0.05775   0.00000  -0.02654  -0.02654   2.93983
    A2        1.67475   0.17098   0.00000   0.00546   0.00546   1.68021
    A3        1.79359   0.00135   0.00000   0.00062   0.00062   1.79421
    D1       -3.13587   0.00049   0.00000   0.00312   0.00312  -3.13275
    D2       -1.85989  -0.00045   0.00000   0.00032   0.00032  -1.85956
         Item               Value     Threshold  Converged?
 Maximum Force            0.170976     0.000450     NO 
 RMS     Force            0.062489     0.000300     NO 
 Maximum Displacement     0.036044     0.001800     NO 
 RMS     Displacement     0.021283     0.001200     NO 
 Predicted change in Energy=-2.871574D-03
 GradGradGradGradGradGradGradGradGradGradGradGradGradGradGradGradGradGrad

                          Input orientation:                          
 ---------------------------------------------------------------------
 Center     Atomic      Atomic             Coordinates (Angstroms)
 Number     Number       Type             X           Y           Z
 ---------------------------------------------------------------------
      1          8           0       -1.444051    0.712040    0.037513
      2          1           0       -0.410584    0.729808   -0.757182
      3          8           0        0.555032    0.708416    0.248302
      4          1           0        0.894792    1.607956    0.236592
      5         53           0       -3.252530    0.688437    0.919490
 ---------------------------------------------------------------------
                    Distance matrix (angstroms):
                    1          2          3          4          5
     1  O    0.000000
     2  H    1.303806   0.000000
     3  O    2.010169   1.394228   0.000000
     4  H    2.512466   1.860843   0.961638   0.000000
     5  I    2.012222   3.299940   3.866319   4.302574   0.000000
 Stoichiometry    H2IO2(1-)
 Framework group  C1[X(H2IO2)]
 Deg. of freedom     9
 Full point group                 C1      NOp   1
 Largest Abelian subgroup         C1      NOp   1
 Largest concise Abelian subgroup C1      NOp   1
                         Standard orientation:                         
 ---------------------------------------------------------------------
 Center     Atomic      Atomic             Coordinates (Angstroms)
 Number     Number       Type             X           Y           Z
 ---------------------------------------------------------------------
      1          8           0        1.203199    0.408164    0.011047
      2          1           0        2.392064    0.942160    0.047921
      3          8           0        3.098898   -0.248544   -0.114818
      4          1           0        3.458394   -0.404640    0.763329
      5         53           0       -0.759759   -0.034236    0.000357
 ---------------------------------------------------------------------
 Rotational constants (GHZ):     89.9508729      1.9021700      1.8731700
 Standard basis: LANL2DZ (5D, 7F)
 There are    30 symmetry adapted basis functions of A   symmetry.
 Integral buffers will be    262144 words long.
 Raffenetti 2 integral format.
 Two-electron integral symmetry is turned on.
    30 basis functions,    70 primitive gaussians,    30 cartesian basis functions
    13 alpha electrons       13 beta electrons
       nuclear repulsion energy        53.8780566655 Hartrees.
 NAtoms=    5 NActive=    5 NUniq=    5 SFac= 7.50D-01 NAtFMM=   80 NAOKFM=F Big=F
 ------------------------------------------------------------------------------
 Polarizable Continuum Model (PCM)
 =================================
 Model                : PCM.
 Atomic radii         : SMD-Coulomb.
 Polarization charges : Total charges.
 Charge compensation  : None.
 Solution method      : Matrix inversion.
 Cavity type          : VdW (van der Waals Surface) (Alpha=1.000).
 Cavity algorithm     : GePol (No added spheres)
                        Default sphere list used, NSphG=    5.
                        Lebedev-Laikov grids with approx.  5.0 points / Ang**2.
                        Smoothing algorithm: Karplus/York (Gamma=1.0000).
                        Polarization charges: spherical gaussians, with
                                              point-specific exponents (IZeta= 3).
                        Self-potential: point-specific (ISelfS= 7).
                        Self-field    : sphere-specific E.n sum rule (ISelfD= 2).
 1st derivatives      : Analytical E(r).r(x)/FMM algorithm (CHGder, D1EAlg=3).
                        Cavity 1st derivative terms included.
 Solvent              : Water, Eps=  78.355300 Eps(inf)=   1.777849
 ------------------------------------------------------------------------------
 Spheres list:
 ISph  on   Nord    Re0     Alpha      Xe            Ye            Ze
    1   O      1    1.520   1.000      1.203199      0.408164      0.011047
    2   H      2    1.200   1.000      2.392064      0.942160      0.047921
    3   O      3    1.520   1.000      3.098898     -0.248544     -0.114818
    4   H      4    1.200   1.000      3.458394     -0.404640      0.763329
    5   I      5    1.980   1.000     -0.759759     -0.034236      0.000357
 ------------------------------------------------------------------------------
 ------------------------------------------------------------------------------
 Atomic radii for non-electrostatic terms: SMD-CDS.
 ------------------------------------------------------------------------------
 Nuclear repulsion after PCM non-electrostatic terms =       53.8799805469 Hartrees.
 One-electron integrals computed using PRISM.
   1 Symmetry operations used in ECPInt.
 ECPInt:  NShTT=     171 NPrTT=    1054 LenC2=     172 LenP2D=     929.
 LDataN:  DoStor=T MaxTD1= 4 Len=   56
 NBasis=    30 RedAO= T  NBF=    30
 NBsUse=    30 1.00D-06 NBFU=    30
 Defaulting to unpruned grid for atomic number  53.
 Initial guess read from the read-write file.
 B after Tr=     0.000000    0.000000    0.000000
         Rot=    1.000000    0.000000    0.000000    0.000000 Ang=   0.00 deg.
 Initial guess orbital symmetries:
       Occupied  (A) (A) (A) (A) (A) (A) (A) (A) (A) (A) (A) (A)
                 (A)
       Virtual   (A) (A) (A) (A) (A) (A) (A) (A) (A) (A) (A) (A)
                 (A) (A) (A) (A) (A)
 Harris functional with IExCor= 1009 diagonalized for initial guess.
 ExpMin= 1.05D-01 ExpMax= 7.82D+03 ExpMxC= 2.73D+02 IAcc=1 IRadAn=         1 AccDes= 0.00D+00
 HarFok:  IExCor= 1009 AccDes= 0.00D+00 IRadAn=         1 IDoV= 1
 ScaDFX=  1.000000  1.000000  1.000000  1.000000
 Defaulting to unpruned grid for atomic number  53.
 Defaulting to unpruned grid for atomic number  53.
 Defaulting to unpruned grid for atomic number  53.
 Defaulting to unpruned grid for atomic number  53.
 FoFCou: FMM=F IPFlag=           0 FMFlag=      100000 FMFlg1=           0
         NFxFlg=           0 DoJE=T BraDBF=F KetDBF=T FulRan=T
         Omega=  0.000000  0.000000  1.000000  0.000000  0.000000 ICntrl=     500 IOpCl=  0
         NMat0=    1 NMatS0=    1 NMatT0=    0 NMatD0=    1 NMtDS0=    0 NMtDT0=    0
         I1Cent=           4 NGrid=           0.
 Petite list used in FoFCou.
 Requested convergence on RMS density matrix=1.00D-08 within 128 cycles.
 Requested convergence on MAX density matrix=1.00D-06.
 Requested convergence on             energy=1.00D-06.
 No special actions if energy rises.
 Keep R1 ints in memory in canonical form, NReq=3412147.
 Defaulting to unpruned grid for atomic number  53.
 Defaulting to unpruned grid for atomic number  53.
 Defaulting to unpruned grid for atomic number  53.
 Defaulting to unpruned grid for atomic number  53.
 Error on total polarization charges =  0.07858
 SCF Done:  E(RM062X) =  -162.930352065     A.U. after   11 cycles
             Convg  =    0.5951D-08             -V/T =  2.0575
 SMD-CDS (non-electrostatic) energy             (kcal/mol) =       1.21
 (included in total energy above)
   1 Symmetry operations used in ECPInt.
 ECPInt:  NShTT=     171 NPrTT=    1054 LenC2=     172 LenP2D=     929.
 LDataN:  DoStor=T MaxTD1= 5 Len=  102
 D1PCM: PCM CHGder 1st derivatives, ID1Alg=3 FixD1E=F DoIter=F DoCFld=F I1PDM=0.
 Calling FoFJK, ICntrl=      2127 FMM=F ISym2X=0 I1Cent= 0 IOpClX= 0 NMat=1 NMatS=1 NMatT=0.
 Defaulting to unpruned grid for atomic number  53.
 Defaulting to unpruned grid for atomic number  53.
 Defaulting to unpruned grid for atomic number  53.
 Defaulting to unpruned grid for atomic number  53.
 ***** Axes restored to original set *****
 -------------------------------------------------------------------
 Center     Atomic                   Forces (Hartrees/Bohr)
 Number     Number              X              Y              Z
 -------------------------------------------------------------------
      1        8          -0.018338264    0.002534980   -0.016343035
      2        1           0.016041314   -0.003067129    0.072193394
      3        8           0.027264542   -0.018733421   -0.055069908
      4        1           0.008303768    0.020106696    0.000725720
      5       53          -0.033271360   -0.000841126   -0.001506171
 -------------------------------------------------------------------
 Cartesian Forces:  Max     0.072193394 RMS     0.028046555

 GradGradGradGradGradGradGradGradGradGradGradGradGradGradGradGradGradGrad
 Berny optimization.
 Internal  Forces:  Max     0.168034869 RMS     0.061522117
 Search for a saddle point.
 Step number   5 out of a maximum of   20
 All quantities printed in internal units (Hartrees-Bohrs-Radians)
 Swaping is turned off.
 Update second derivatives using D2CorX and points    1    2    3    4    5
 The second derivative matrix:
                          R1        R2        R3        R4        A1
           R1           0.06642
           R2           0.02180   0.17141
           R3           0.13637   0.03364   0.03329
           R4           0.00071  -0.00107  -0.00116   0.57898
           A1          -0.04296   0.02428   0.00684   0.00005  -0.00949
           A2           0.11837   0.10569   0.11690   0.00112  -0.05282
           A3           0.00691   0.00790   0.01543   0.01001   0.00168
           D1          -0.00053   0.00042   0.00043  -0.00060   0.00318
           D2           0.00079  -0.00815  -0.00003   0.01009   0.00754
                          A2        A3        D1        D2
           A2           0.34928
           A3          -0.00279   0.08504
           D1          -0.00127  -0.00104   0.00552
           D2           0.00274   0.01074   0.00011  -0.00679
     Eigenvalues ---   -0.10220  -0.01983  -0.00236   0.00609   0.06605
     Eigenvalues ---    0.09826   0.15223   0.49605   0.57938
 Eigenvectors required to have negative eigenvalues:
                          R3        R1        A1        A2        D2
   1                    0.68931  -0.60757  -0.38305  -0.07088   0.04374
                          A3        R2        D1        R4
   1                   -0.03575   0.02736   0.00421   0.00187
 RFO step:  Lambda0=3.055178457D-03 Lambda=-1.00036718D-01.
 Linear search not attempted -- option 19 set.
 Maximum step size (   0.030) exceeded in Quadratic search.
    -- Step size scaled by   0.024
 Iteration  1 RMS(Cart)=  0.02060830 RMS(Int)=  0.00024118
 Iteration  2 RMS(Cart)=  0.00025264 RMS(Int)=  0.00000001
 Iteration  3 RMS(Cart)=  0.00000001 RMS(Int)=  0.00000000
 Variable       Old X    -DE/DX   Delta X   Delta X   Delta X     New X
                                 (Linear)    (Quad)   (Total)
    R1        2.46384   0.03040   0.00000  -0.00012  -0.00012   2.46371
    R2        3.80255   0.02936   0.00000   0.00494   0.00494   3.80749
    R3        2.63471  -0.01516   0.00000  -0.00893  -0.00893   2.62578
    R4        1.81723   0.02181   0.00000   0.00066   0.00066   1.81789
    A1        2.93983  -0.05774   0.00000  -0.02674  -0.02674   2.91309
    A2        1.68021   0.16803   0.00000   0.00639   0.00639   1.68660
    A3        1.79421   0.00145   0.00000   0.00071   0.00071   1.79492
    D1       -3.13275   0.00057   0.00000   0.00317   0.00317  -3.12958
    D2       -1.85956  -0.00023   0.00000   0.00539   0.00539  -1.85418
         Item               Value     Threshold  Converged?
 Maximum Force            0.168035     0.000450     NO 
 RMS     Force            0.061522     0.000300     NO 
 Maximum Displacement     0.035728     0.001800     NO 
 RMS     Displacement     0.020548     0.001200     NO 
 Predicted change in Energy=-2.902430D-03
 GradGradGradGradGradGradGradGradGradGradGradGradGradGradGradGradGradGrad

                          Input orientation:                          
 ---------------------------------------------------------------------
 Center     Atomic      Atomic             Coordinates (Angstroms)
 Number     Number       Type             X           Y           Z
 ---------------------------------------------------------------------
      1          8           0       -1.440511    0.712762    0.056419
      2          1           0       -0.414718    0.733551   -0.747981
      3          8           0        0.563462    0.706900    0.238514
      4          1           0        0.900694    1.607796    0.229611
      5         53           0       -3.266269    0.685648    0.908152
 ---------------------------------------------------------------------
                    Distance matrix (angstroms):
                    1          2          3          4          5
     1  O    0.000000
     2  H    1.303742   0.000000
     3  O    2.012238   1.389504   0.000000
     4  H    2.512433   1.857498   0.961986   0.000000
     5  I    2.014839   3.297940   3.887892   4.321383   0.000000
 Stoichiometry    H2IO2(1-)
 Framework group  C1[X(H2IO2)]
 Deg. of freedom     9
 Full point group                 C1      NOp   1
 Largest Abelian subgroup         C1      NOp   1
 Largest concise Abelian subgroup C1      NOp   1
                         Standard orientation:                         
 ---------------------------------------------------------------------
 Center     Atomic      Atomic             Coordinates (Angstroms)
 Number     Number       Type             X           Y           Z
 ---------------------------------------------------------------------
      1          8           0        1.207639    0.384819    0.011120
      2          1           0        2.388987    0.934756    0.052717
      3          8           0        3.117355   -0.236559   -0.115280
      4          1           0        3.474519   -0.394191    0.763926
      5         53           0       -0.763462   -0.032578    0.000314
 ---------------------------------------------------------------------
 Rotational constants (GHZ):     97.2624260      1.8823436      1.8568534
 Standard basis: LANL2DZ (5D, 7F)
 There are    30 symmetry adapted basis functions of A   symmetry.
 Integral buffers will be    262144 words long.
 Raffenetti 2 integral format.
 Two-electron integral symmetry is turned on.
    30 basis functions,    70 primitive gaussians,    30 cartesian basis functions
    13 alpha electrons       13 beta electrons
       nuclear repulsion energy        53.8054362960 Hartrees.
 NAtoms=    5 NActive=    5 NUniq=    5 SFac= 7.50D-01 NAtFMM=   80 NAOKFM=F Big=F
 ------------------------------------------------------------------------------
 Polarizable Continuum Model (PCM)
 =================================
 Model                : PCM.
 Atomic radii         : SMD-Coulomb.
 Polarization charges : Total charges.
 Charge compensation  : None.
 Solution method      : Matrix inversion.
 Cavity type          : VdW (van der Waals Surface) (Alpha=1.000).
 Cavity algorithm     : GePol (No added spheres)
                        Default sphere list used, NSphG=    5.
                        Lebedev-Laikov grids with approx.  5.0 points / Ang**2.
                        Smoothing algorithm: Karplus/York (Gamma=1.0000).
                        Polarization charges: spherical gaussians, with
                                              point-specific exponents (IZeta= 3).
                        Self-potential: point-specific (ISelfS= 7).
                        Self-field    : sphere-specific E.n sum rule (ISelfD= 2).
 1st derivatives      : Analytical E(r).r(x)/FMM algorithm (CHGder, D1EAlg=3).
                        Cavity 1st derivative terms included.
 Solvent              : Water, Eps=  78.355300 Eps(inf)=   1.777849
 ------------------------------------------------------------------------------
 Spheres list:
 ISph  on   Nord    Re0     Alpha      Xe            Ye            Ze
    1   O      1    1.520   1.000      1.207639      0.384819      0.011120
    2   H      2    1.200   1.000      2.388987      0.934756      0.052717
    3   O      3    1.520   1.000      3.117355     -0.236559     -0.115280
    4   H      4    1.200   1.000      3.474519     -0.394191      0.763926
    5   I      5    1.980   1.000     -0.763462     -0.032578      0.000314
 ------------------------------------------------------------------------------
 ------------------------------------------------------------------------------
 Atomic radii for non-electrostatic terms: SMD-CDS.
 ------------------------------------------------------------------------------
 Nuclear repulsion after PCM non-electrostatic terms =       53.8073586796 Hartrees.
 One-electron integrals computed using PRISM.
   1 Symmetry operations used in ECPInt.
 ECPInt:  NShTT=     171 NPrTT=    1054 LenC2=     172 LenP2D=     929.
 LDataN:  DoStor=T MaxTD1= 4 Len=   56
 NBasis=    30 RedAO= T  NBF=    30
 NBsUse=    30 1.00D-06 NBFU=    30
 Defaulting to unpruned grid for atomic number  53.
 Initial guess read from the read-write file.
 B after Tr=     0.000000    0.000000    0.000000
         Rot=    1.000000    0.000000    0.000000    0.000000 Ang=   0.00 deg.
 Initial guess orbital symmetries:
       Occupied  (A) (A) (A) (A) (A) (A) (A) (A) (A) (A) (A) (A)
                 (A)
       Virtual   (A) (A) (A) (A) (A) (A) (A) (A) (A) (A) (A) (A)
                 (A) (A) (A) (A) (A)
 Harris functional with IExCor= 1009 diagonalized for initial guess.
 ExpMin= 1.05D-01 ExpMax= 7.82D+03 ExpMxC= 2.73D+02 IAcc=1 IRadAn=         1 AccDes= 0.00D+00
 HarFok:  IExCor= 1009 AccDes= 0.00D+00 IRadAn=         1 IDoV= 1
 ScaDFX=  1.000000  1.000000  1.000000  1.000000
 Defaulting to unpruned grid for atomic number  53.
 Defaulting to unpruned grid for atomic number  53.
 Defaulting to unpruned grid for atomic number  53.
 Defaulting to unpruned grid for atomic number  53.
 FoFCou: FMM=F IPFlag=           0 FMFlag=      100000 FMFlg1=           0
         NFxFlg=           0 DoJE=T BraDBF=F KetDBF=T FulRan=T
         Omega=  0.000000  0.000000  1.000000  0.000000  0.000000 ICntrl=     500 IOpCl=  0
         NMat0=    1 NMatS0=    1 NMatT0=    0 NMatD0=    1 NMtDS0=    0 NMtDT0=    0
         I1Cent=           4 NGrid=           0.
 Petite list used in FoFCou.
 Requested convergence on RMS density matrix=1.00D-08 within 128 cycles.
 Requested convergence on MAX density matrix=1.00D-06.
 Requested convergence on             energy=1.00D-06.
 No special actions if energy rises.
 Keep R1 ints in memory in canonical form, NReq=3410850.
 Defaulting to unpruned grid for atomic number  53.
 Defaulting to unpruned grid for atomic number  53.
 Defaulting to unpruned grid for atomic number  53.
 Defaulting to unpruned grid for atomic number  53.
 Error on total polarization charges =  0.07861
 SCF Done:  E(RM062X) =  -162.933233034     A.U. after   11 cycles
             Convg  =    0.5263D-08             -V/T =  2.0575
 SMD-CDS (non-electrostatic) energy             (kcal/mol) =       1.21
 (included in total energy above)
   1 Symmetry operations used in ECPInt.
 ECPInt:  NShTT=     171 NPrTT=    1054 LenC2=     172 LenP2D=     929.
 LDataN:  DoStor=T MaxTD1= 5 Len=  102
 D1PCM: PCM CHGder 1st derivatives, ID1Alg=3 FixD1E=F DoIter=F DoCFld=F I1PDM=0.
 Calling FoFJK, ICntrl=      2127 FMM=F ISym2X=0 I1Cent= 0 IOpClX= 0 NMat=1 NMatS=1 NMatT=0.
 Defaulting to unpruned grid for atomic number  53.
 Defaulting to unpruned grid for atomic number  53.
 Defaulting to unpruned grid for atomic number  53.
 Defaulting to unpruned grid for atomic number  53.
 ***** Axes restored to original set *****
 -------------------------------------------------------------------
 Center     Atomic                   Forces (Hartrees/Bohr)
 Number     Number              X              Y              Z
 -------------------------------------------------------------------
      1        8          -0.018021455    0.002839738   -0.014359427
      2        1           0.016773450   -0.003532695    0.071405846
      3        8           0.025683657   -0.018159000   -0.055880286
      4        1           0.008066896    0.019642021    0.000850551
      5       53          -0.032502549   -0.000790064   -0.002016684
[...]
    R3        2.60243  -0.01373   0.00000  -0.00446  -0.00446   2.59797
    R4        1.83188   0.01216   0.00000   0.00053   0.00053   1.83241
    A1        2.67666  -0.04139   0.00000  -0.01370  -0.01370   2.66296
    A2        1.90689   0.10305   0.00000   0.01525   0.01525   1.92213
    A3        1.82225   0.00263   0.00000   0.00537   0.00537   1.82762
    D1       -3.13611   0.00022   0.00000   0.00029   0.00029  -3.13583
    D2       -1.81814   0.00048   0.00000  -0.01938  -0.01938  -1.83752
         Item               Value     Threshold  Converged?
 Maximum Force            0.103051     0.000450     NO 
 RMS     Force            0.038160     0.000300     NO 
 Maximum Displacement     0.030749     0.001800     NO 
 RMS     Displacement     0.021739     0.001200     NO 
 Predicted change in Energy=-2.077129D-03
 GradGradGradGradGradGradGradGradGradGradGradGradGradGradGradGradGradGrad

                          Input orientation:                          
 ---------------------------------------------------------------------
 Center     Atomic      Atomic             Coordinates (Angstroms)
 Number     Number       Type             X           Y           Z
 ---------------------------------------------------------------------
      1          8           0       -1.438630    0.698892    0.254848
      2          1           0       -0.526191    0.793968   -0.541613
      3          8           0        0.681332    0.699230    0.108735
      4          1           0        1.023682    1.606294    0.125884
      5         53           0       -3.397535    0.648272    0.736861
 ---------------------------------------------------------------------
                    Distance matrix (angstroms):
                    1          2          3          4          5
     1  O    0.000000
     2  H    1.214880   0.000000
     3  O    2.124991   1.374788   0.000000
     4  H    2.627354   1.872841   0.969671   0.000000
     5  I    2.017971   3.146480   4.127263   4.564894   0.000000
 Stoichiometry    H2IO2(1-)
 Framework group  C1[X(H2IO2)]
 Deg. of freedom     9
 Full point group                 C1      NOp   1
 Largest Abelian subgroup         C1      NOp   1
 Largest concise Abelian subgroup C1      NOp   1
                         Standard orientation:                         
 ---------------------------------------------------------------------
 Center     Atomic      Atomic             Coordinates (Angstroms)
 Number     Number       Type             X           Y           Z
 ---------------------------------------------------------------------
      1          8           0        1.215426    0.118032    0.034206
      2          1           0        2.255227    0.653539    0.362811
      3          8           0        3.327055   -0.048097   -0.136120
      4          1           0        3.694906   -0.513995    0.630618
      5         53           0       -0.797924   -0.013189   -0.003361
 ---------------------------------------------------------------------
 Rotational constants (GHZ):    283.1883655      1.6959561      1.6945483
 Standard basis: LANL2DZ (5D, 7F)
 There are    30 symmetry adapted basis functions of A   symmetry.
 Integral buffers will be    262144 words long.
 Raffenetti 2 integral format.
 Two-electron integral symmetry is turned on.
    30 basis functions,    70 primitive gaussians,    30 cartesian basis functions
    13 alpha electrons       13 beta electrons
       nuclear repulsion energy        52.6150446652 Hartrees.
 NAtoms=    5 NActive=    5 NUniq=    5 SFac= 7.50D-01 NAtFMM=   80 NAOKFM=F Big=F
 ------------------------------------------------------------------------------
 Polarizable Continuum Model (PCM)
 =================================
 Model                : PCM.
 Atomic radii         : SMD-Coulomb.
 Polarization charges : Total charges.
 Charge compensation  : None.
 Solution method      : Matrix inversion.
 Cavity type          : VdW (van der Waals Surface) (Alpha=1.000).
 Cavity algorithm     : GePol (No added spheres)
                        Default sphere list used, NSphG=    5.
                        Lebedev-Laikov grids with approx.  5.0 points / Ang**2.
                        Smoothing algorithm: Karplus/York (Gamma=1.0000).
                        Polarization charges: spherical gaussians, with
                                              point-specific exponents (IZeta= 3).
                        Self-potential: point-specific (ISelfS= 7).
                        Self-field    : sphere-specific E.n sum rule (ISelfD= 2).
 1st derivatives      : Analytical E(r).r(x)/FMM algorithm (CHGder, D1EAlg=3).
                        Cavity 1st derivative terms included.
 Solvent              : Water, Eps=  78.355300 Eps(inf)=   1.777849
 ------------------------------------------------------------------------------
 Spheres list:
 ISph  on   Nord    Re0     Alpha      Xe            Ye            Ze
    1   O      1    1.520   1.000      1.215426      0.118032      0.034206
    2   H      2    1.200   1.000      2.255227      0.653539      0.362811
    3   O      3    1.520   1.000      3.327055     -0.048097     -0.136120
    4   H      4    1.200   1.000      3.694906     -0.513995      0.630618
    5   I      5    1.980   1.000     -0.797924     -0.013189     -0.003361
 ------------------------------------------------------------------------------
 ------------------------------------------------------------------------------
 Atomic radii for non-electrostatic terms: SMD-CDS.
 ------------------------------------------------------------------------------
 Nuclear repulsion after PCM non-electrostatic terms =       52.6168485274 Hartrees.
 One-electron integrals computed using PRISM.
   1 Symmetry operations used in ECPInt.
 ECPInt:  NShTT=     171 NPrTT=    1054 LenC2=     172 LenP2D=     922.
 LDataN:  DoStor=T MaxTD1= 4 Len=   56
 NBasis=    30 RedAO= T  NBF=    30
 NBsUse=    30 1.00D-06 NBFU=    30
 Defaulting to unpruned grid for atomic number  53.
 Initial guess read from the read-write file.
 B after Tr=     0.000000    0.000000    0.000000
         Rot=    1.000000    0.000000    0.000000    0.000000 Ang=   0.00 deg.
 Initial guess orbital symmetries:
       Occupied  (A) (A) (A) (A) (A) (A) (A) (A) (A) (A) (A) (A)
                 (A)
       Virtual   (A) (A) (A) (A) (A) (A) (A) (A) (A) (A) (A) (A)
                 (A) (A) (A) (A) (A)
 Harris functional with IExCor= 1009 diagonalized for initial guess.
 ExpMin= 1.05D-01 ExpMax= 7.82D+03 ExpMxC= 2.73D+02 IAcc=1 IRadAn=         1 AccDes= 0.00D+00
 HarFok:  IExCor= 1009 AccDes= 0.00D+00 IRadAn=         1 IDoV= 1
 ScaDFX=  1.000000  1.000000  1.000000  1.000000
 Defaulting to unpruned grid for atomic number  53.
 Defaulting to unpruned grid for atomic number  53.
 Defaulting to unpruned grid for atomic number  53.
 Defaulting to unpruned grid for atomic number  53.
 FoFCou: FMM=F IPFlag=           0 FMFlag=      100000 FMFlg1=           0
         NFxFlg=           0 DoJE=T BraDBF=F KetDBF=T FulRan=T
         Omega=  0.000000  0.000000  1.000000  0.000000  0.000000 ICntrl=     500 IOpCl=  0
         NMat0=    1 NMatS0=    1 NMatT0=    0 NMatD0=    1 NMtDS0=    0 NMtDT0=    0
         I1Cent=           4 NGrid=           0.
 Petite list used in FoFCou.
 Requested convergence on RMS density matrix=1.00D-08 within 128 cycles.
 Requested convergence on MAX density matrix=1.00D-06.
 Requested convergence on             energy=1.00D-06.
 No special actions if energy rises.
 Keep R1 ints in memory in canonical form, NReq=3413335.
 Defaulting to unpruned grid for atomic number  53.
 Defaulting to unpruned grid for atomic number  53.
 Defaulting to unpruned grid for atomic number  53.
 Defaulting to unpruned grid for atomic number  53.
 Error on total polarization charges =  0.07737
 SCF Done:  E(RM062X) =  -162.973459725     A.U. after   11 cycles
             Convg  =    0.8057D-08             -V/T =  2.0580
 SMD-CDS (non-electrostatic) energy             (kcal/mol) =       1.13
 (included in total energy above)
   1 Symmetry operations used in ECPInt.
 ECPInt:  NShTT=     171 NPrTT=    1054 LenC2=     172 LenP2D=     922.
 LDataN:  DoStor=T MaxTD1= 5 Len=  102
 D1PCM: PCM CHGder 1st derivatives, ID1Alg=3 FixD1E=F DoIter=F DoCFld=F I1PDM=0.
 Calling FoFJK, ICntrl=      2127 FMM=F ISym2X=0 I1Cent= 0 IOpClX= 0 NMat=1 NMatS=1 NMatT=0.
 Defaulting to unpruned grid for atomic number  53.
 Defaulting to unpruned grid for atomic number  53.
 Defaulting to unpruned grid for atomic number  53.
 Defaulting to unpruned grid for atomic number  53.
 ***** Axes restored to original set *****
 -------------------------------------------------------------------
 Center     Atomic                   Forces (Hartrees/Bohr)
 Number     Number              X              Y              Z
 -------------------------------------------------------------------
      1        8          -0.008822874    0.001250282   -0.004517496
      2        1           0.019703608   -0.007960737    0.051207958
      3        8           0.001457158   -0.004408673   -0.041697465
      4        1           0.005252855    0.010445298    0.000725232
      5       53          -0.017590748    0.000673830   -0.005718229
 -------------------------------------------------------------------
 Cartesian Forces:  Max     0.051207958 RMS     0.018997758

 GradGradGradGradGradGradGradGradGradGradGradGradGradGradGradGradGradGrad
 Berny optimization.
 Internal  Forces:  Max     0.100208625 RMS     0.037117994
 Search for a saddle point.
 Step number  20 out of a maximum of   20
 All quantities printed in internal units (Hartrees-Bohrs-Radians)
 Swaping is turned off.
 Update second derivatives using D2CorX and points   11   12   13   14   15
                                                     16   17   18   19   20
 The second derivative matrix:
                          R1        R2        R3        R4        A1
           R1           0.08444
           R2           0.02294   0.18005
           R3           0.15208   0.03595   0.02855
           R4          -0.00398  -0.00399  -0.00629   0.58212
           A1           0.00259   0.02674   0.02134  -0.00561   0.03608
           A2           0.10872   0.08815   0.09476   0.00172  -0.02109
           A3           0.00665   0.00185   0.00986   0.01146   0.00368
           D1           0.00158   0.00223   0.00288  -0.00091   0.00102
           D2          -0.00231  -0.00226   0.00669   0.00259   0.00510
                          A2        A3        D1        D2
           A2           0.26391
           A3          -0.00973   0.08492
           D1           0.00350  -0.00129   0.00613
           D2           0.00531   0.01143  -0.00100  -0.00638
     Eigenvalues ---   -0.10061  -0.00941   0.00608   0.01948   0.07583
     Eigenvalues ---    0.10896   0.15582   0.42100   0.58268
 Eigenvectors required to have negative eigenvalues:
                          R3        R1        A1        D2        R2
   1                    0.77258  -0.62230  -0.10090  -0.06336  -0.03502
                          A3        A2        D1        R4
   1                   -0.01339  -0.01195  -0.01030   0.00294
 RFO step:  Lambda0=2.465724882D-03 Lambda=-5.26987105D-02.
 Linear search not attempted -- option 19 set.
 Maximum step size (   0.030) exceeded in Quadratic search.
    -- Step size scaled by   0.052
 Iteration  1 RMS(Cart)=  0.02285518 RMS(Int)=  0.00035938
 Iteration  2 RMS(Cart)=  0.00037928 RMS(Int)=  0.00000006
 Iteration  3 RMS(Cart)=  0.00000009 RMS(Int)=  0.00000000
 Variable       Old X    -DE/DX   Delta X   Delta X   Delta X     New X
                                 (Linear)    (Quad)   (Total)
    R1        2.29579   0.01253   0.00000  -0.01151  -0.01151   2.28428
    R2        3.81341   0.01568   0.00000  -0.00089  -0.00089   3.81252
    R3        2.59797  -0.01352   0.00000  -0.00131  -0.00131   2.59666
    R4        1.83241   0.01167   0.00000   0.00060   0.00060   1.83301
    A1        2.66296  -0.04035   0.00000  -0.01786  -0.01786   2.64510
    A2        1.92213   0.10021   0.00000   0.02007   0.02007   1.94220
    A3        1.82762   0.00268   0.00000   0.00404   0.00404   1.83165
    D1       -3.13583   0.00020   0.00000  -0.00052  -0.00052  -3.13635
    D2       -1.83752   0.00029   0.00000  -0.00515  -0.00515  -1.84268
         Item               Value     Threshold  Converged?
 Maximum Force            0.100209     0.000450     NO 
 RMS     Force            0.037118     0.000300     NO 
 Maximum Displacement     0.034888     0.001800     NO 
 RMS     Displacement     0.022758     0.001200     NO 
 Predicted change in Energy=-2.561008D-03
 Optimization stopped.
    -- Number of steps exceeded,  NStep=  20
    -- Flag reset to prevent archiving.
                           ----------------------------
                           ! Non-Optimized Parameters !
                           ! (Angstroms and Degrees)  !
 --------------------------                            --------------------------
 ! Name  Definition              Value          Derivative Info.                !
 --------------------------------------------------------------------------------
 ! R1    R(1,2)                  1.2088         -DE/DX =    0.0125              !
 ! R2    R(1,5)                  2.0175         -DE/DX =    0.0157              !
 ! R3    R(2,3)                  1.3741         -DE/DX =   -0.0135              !
 ! R4    R(3,4)                  0.97           -DE/DX =    0.0117              !
 ! A1    A(2,1,5)              151.5533         -DE/DX =   -0.0404              !
 ! A2    A(1,2,3)              111.2798         -DE/DX =    0.1002              !
 ! A3    A(2,3,4)              104.946          -DE/DX =    0.0027              !
 ! D1    D(5,1,2,3)           -179.6996         -DE/DX =    0.0002              !
 ! D2    D(1,2,3,4)           -105.5776         -DE/DX =    0.0003              !
 --------------------------------------------------------------------------------
 GradGradGradGradGradGradGradGradGradGradGradGradGradGradGradGradGradGrad

                          Input orientation:                          
 ---------------------------------------------------------------------
 Center     Atomic      Atomic             Coordinates (Angstroms)
 Number     Number       Type             X           Y           Z
 ---------------------------------------------------------------------
      1          8           0       -1.438630    0.698892    0.254848
      2          1           0       -0.526191    0.793968   -0.541613
      3          8           0        0.681332    0.699230    0.108735
      4          1           0        1.023682    1.606294    0.125884
      5         53           0       -3.397535    0.648272    0.736861
 ---------------------------------------------------------------------
                    Distance matrix (angstroms):
                    1          2          3          4          5
     1  O    0.000000
     2  H    1.214880   0.000000
     3  O    2.124991   1.374788   0.000000
     4  H    2.627354   1.872841   0.969671   0.000000
     5  I    2.017971   3.146480   4.127263   4.564894   0.000000
 Stoichiometry    H2IO2(1-)
 Framework group  C1[X(H2IO2)]
 Deg. of freedom     9
 Full point group                 C1      NOp   1
 Largest Abelian subgroup         C1      NOp   1
 Largest concise Abelian subgroup C1      NOp   1
                         Standard orientation:                         
 ---------------------------------------------------------------------
 Center     Atomic      Atomic             Coordinates (Angstroms)
 Number     Number       Type             X           Y           Z
 ---------------------------------------------------------------------
      1          8           0        1.215426    0.118032    0.034206
      2          1           0        2.255227    0.653539    0.362811
      3          8           0        3.327055   -0.048097   -0.136120
      4          1           0        3.694906   -0.513995    0.630618
      5         53           0       -0.797924   -0.013189   -0.003361
 ---------------------------------------------------------------------
 Rotational constants (GHZ):    283.1883655      1.6959561      1.6945483

 **********************************************************************

            Population analysis using the SCF density.

 **********************************************************************

 Orbital symmetries:
       Occupied  (A) (A) (A) (A) (A) (A) (A) (A) (A) (A) (A) (A)
                 (A)
       Virtual   (A) (A) (A) (A) (A) (A) (A) (A) (A) (A) (A) (A)
                 (A) (A) (A) (A) (A)
 The electronic state is 1-A.
 Alpha  occ. eigenvalues --  -19.59582 -19.56458  -1.04677  -0.99477  -0.70703
 Alpha  occ. eigenvalues --   -0.51575  -0.43712  -0.38555  -0.37413  -0.33352
 Alpha  occ. eigenvalues --   -0.29629  -0.26913  -0.26705
 Alpha virt. eigenvalues --   -0.01183   0.18075   0.24219   0.42076   0.43452
 Alpha virt. eigenvalues --    0.43500   0.67730   0.73645   0.78409   0.80134
 Alpha virt. eigenvalues --    0.87666   0.88536   1.05991   1.18110   1.42551
 Alpha virt. eigenvalues --    1.59454   9.18859
          Condensed to atoms (all electrons):
              1          2          3          4          5
     1  O    9.065568   0.105010  -0.155377   0.004073  -0.038433
     2  H    0.105010   0.298058   0.158235  -0.013629   0.001875
     3  O   -0.155377   0.158235   8.717257   0.265475   0.014009
     4  H    0.004073  -0.013629   0.265475   0.376033  -0.000542
     5  I   -0.038433   0.001875   0.014009  -0.000542   6.861694
 Mulliken atomic charges:
              1
     1  O   -0.980840
     2  H    0.450452
     3  O   -0.999599
     4  H    0.368590
     5  I    0.161397
 Sum of Mulliken atomic charges =  -1.00000
 Mulliken charges with hydrogens summed into heavy atoms:
              1
     1  O   -0.530389
     3  O   -0.631008
     5  I    0.161397
 Sum of Mulliken charges with hydrogens summed into heavy atoms =  -1.00000
 Electronic spatial extent (au):  <R**2>=            541.7688
 Charge=             -1.0000 electrons
 Dipole moment (field-independent basis, Debye):
    X=             -9.1254    Y=              0.2094    Z=              2.9859  Tot=              9.6038
 Quadrupole moment (field-independent basis, Debye-Ang):
   XX=            -58.1531   YY=            -34.6682   ZZ=            -35.1056
   XY=             -0.3966   XZ=              9.9903   YZ=             -0.2720
 Traceless Quadrupole moment (field-independent basis, Debye-Ang):
   XX=            -15.5108   YY=              7.9741   ZZ=              7.5367
   XY=             -0.3966   XZ=              9.9903   YZ=             -0.2720
 Octapole moment (field-independent basis, Debye-Ang**2):
  XXX=           -131.5971  YYY=             -0.5555  ZZZ=              1.8222  XYY=            -12.5094
  XXY=             -8.4803  XXZ=             33.1802  XZZ=            -13.0135  YZZ=             -0.4102
  YYZ=              1.1053  XYZ=             -1.9185
 Hexadecapole moment (field-independent basis, Debye-Ang**3):
 XXXX=           -900.0543 YYYY=            -53.8362 ZZZZ=            -53.5612 XXXY=            -37.2143
 XXXZ=            120.0544 YYYX=              0.3168 YYYZ=             -0.1775 ZZZX=              7.3462
 ZZZY=             -0.4799 XXYY=           -113.7813 XXZZ=           -114.0843 YYZZ=            -17.7092
 XXYZ=             -8.3425 YYXZ=              3.7976 ZZXY=             -0.7620
 N-N= 5.261684852738D+01 E-N=-4.930396504334D+02  KE= 1.540373993354D+02


 SCIENCE IS LONG AND LIFE IS SHORT.

                     DON MOSER IN THE FEBRUARY 1979 SMITHSONIAN
 Error termination request processed by link 9999.
 Error termination via Lnk1e in C:\G09W\l9999.exe at Tue Feb 02 03:18:48 2021.
 Job cpu time:  0 days  0 hours  2 minutes  6.0 seconds.
 File lengths (MBytes):  RWF=     18 Int=      0 D2E=      0 Chk=      2 Scr=      1
