 Entering Link 1 = C:\G09W\l1.exe PID=      9136.
  
 Copyright (c) 1988,1990,1992,1993,1995,1998,2003,2009, Gaussian, Inc.
                  All Rights Reserved.
  
 This is part of the Gaussian(R) 09 program.  It is based on
 the Gaussian(R) 03 system (copyright 2003, Gaussian, Inc.),
 the Gaussian(R) 98 system (copyright 1998, Gaussian, Inc.),
 the Gaussian(R) 94 system (copyright 1995, Gaussian, Inc.),
 the Gaussian 92(TM) system (copyright 1992, Gaussian, Inc.),
 the Gaussian 90(TM) system (copyright 1990, Gaussian, Inc.),
 the Gaussian 88(TM) system (copyright 1988, Gaussian, Inc.),
 the Gaussian 86(TM) system (copyright 1986, Carnegie Mellon
 University), and the Gaussian 82(TM) system (copyright 1983,
 Carnegie Mellon University). Gaussian is a federally registered
 trademark of Gaussian, Inc.
  
 This software contains proprietary and confidential information,
 including trade secrets, belonging to Gaussian, Inc.
  
 This software is provided under written license and may be
 used, copied, transmitted, or stored only in accord with that
 written license.
  
 The following legend is applicable only to US Government
 contracts under FAR:
  
                    RESTRICTED RIGHTS LEGEND
  
 Use, reproduction and disclosure by the US Government is
 subject to restrictions as set forth in subparagraphs (a)
 and (c) of the Commercial Computer Software - Restricted
 Rights clause in FAR 52.227-19.
  
 Gaussian, Inc.
 340 Quinnipiac St., Bldg. 40, Wallingford CT 06492
  
  
 ---------------------------------------------------------------
 Warning -- This program may not be used in any manner that
 competes with the business of Gaussian, Inc. or will provide
 assistance to any competitor of Gaussian, Inc.  The licensee
 of this program is prohibited from giving any competitor of
 Gaussian, Inc. access to this program.  By using this program,
 the user acknowledges that Gaussian, Inc. is engaged in the
 business of creating and licensing software in the field of
 computational chemistry and represents and warrants to the
 licensee that it is not a competitor of Gaussian, Inc. and that
 it will not use this program in any manner prohibited above.
 ---------------------------------------------------------------
  

 Cite this work as:
 Gaussian 09, Revision A.02,
 M. J. Frisch, G. W. Trucks, H. B. Schlegel, G. E. Scuseria, 
 M. A. Robb, J. R. Cheeseman, G. Scalmani, V. Barone, B. Mennucci, 
 G. A. Petersson, H. Nakatsuji, M. Caricato, X. Li, H. P. Hratchian, 
 A. F. Izmaylov, J. Bloino, G. Zheng, J. L. Sonnenberg, M. Hada, 
 M. Ehara, K. Toyota, R. Fukuda, J. Hasegawa, M. Ishida, T. Nakajima, 
 Y. Honda, O. Kitao, H. Nakai, T. Vreven, J. A. Montgomery, Jr., 
 J. E. Peralta, F. Ogliaro, M. Bearpark, J. J. Heyd, E. Brothers, 
 K. N. Kudin, V. N. Staroverov, R. Kobayashi, J. Normand, 
 K. Raghavachari, A. Rendell, J. C. Burant, S. S. Iyengar, J. Tomasi, 
 M. Cossi, N. Rega, J. M. Millam, M. Klene, J. E. Knox, J. B. Cross, 
 V. Bakken, C. Adamo, J. Jaramillo, R. Gomperts, R. E. Stratmann, 
 O. Yazyev, A. J. Austin, R. Cammi, C. Pomelli, J. W. Ochterski, 
 R. L. Martin, K. Morokuma, V. G. Zakrzewski, G. A. Voth, 
 P. Salvador, J. J. Dannenberg, S. Dapprich, A. D. Daniels, 
 O. Farkas, J. B. Foresman, J. V. Ortiz, J. Cioslowski, 
 and D. J. Fox, Gaussian, Inc., Wallingford CT, 2009.
 
 ******************************************
 Gaussian 09:  IA32W-G09RevA.02 11-Jun-2009
                02-Feb-2021 
 ******************************************
 %chk=D:\Documents\rayGit\FQ\quimicaComputacional\proyecto\decompositionHydrogenP
 eroxide\decompositionCatalyzedByIodine\step1\ts\ts.chk
 %mem=1500MB
 %nprocshared=4
 Will use up to    4 processors via shared memory.
 ----------------------------------------------------------------------
 # opt=(readfc,ts,noeigen) geom=check guess=check freq=noraman lanl2dz 
 scrf=smd iop(1/8=3) m062x
 ----------------------------------------------------------------------
 1/5=1,8=3,10=3,11=1,14=-1,18=20,26=3,29=2,38=1/1,3;
 2/9=110,12=2,40=1/2;
 3/5=6,6=3,11=2,14=-4,16=1,25=1,30=1,70=32201,71=1,72=1,74=-55,116=-2/1,2,3;
 4/5=1/1;
 5/5=2,38=6/2;
 6/7=2,8=2,9=2,10=2,28=1/1;
 7//1,2,3,16;
 1/5=1,8=3,11=1,14=-1,18=20/3(2);
 2/9=110/2;
 99//99;
 2/9=110/2;
 3/5=6,6=3,11=2,14=-2,16=1,25=1,30=1,70=32205,71=1,74=-55/1,2,3;
 4/5=5,16=3/1;
 5/5=2,38=5/2;
 7//1,2,3,16;
 1/5=1,8=3,11=1,14=-1,18=20/3(-5);
 2/9=110/2;
 6/7=2,8=2,9=2,10=2,19=2,28=1/1;
 99/9=1/99;
 -----------------------------
 Hydrogen peroxide with iodine
 -----------------------------
 Redundant internal coordinates taken from checkpoint file:
 D:\Documents\rayGit\FQ\quimicaComputacional\proyecto\decompositionHydrogenPeroxide\decompositionCatalyzedByIodine\step1\ts\ts.chk
 Charge = -1 Multiplicity = 1
 O,0,-1.438629833,0.6988924632,0.2548483867
 H,0,-0.5261913598,0.793968227,-0.541613238
 O,0,0.6813322382,0.6992299265,0.1087345375
 H,0,1.0236819044,1.6062938732,0.1258844517
 I,0,-3.3975349498,0.6482722401,0.7368607121
 Recover connectivity data from disk.

 GradGradGradGradGradGradGradGradGradGradGradGradGradGradGradGradGradGrad
 Berny optimization.
 Initialization pass.
 Force constant matrix read from checkpoint file:
 D:\Documents\rayGit\FQ\quimicaComputacional\proyecto\decompositionHydrogenPeroxi
 de\decompositionCatalyzedByIodine\step1\ts\ts.chk
                           ----------------------------
                           !    Initial Parameters    !
                           ! (Angstroms and Degrees)  !
 --------------------------                            --------------------------
 ! Name  Definition              Value          Derivative Info.                !
 --------------------------------------------------------------------------------
 ! R1    R(1,2)                  1.2149         D2E/DX2 =    0.0844             !
 ! R2    R(1,5)                  2.018          D2E/DX2 =    0.1801             !
 ! R3    R(2,3)                  1.3748         D2E/DX2 =    0.0285             !
 ! R4    R(3,4)                  0.9697         D2E/DX2 =    0.5821             !
 ! A1    A(2,1,5)              152.5764         D2E/DX2 =    0.0361             !
 ! A2    A(1,2,3)              110.1302         D2E/DX2 =    0.2639             !
 ! A3    A(2,3,4)              104.7148         D2E/DX2 =    0.0849             !
 ! D1    D(5,1,2,3)           -179.6696         D2E/DX2 =    0.0061             !
 ! D2    D(1,2,3,4)           -105.2824         D2E/DX2 =   -0.0064             !
 --------------------------------------------------------------------------------
 Trust Radius=3.00D-02 FncErr=1.00D-07 GrdErr=1.00D-06
 Number of steps in this run=  20 maximum allowed number of steps= 100.
 Search for a saddle point of order  1.
 GradGradGradGradGradGradGradGradGradGradGradGradGradGradGradGradGradGrad

                          Input orientation:                          
 ---------------------------------------------------------------------
 Center     Atomic      Atomic             Coordinates (Angstroms)
 Number     Number       Type             X           Y           Z
 ---------------------------------------------------------------------
      1          8           0       -1.438630    0.698892    0.254848
      2          1           0       -0.526191    0.793968   -0.541613
      3          8           0        0.681332    0.699230    0.108735
      4          1           0        1.023682    1.606294    0.125884
      5         53           0       -3.397535    0.648272    0.736861
 ---------------------------------------------------------------------
                    Distance matrix (angstroms):
                    1          2          3          4          5
     1  O    0.000000
     2  H    1.214880   0.000000
     3  O    2.124991   1.374788   0.000000
     4  H    2.627354   1.872841   0.969671   0.000000
     5  I    2.017971   3.146480   4.127263   4.564894   0.000000
 Stoichiometry    H2IO2(1-)
 Framework group  C1[X(H2IO2)]
 Deg. of freedom     9
 Full point group                 C1      NOp   1
 Largest Abelian subgroup         C1      NOp   1
 Largest concise Abelian subgroup C1      NOp   1
                         Standard orientation:                         
 ---------------------------------------------------------------------
 Center     Atomic      Atomic             Coordinates (Angstroms)
 Number     Number       Type             X           Y           Z
 ---------------------------------------------------------------------
      1          8           0        1.215426    0.118032    0.034206
      2          1           0        2.255227    0.653539    0.362811
      3          8           0        3.327055   -0.048097   -0.136120
      4          1           0        3.694906   -0.513995    0.630618
      5         53           0       -0.797924   -0.013189   -0.003361
 ---------------------------------------------------------------------
 Rotational constants (GHZ):    283.1883655      1.6959561      1.6945483
 Standard basis: LANL2DZ (5D, 7F)
 There are    30 symmetry adapted basis functions of A   symmetry.
 Integral buffers will be    262144 words long.
 Raffenetti 2 integral format.
 Two-electron integral symmetry is turned on.
    30 basis functions,    70 primitive gaussians,    30 cartesian basis functions
    13 alpha electrons       13 beta electrons
       nuclear repulsion energy        52.6150446652 Hartrees.
 NAtoms=    5 NActive=    5 NUniq=    5 SFac= 7.50D-01 NAtFMM=   80 NAOKFM=F Big=F
 ------------------------------------------------------------------------------
 Polarizable Continuum Model (PCM)
 =================================
 Model                : PCM.
 Atomic radii         : SMD-Coulomb.
 Polarization charges : Total charges.
 Charge compensation  : None.
 Solution method      : Matrix inversion.
 Cavity type          : VdW (van der Waals Surface) (Alpha=1.000).
 Cavity algorithm     : GePol (No added spheres)
                        Default sphere list used, NSphG=    5.
                        Lebedev-Laikov grids with approx.  5.0 points / Ang**2.
                        Smoothing algorithm: Karplus/York (Gamma=1.0000).
                        Polarization charges: spherical gaussians, with
                                              point-specific exponents (IZeta= 3).
                        Self-potential: point-specific (ISelfS= 7).
                        Self-field    : sphere-specific E.n sum rule (ISelfD= 2).
 1st derivatives      : Analytical E(r).r(x)/FMM algorithm (CHGder, D1EAlg=3).
                        Cavity 1st derivative terms included.
 Solvent              : Water, Eps=  78.355300 Eps(inf)=   1.777849
 ------------------------------------------------------------------------------
 Spheres list:
 ISph  on   Nord    Re0     Alpha      Xe            Ye            Ze
    1   O      1    1.520   1.000      1.215426      0.118032      0.034206
    2   H      2    1.200   1.000      2.255227      0.653539      0.362811
    3   O      3    1.520   1.000      3.327055     -0.048097     -0.136120
    4   H      4    1.200   1.000      3.694906     -0.513995      0.630618
    5   I      5    1.980   1.000     -0.797924     -0.013189     -0.003361
 ------------------------------------------------------------------------------
 ------------------------------------------------------------------------------
 Atomic radii for non-electrostatic terms: SMD-CDS.
 ------------------------------------------------------------------------------
 Nuclear repulsion after PCM non-electrostatic terms =       52.6168485274 Hartrees.
 One-electron integrals computed using PRISM.
   1 Symmetry operations used in ECPInt.
 ECPInt:  NShTT=     171 NPrTT=    1054 LenC2=     172 LenP2D=     922.
 LDataN:  DoStor=T MaxTD1= 4 Len=   56
 NBasis=    30 RedAO= T  NBF=    30
 NBsUse=    30 1.00D-06 NBFU=    30
 Defaulting to unpruned grid for atomic number  53.
 Initial guess read from the checkpoint file:  D:\Documents\rayGit\FQ\quimicaComp
 utacional\proyecto\decompositionHydrogenPeroxide\decompositionCatalyzedByIodine\
 step1\ts\ts.chk
 B after Tr=     0.000000    0.000000    0.000000
         Rot=    1.000000    0.000000    0.000000    0.000000 Ang=   0.00 deg.
 Initial guess orbital symmetries:
       Occupied  (A) (A) (A) (A) (A) (A) (A) (A) (A) (A) (A) (A)
                 (A)
       Virtual   (A) (A) (A) (A) (A) (A) (A) (A) (A) (A) (A) (A)
                 (A) (A) (A) (A) (A)
 Requested convergence on RMS density matrix=1.00D-08 within 128 cycles.
 Requested convergence on MAX density matrix=1.00D-06.
 Requested convergence on             energy=1.00D-06.
 No special actions if energy rises.
 Keep R1 ints in memory in canonical form, NReq=3413335.
 Defaulting to unpruned grid for atomic number  53.
 Defaulting to unpruned grid for atomic number  53.
 Defaulting to unpruned grid for atomic number  53.
 Defaulting to unpruned grid for atomic number  53.
 Error on total polarization charges =  0.07737
 SCF Done:  E(RM062X) =  -162.973459725     A.U. after    1 cycles
             Convg  =    0.1128D-08             -V/T =  2.0580
 SMD-CDS (non-electrostatic) energy             (kcal/mol) =       1.13
 (included in total energy above)

 **********************************************************************

            Population analysis using the SCF density.

 **********************************************************************

 Orbital symmetries:
       Occupied  (A) (A) (A) (A) (A) (A) (A) (A) (A) (A) (A) (A)
                 (A)
       Virtual   (A) (A) (A) (A) (A) (A) (A) (A) (A) (A) (A) (A)
                 (A) (A) (A) (A) (A)
 The electronic state is 1-A.
 Alpha  occ. eigenvalues --  -19.59582 -19.56458  -1.04677  -0.99477  -0.70703
 Alpha  occ. eigenvalues --   -0.51575  -0.43712  -0.38555  -0.37413  -0.33352
 Alpha  occ. eigenvalues --   -0.29629  -0.26913  -0.26705
 Alpha virt. eigenvalues --   -0.01183   0.18075   0.24219   0.42076   0.43452
 Alpha virt. eigenvalues --    0.43500   0.67730   0.73645   0.78409   0.80134
 Alpha virt. eigenvalues --    0.87666   0.88536   1.05991   1.18110   1.42551
 Alpha virt. eigenvalues --    1.59454   9.18859
          Condensed to atoms (all electrons):
              1          2          3          4          5
     1  O    9.065568   0.105010  -0.155377   0.004073  -0.038433
     2  H    0.105010   0.298058   0.158235  -0.013629   0.001875
     3  O   -0.155377   0.158235   8.717257   0.265475   0.014009
     4  H    0.004073  -0.013629   0.265475   0.376033  -0.000542
     5  I   -0.038433   0.001875   0.014009  -0.000542   6.861694
 Mulliken atomic charges:
              1
     1  O   -0.980840
     2  H    0.450452
     3  O   -0.999599
     4  H    0.368590
     5  I    0.161397
 Sum of Mulliken atomic charges =  -1.00000
 Mulliken charges with hydrogens summed into heavy atoms:
              1
     1  O   -0.530389
     3  O   -0.631008
     5  I    0.161397
 Sum of Mulliken charges with hydrogens summed into heavy atoms =  -1.00000
 Electronic spatial extent (au):  <R**2>=            541.7688
 Charge=             -1.0000 electrons
 Dipole moment (field-independent basis, Debye):
    X=             -9.1254    Y=              0.2094    Z=              2.9859  Tot=              9.6038
 Quadrupole moment (field-independent basis, Debye-Ang):
   XX=            -58.1531   YY=            -34.6682   ZZ=            -35.1056
   XY=             -0.3966   XZ=              9.9903   YZ=             -0.2720
 Traceless Quadrupole moment (field-independent basis, Debye-Ang):
   XX=            -15.5108   YY=              7.9741   ZZ=              7.5367
   XY=             -0.3966   XZ=              9.9903   YZ=             -0.2720
 Octapole moment (field-independent basis, Debye-Ang**2):
  XXX=           -131.5971  YYY=             -0.5555  ZZZ=              1.8222  XYY=            -12.5094
  XXY=             -8.4803  XXZ=             33.1802  XZZ=            -13.0135  YZZ=             -0.4102
  YYZ=              1.1053  XYZ=             -1.9185
 Hexadecapole moment (field-independent basis, Debye-Ang**3):
 XXXX=           -900.0543 YYYY=            -53.8362 ZZZZ=            -53.5612 XXXY=            -37.2143
 XXXZ=            120.0544 YYYX=              0.3168 YYYZ=             -0.1775 ZZZX=              7.3462
 ZZZY=             -0.4799 XXYY=           -113.7813 XXZZ=           -114.0843 YYZZ=            -17.7092
 XXYZ=             -8.3425 YYXZ=              3.7976 ZZXY=             -0.7620
 N-N= 5.261684852738D+01 E-N=-4.930396500465D+02  KE= 1.540373991409D+02
   1 Symmetry operations used in ECPInt.
 ECPInt:  NShTT=     171 NPrTT=    1054 LenC2=     172 LenP2D=     922.
 LDataN:  DoStor=T MaxTD1= 5 Len=  102
 D1PCM: PCM CHGder 1st derivatives, ID1Alg=3 FixD1E=F DoIter=F DoCFld=F I1PDM=0.
 Calling FoFJK, ICntrl=      2127 FMM=F ISym2X=0 I1Cent= 0 IOpClX= 0 NMat=1 NMatS=1 NMatT=0.
 Defaulting to unpruned grid for atomic number  53.
 Defaulting to unpruned grid for atomic number  53.
 Defaulting to unpruned grid for atomic number  53.
 Defaulting to unpruned grid for atomic number  53.
 ***** Axes restored to original set *****
 -------------------------------------------------------------------
 Center     Atomic                   Forces (Hartrees/Bohr)
 Number     Number              X              Y              Z
 -------------------------------------------------------------------
      1        8          -0.008822875    0.001250282   -0.004517495
      2        1           0.019703608   -0.007960737    0.051207957
      3        8           0.001457160   -0.004408673   -0.041697466
      4        1           0.005252854    0.010445298    0.000725233
      5       53          -0.017590749    0.000673830   -0.005718229
 -------------------------------------------------------------------
 Cartesian Forces:  Max     0.051207957 RMS     0.018997758

 GradGradGradGradGradGradGradGradGradGradGradGradGradGradGradGradGradGrad
 Berny optimization.
 Internal  Forces:  Max     0.100208628 RMS     0.037117995
 Search for a saddle point.
 Step number   1 out of a maximum of   20
 All quantities printed in internal units (Hartrees-Bohrs-Radians)
 Swaping is turned off.
 Second derivative matrix not updated -- first step.
 The second derivative matrix:
                          R1        R2        R3        R4        A1
           R1           0.08444
           R2           0.02294   0.18005
           R3           0.15208   0.03595   0.02855
           R4          -0.00398  -0.00399  -0.00629   0.58212
           A1           0.00259   0.02674   0.02134  -0.00561   0.03608
           A2           0.10872   0.08815   0.09476   0.00172  -0.02109
           A3           0.00665   0.00185   0.00986   0.01146   0.00368
           D1           0.00158   0.00223   0.00288  -0.00091   0.00102
           D2          -0.00231  -0.00226   0.00669   0.00259   0.00510
                          A2        A3        D1        D2
           A2           0.26391
           A3          -0.00973   0.08492
           D1           0.00350  -0.00129   0.00613
           D2           0.00531   0.01143  -0.00100  -0.00638
     Eigenvalues ---   -0.10061  -0.00941   0.00608   0.01948   0.07583
     Eigenvalues ---    0.10896   0.15582   0.42100   0.58268
 Eigenvectors required to have negative eigenvalues:
                          R3        R1        A1        D2        R2
   1                    0.77258  -0.62230  -0.10090  -0.06336  -0.03502
                          A3        A2        D1        R4
   1                   -0.01339  -0.01195  -0.01030   0.00294
 RFO step:  Lambda0=2.465724994D-03 Lambda=-5.26987105D-02.
 Linear search not attempted -- option 19 set.
 Maximum step size (   0.030) exceeded in Quadratic search.
    -- Step size scaled by   0.052
 Iteration  1 RMS(Cart)=  0.02285518 RMS(Int)=  0.00035938
 Iteration  2 RMS(Cart)=  0.00037928 RMS(Int)=  0.00000006
 Iteration  3 RMS(Cart)=  0.00000009 RMS(Int)=  0.00000000
 Variable       Old X    -DE/DX   Delta X   Delta X   Delta X     New X
                                 (Linear)    (Quad)   (Total)
    R1        2.29579   0.01253   0.00000  -0.01151  -0.01151   2.28428
    R2        3.81341   0.01568   0.00000  -0.00089  -0.00089   3.81252
    R3        2.59797  -0.01352   0.00000  -0.00131  -0.00131   2.59666
    R4        1.83241   0.01167   0.00000   0.00060   0.00060   1.83301
    A1        2.66296  -0.04035   0.00000  -0.01786  -0.01786   2.64510
    A2        1.92213   0.10021   0.00000   0.02007   0.02007   1.94220
    A3        1.82762   0.00268   0.00000   0.00404   0.00404   1.83165
    D1       -3.13583   0.00020   0.00000  -0.00052  -0.00052  -3.13635
    D2       -1.83752   0.00029   0.00000  -0.00515  -0.00515  -1.84268
         Item               Value     Threshold  Converged?
 Maximum Force            0.100209     0.000450     NO 
 RMS     Force            0.037118     0.000300     NO 
 Maximum Displacement     0.034888     0.001800     NO 
 RMS     Displacement     0.022758     0.001200     NO 
 Predicted change in Energy=-2.561008D-03
 GradGradGradGradGradGradGradGradGradGradGradGradGradGradGradGradGradGrad

                          Input orientation:                          
 ---------------------------------------------------------------------
 Center     Atomic      Atomic             Coordinates (Angstroms)
 Number     Number       Type             X           Y           Z
 ---------------------------------------------------------------------
      1          8           0       -1.439681    0.695912    0.270525
      2          1           0       -0.533900    0.799872   -0.523151
      3          8           0        0.687573    0.699609    0.098203
      4          1           0        1.033943    1.605459    0.116705
      5         53           0       -3.405277    0.645804    0.722434
 ---------------------------------------------------------------------
                    Distance matrix (angstroms):
                    1          2          3          4          5
     1  O    0.000000
     2  H    1.208788   0.000000
     3  O    2.134225   1.374092   0.000000
     4  H    2.640029   1.875238   0.969989   0.000000
     5  I    2.017498   3.133691   4.140528   4.581978   0.000000
 Stoichiometry    H2IO2(1-)
 Framework group  C1[X(H2IO2)]
 Deg. of freedom     9
 Full point group                 C1      NOp   1
 Largest Abelian subgroup         C1      NOp   1
 Largest concise Abelian subgroup C1      NOp   1
                         Standard orientation:                         
 ---------------------------------------------------------------------
 Center     Atomic      Atomic             Coordinates (Angstroms)
 Number     Number       Type             X           Y           Z
 ---------------------------------------------------------------------
      1          8           0       -1.214578   -0.086485    0.054548
      2          1           0       -2.245308   -0.480781    0.547798
      3          8           0       -3.338771   -0.006794   -0.136164
      4          1           0       -3.711081    0.683370    0.434746
      5         53           0        0.799683    0.010257   -0.006219
 ---------------------------------------------------------------------
 Rotational constants (GHZ):    309.0365786      1.6867042      1.6861257
 Standard basis: LANL2DZ (5D, 7F)
 There are    30 symmetry adapted basis functions of A   symmetry.
 Integral buffers will be    262144 words long.
 Raffenetti 2 integral format.
 Two-electron integral symmetry is turned on.
    30 basis functions,    70 primitive gaussians,    30 cartesian basis functions
    13 alpha electrons       13 beta electrons
       nuclear repulsion energy        52.5379010295 Hartrees.
 NAtoms=    5 NActive=    5 NUniq=    5 SFac= 7.50D-01 NAtFMM=   80 NAOKFM=F Big=F
 ------------------------------------------------------------------------------
 Polarizable Continuum Model (PCM)
 =================================
 Model                : PCM.
 Atomic radii         : SMD-Coulomb.
 Polarization charges : Total charges.
 Charge compensation  : None.
 Solution method      : Matrix inversion.
 Cavity type          : VdW (van der Waals Surface) (Alpha=1.000).
 Cavity algorithm     : GePol (No added spheres)
                        Default sphere list used, NSphG=    5.
                        Lebedev-Laikov grids with approx.  5.0 points / Ang**2.
                        Smoothing algorithm: Karplus/York (Gamma=1.0000).
                        Polarization charges: spherical gaussians, with
                                              point-specific exponents (IZeta= 3).
                        Self-potential: point-specific (ISelfS= 7).
                        Self-field    : sphere-specific E.n sum rule (ISelfD= 2).
 1st derivatives      : Analytical E(r).r(x)/FMM algorithm (CHGder, D1EAlg=3).
                        Cavity 1st derivative terms included.
 Solvent              : Water, Eps=  78.355300 Eps(inf)=   1.777849
 ------------------------------------------------------------------------------
 Spheres list:
 ISph  on   Nord    Re0     Alpha      Xe            Ye            Ze
    1   O      1    1.520   1.000     -1.214578     -0.086485      0.054548
    2   H      2    1.200   1.000     -2.245308     -0.480781      0.547798
    3   O      3    1.520   1.000     -3.338771     -0.006794     -0.136164
    4   H      4    1.200   1.000     -3.711081      0.683370      0.434746
    5   I      5    1.980   1.000      0.799683      0.010257     -0.006219
 ------------------------------------------------------------------------------
 ------------------------------------------------------------------------------
 Atomic radii for non-electrostatic terms: SMD-CDS.
 ------------------------------------------------------------------------------
 Nuclear repulsion after PCM non-electrostatic terms =       52.5396898599 Hartrees.
 One-electron integrals computed using PRISM.
   1 Symmetry operations used in ECPInt.
 ECPInt:  NShTT=     171 NPrTT=    1054 LenC2=     172 LenP2D=     922.
 LDataN:  DoStor=T MaxTD1= 4 Len=   56
 NBasis=    30 RedAO= T  NBF=    30
 NBsUse=    30 1.00D-06 NBFU=    30
 Defaulting to unpruned grid for atomic number  53.
 Initial guess read from the read-write file.
 B after Tr=     0.000000    0.000000    0.000000
         Rot=    1.000000    0.000000    0.000000    0.000000 Ang=   0.00 deg.
 Initial guess orbital symmetries:
       Occupied  (A) (A) (A) (A) (A) (A) (A) (A) (A) (A) (A) (A)
                 (A)
       Virtual   (A) (A) (A) (A) (A) (A) (A) (A) (A) (A) (A) (A)
                 (A) (A) (A) (A) (A)
 Harris functional with IExCor= 1009 diagonalized for initial guess.
 ExpMin= 1.05D-01 ExpMax= 7.82D+03 ExpMxC= 2.73D+02 IAcc=1 IRadAn=         1 AccDes= 0.00D+00
 HarFok:  IExCor= 1009 AccDes= 0.00D+00 IRadAn=         1 IDoV= 1
 ScaDFX=  1.000000  1.000000  1.000000  1.000000
 Defaulting to unpruned grid for atomic number  53.
 Defaulting to unpruned grid for atomic number  53.
 Defaulting to unpruned grid for atomic number  53.
 Defaulting to unpruned grid for atomic number  53.
 FoFCou: FMM=F IPFlag=           0 FMFlag=      100000 FMFlg1=           0
         NFxFlg=           0 DoJE=T BraDBF=F KetDBF=T FulRan=T
         Omega=  0.000000  0.000000  1.000000  0.000000  0.000000 ICntrl=     500 IOpCl=  0
         NMat0=    1 NMatS0=    1 NMatT0=    0 NMatD0=    1 NMtDS0=    0 NMtDT0=    0
         I1Cent=           4 NGrid=           0.
 Petite list used in FoFCou.
 Requested convergence on RMS density matrix=1.00D-08 within 128 cycles.
 Requested convergence on MAX density matrix=1.00D-06.
 Requested convergence on             energy=1.00D-06.
 No special actions if energy rises.
 Keep R1 ints in memory in canonical form, NReq=3414528.
 Defaulting to unpruned grid for atomic number  53.
 Defaulting to unpruned grid for atomic number  53.
 Defaulting to unpruned grid for atomic number  53.
 Defaulting to unpruned grid for atomic number  53.
 Error on total polarization charges =  0.07720
 SCF Done:  E(RM062X) =  -162.976042086     A.U. after   14 cycles
             Convg  =    0.5640D-08             -V/T =  2.0580
 SMD-CDS (non-electrostatic) energy             (kcal/mol) =       1.12
 (included in total energy above)
   1 Symmetry operations used in ECPInt.
 ECPInt:  NShTT=     171 NPrTT=    1054 LenC2=     172 LenP2D=     922.
 LDataN:  DoStor=T MaxTD1= 5 Len=  102
 D1PCM: PCM CHGder 1st derivatives, ID1Alg=3 FixD1E=F DoIter=F DoCFld=F I1PDM=0.
 Calling FoFJK, ICntrl=      2127 FMM=F ISym2X=0 I1Cent= 0 IOpClX= 0 NMat=1 NMatS=1 NMatT=0.
 Defaulting to unpruned grid for atomic number  53.
 Defaulting to unpruned grid for atomic number  53.
 Defaulting to unpruned grid for atomic number  53.
 Defaulting to unpruned grid for atomic number  53.
 ***** Axes restored to original set *****
 -------------------------------------------------------------------
 Center     Atomic                   Forces (Hartrees/Bohr)
 Number     Number              X              Y              Z
 -------------------------------------------------------------------
      1        8          -0.008527507    0.000935610   -0.004128411
      2        1           0.019844695   -0.008200156    0.049480340
      3        8           0.000268773   -0.003786678   -0.040179539
      4        1           0.005187242    0.010173329    0.000776808
      5       53          -0.016773202    0.000877895   -0.005949199
 -------------------------------------------------------------------
 Cartesian Forces:  Max     0.049480340 RMS     0.018398033

 GradGradGradGradGradGradGradGradGradGradGradGradGradGradGradGradGradGrad
 Berny optimization.
 Internal  Forces:  Max     0.096435785 RMS     0.035755580
 Search for a saddle point.
 Step number   2 out of a maximum of   20
 All quantities printed in internal units (Hartrees-Bohrs-Radians)
 Swaping is turned off.
 Update second derivatives using D2CorX and points    1    2
 The second derivative matrix:
                          R1        R2        R3        R4        A1
           R1           0.09134
           R2           0.02473   0.18019
           R3           0.15328   0.03615   0.02872
           R4          -0.00093  -0.00408  -0.00605   0.58106
           A1           0.00920   0.02951   0.02283   0.00019   0.03899
           A2           0.10587   0.08504   0.09349  -0.00600  -0.01608
           A3           0.00341   0.00122   0.00937   0.01061  -0.00011
           D1          -0.00013   0.00231   0.00276  -0.00023  -0.00232
           D2          -0.00004  -0.00146   0.00715   0.00417   0.00659
                          A2        A3        D1        D2
           A2           0.24767
           A3          -0.00684   0.08629
           D1           0.00804  -0.00083   0.00570
           D2           0.00593   0.01023  -0.00191  -0.00577
     Eigenvalues ---   -0.09841  -0.00917   0.00552   0.02043   0.08201
     Eigenvalues ---    0.10524   0.15578   0.41103   0.58177
 Eigenvectors required to have negative eigenvalues:
                          R3        R1        A1        D2        R2
   1                    0.78243  -0.61296  -0.08206  -0.05199  -0.03263
                          A3        D1        A2        R4
   1                   -0.02647  -0.02231  -0.01863   0.00651
 RFO step:  Lambda0=2.732071283D-03 Lambda=-5.12574368D-02.
 Linear search not attempted -- option 19 set.
 Maximum step size (   0.030) exceeded in Quadratic search.
    -- Step size scaled by   0.052
 Iteration  1 RMS(Cart)=  0.02148704 RMS(Int)=  0.00039426
 Iteration  2 RMS(Cart)=  0.00038853 RMS(Int)=  0.00000008
 Iteration  3 RMS(Cart)=  0.00000010 RMS(Int)=  0.00000000
 Variable       Old X    -DE/DX   Delta X   Delta X   Delta X     New X
                                 (Linear)    (Quad)   (Total)
    R1        2.28428   0.01183   0.00000  -0.01155  -0.01155   2.27273
    R2        3.81252   0.01499   0.00000  -0.00029  -0.00029   3.81223
    R3        2.59666  -0.01315   0.00000   0.00042   0.00042   2.59708
    R4        1.83301   0.01140   0.00000   0.00107   0.00107   1.83408
    A1        2.64510  -0.03914   0.00000  -0.01884  -0.01884   2.62626
    A2        1.94220   0.09644   0.00000   0.01976   0.01976   1.96195
    A3        1.83165   0.00257   0.00000   0.00170   0.00170   1.83335
    D1       -3.13635   0.00000   0.00000  -0.00337  -0.00337  -3.13972
    D2       -1.84268   0.00022   0.00000   0.00237   0.00237  -1.84030
         Item               Value     Threshold  Converged?
 Maximum Force            0.096436     0.000450     NO 
 RMS     Force            0.035756     0.000300     NO 
 Maximum Displacement     0.032911     0.001800     NO 
 RMS     Displacement     0.021416     0.001200     NO 
 Predicted change in Energy=-2.468981D-03
 GradGradGradGradGradGradGradGradGradGradGradGradGradGradGradGradGradGrad

                          Input orientation:                          
 ---------------------------------------------------------------------
 Center     Atomic      Atomic             Coordinates (Angstroms)
 Number     Number       Type             X           Y           Z
 ---------------------------------------------------------------------
      1          8           0       -1.439496    0.691482    0.286000
      2          1           0       -0.541213    0.804083   -0.505735
      3          8           0        0.694840    0.699357    0.085831
      4          1           0        1.040104    1.606098    0.110166
      5         53           0       -3.411577    0.645636    0.708454
 ---------------------------------------------------------------------
                    Distance matrix (angstroms):
                    1          2          3          4          5
     1  O    0.000000
     2  H    1.202678   0.000000
     3  O    2.143716   1.374316   0.000000
     4  H    2.648746   1.877000   0.970556   0.000000
     5  I    2.017343   3.120632   4.153697   4.593245   0.000000
 Stoichiometry    H2IO2(1-)
 Framework group  C1[X(H2IO2)]
 Deg. of freedom     9
 Full point group                 C1      NOp   1
 Largest Abelian subgroup         C1      NOp   1
 Largest concise Abelian subgroup C1      NOp   1
                         Standard orientation:                         
 ---------------------------------------------------------------------
 Center     Atomic      Atomic             Coordinates (Angstroms)
 Number     Number       Type             X           Y           Z
 ---------------------------------------------------------------------
      1          8           0       -1.213872   -0.057094    0.059384
      2          1           0       -2.235083   -0.255030    0.663028
      3          8           0       -3.350494   -0.056336   -0.114869
      4          1           0       -3.720756    0.788577    0.186804
      5         53           0        0.801335    0.007055   -0.007659
 ---------------------------------------------------------------------
 Rotational constants (GHZ):    334.5586357      1.6780532      1.6777840
 Standard basis: LANL2DZ (5D, 7F)
 There are    30 symmetry adapted basis functions of A   symmetry.
 Integral buffers will be    262144 words long.
 Raffenetti 2 integral format.
 Two-electron integral symmetry is turned on.
    30 basis functions,    70 primitive gaussians,    30 cartesian basis functions
    13 alpha electrons       13 beta electrons
       nuclear repulsion energy        52.4582512848 Hartrees.
 NAtoms=    5 NActive=    5 NUniq=    5 SFac= 7.50D-01 NAtFMM=   80 NAOKFM=F Big=F
 ------------------------------------------------------------------------------
 Polarizable Continuum Model (PCM)
 =================================
 Model                : PCM.
 Atomic radii         : SMD-Coulomb.
 Polarization charges : Total charges.
 Charge compensation  : None.
 Solution method      : Matrix inversion.
 Cavity type          : VdW (van der Waals Surface) (Alpha=1.000).
 Cavity algorithm     : GePol (No added spheres)
                        Default sphere list used, NSphG=    5.
                        Lebedev-Laikov grids with approx.  5.0 points / Ang**2.
                        Smoothing algorithm: Karplus/York (Gamma=1.0000).
                        Polarization charges: spherical gaussians, with
                                              point-specific exponents (IZeta= 3).
                        Self-potential: point-specific (ISelfS= 7).
                        Self-field    : sphere-specific E.n sum rule (ISelfD= 2).
 1st derivatives      : Analytical E(r).r(x)/FMM algorithm (CHGder, D1EAlg=3).
                        Cavity 1st derivative terms included.
 Solvent              : Water, Eps=  78.355300 Eps(inf)=   1.777849
 ------------------------------------------------------------------------------
 Spheres list:
 ISph  on   Nord    Re0     Alpha      Xe            Ye            Ze
    1   O      1    1.520   1.000     -1.213872     -0.057094      0.059384
    2   H      2    1.200   1.000     -2.235083     -0.255030      0.663028
    3   O      3    1.520   1.000     -3.350494     -0.056336     -0.114869
    4   H      4    1.200   1.000     -3.720756      0.788577      0.186804
    5   I      5    1.980   1.000      0.801335      0.007055     -0.007659
 ------------------------------------------------------------------------------
 ------------------------------------------------------------------------------
 Atomic radii for non-electrostatic terms: SMD-CDS.
 ------------------------------------------------------------------------------
 Nuclear repulsion after PCM non-electrostatic terms =       52.4600475635 Hartrees.
 One-electron integrals computed using PRISM.
   1 Symmetry operations used in ECPInt.
 ECPInt:  NShTT=     171 NPrTT=    1054 LenC2=     172 LenP2D=     922.
 LDataN:  DoStor=T MaxTD1= 4 Len=   56
 NBasis=    30 RedAO= T  NBF=    30
 NBsUse=    30 1.00D-06 NBFU=    30
 Defaulting to unpruned grid for atomic number  53.
 Initial guess read from the read-write file.
 B after Tr=     0.000000    0.000000    0.000000
         Rot=    1.000000    0.000000    0.000000    0.000000 Ang=   0.00 deg.
 Initial guess orbital symmetries:
       Occupied  (A) (A) (A) (A) (A) (A) (A) (A) (A) (A) (A) (A)
                 (A)
       Virtual   (A) (A) (A) (A) (A) (A) (A) (A) (A) (A) (A) (A)
                 (A) (A) (A) (A) (A)
 Harris functional with IExCor= 1009 diagonalized for initial guess.
 ExpMin= 1.05D-01 ExpMax= 7.82D+03 ExpMxC= 2.73D+02 IAcc=1 IRadAn=         1 AccDes= 0.00D+00
 HarFok:  IExCor= 1009 AccDes= 0.00D+00 IRadAn=         1 IDoV= 1
 ScaDFX=  1.000000  1.000000  1.000000  1.000000
 Defaulting to unpruned grid for atomic number  53.
 Defaulting to unpruned grid for atomic number  53.
 Defaulting to unpruned grid for atomic number  53.
 Defaulting to unpruned grid for atomic number  53.
 FoFCou: FMM=F IPFlag=           0 FMFlag=      100000 FMFlg1=           0
         NFxFlg=           0 DoJE=T BraDBF=F KetDBF=T FulRan=T
         Omega=  0.000000  0.000000  1.000000  0.000000  0.000000 ICntrl=     500 IOpCl=  0
         NMat0=    1 NMatS0=    1 NMatT0=    0 NMatD0=    1 NMtDS0=    0 NMtDT0=    0
         I1Cent=           4 NGrid=           0.
 Petite list used in FoFCou.
 Requested convergence on RMS density matrix=1.00D-08 within 128 cycles.
 Requested convergence on MAX density matrix=1.00D-06.
 Requested convergence on             energy=1.00D-06.
 No special actions if energy rises.
 Keep R1 ints in memory in canonical form, NReq=3423443.
 Defaulting to unpruned grid for atomic number  53.
 Defaulting to unpruned grid for atomic number  53.
 Defaulting to unpruned grid for atomic number  53.
 Defaulting to unpruned grid for atomic number  53.
 Error on total polarization charges =  0.07729
 SCF Done:  E(RM062X) =  -162.978447386     A.U. after   13 cycles
             Convg  =    0.3049D-08             -V/T =  2.0581
 SMD-CDS (non-electrostatic) energy             (kcal/mol) =       1.13
 (included in total energy above)
   1 Symmetry operations used in ECPInt.
 ECPInt:  NShTT=     171 NPrTT=    1054 LenC2=     172 LenP2D=     922.
 LDataN:  DoStor=T MaxTD1= 5 Len=  102
 D1PCM: PCM CHGder 1st derivatives, ID1Alg=3 FixD1E=F DoIter=F DoCFld=F I1PDM=0.
 Calling FoFJK, ICntrl=      2127 FMM=F ISym2X=0 I1Cent= 0 IOpClX= 0 NMat=1 NMatS=1 NMatT=0.
 Defaulting to unpruned grid for atomic number  53.
 Defaulting to unpruned grid for atomic number  53.
 Defaulting to unpruned grid for atomic number  53.
 Defaulting to unpruned grid for atomic number  53.
 ***** Axes restored to original set *****
 -------------------------------------------------------------------
 Center     Atomic                   Forces (Hartrees/Bohr)
 Number     Number              X              Y              Z
 -------------------------------------------------------------------
      1        8          -0.007770300    0.001101595   -0.003290114
      2        1           0.020080962   -0.008855787    0.047476768
      3        8          -0.001183192   -0.002931858   -0.038764544
      4        1           0.004919644    0.009592274    0.000835196
      5       53          -0.016047114    0.001093775   -0.006257306
 -------------------------------------------------------------------
 Cartesian Forces:  Max     0.047476768 RMS     0.017768112

 GradGradGradGradGradGradGradGradGradGradGradGradGradGradGradGradGradGrad
 Berny optimization.
 Internal  Forces:  Max     0.092103536 RMS     0.034284115
 Search for a saddle point.
 Step number   3 out of a maximum of   20
 All quantities printed in internal units (Hartrees-Bohrs-Radians)
 Swaping is turned off.
 Update second derivatives using D2CorX and points    1    2    3
 The second derivative matrix:
                          R1        R2        R3        R4        A1
           R1           0.09338
           R2           0.02673   0.18045
           R3           0.14777   0.03562   0.02962
           R4          -0.00242  -0.00438  -0.00538   0.58135
           A1           0.00587   0.03209   0.01505  -0.00140   0.02425
           A2           0.09960   0.08134   0.10340  -0.00311  -0.01423
           A3           0.00413   0.00093   0.01028   0.01077   0.00213
           D1           0.00493   0.00322   0.00074  -0.00114   0.00339
           D2           0.00304  -0.00124   0.00685   0.00384   0.01120
                          A2        A3        D1        D2
           A2           0.26340
           A3          -0.00762   0.08597
           D1          -0.00167  -0.00143   0.00856
           D2           0.00047   0.00969  -0.00094  -0.00574
     Eigenvalues ---   -0.09197  -0.01173   0.00824   0.01523   0.07873
     Eigenvalues ---    0.10652   0.15656   0.41773   0.58193
 Eigenvectors required to have negative eigenvalues:
                          R3        R1        A1        A2        A3
   1                    0.79623  -0.59471  -0.07322  -0.06427  -0.03247
                          D2        D1        R2        R4
   1                   -0.02894   0.02466  -0.01820   0.00438
 RFO step:  Lambda0=4.362227045D-03 Lambda=-5.00949762D-02.
 Linear search not attempted -- option 19 set.
 Maximum step size (   0.030) exceeded in Quadratic search.
    -- Step size scaled by   0.033
 Iteration  1 RMS(Cart)=  0.01648700 RMS(Int)=  0.00021984
 Iteration  2 RMS(Cart)=  0.00019179 RMS(Int)=  0.00000002
 Iteration  3 RMS(Cart)=  0.00000002 RMS(Int)=  0.00000000
 Variable       Old X    -DE/DX   Delta X   Delta X   Delta X     New X
                                 (Linear)    (Quad)   (Total)
    R1        2.27273   0.01100   0.00000  -0.00792  -0.00792   2.26481
    R2        3.81223   0.01435   0.00000   0.00245   0.00245   3.81468
    R3        2.59708  -0.01323   0.00000   0.00217   0.00217   2.59926
    R4        1.83408   0.01076   0.00000   0.00047   0.00047   1.83455
    A1        2.62626  -0.03835   0.00000  -0.02157  -0.02157   2.60469
    A2        1.96195   0.09210   0.00000   0.00964   0.00964   1.97159
    A3        1.83335   0.00262   0.00000   0.00001   0.00001   1.83336
    D1       -3.13972   0.00019   0.00000   0.00321   0.00321  -3.13651
    D2       -1.84030   0.00045   0.00000   0.01605   0.01605  -1.82425
         Item               Value     Threshold  Converged?
 Maximum Force            0.092104     0.000450     NO 
 RMS     Force            0.034284     0.000300     NO 
 Maximum Displacement     0.027429     0.001800     NO 
 RMS     Displacement     0.016507     0.001200     NO 
 Predicted change in Energy=-1.635324D-03
 GradGradGradGradGradGradGradGradGradGradGradGradGradGradGradGradGradGrad

                          Input orientation:                          
 ---------------------------------------------------------------------
 Center     Atomic      Atomic             Coordinates (Angstroms)
 Number     Number       Type             X           Y           Z
 ---------------------------------------------------------------------
      1          8           0       -1.435642    0.689721    0.300515
      2          1           0       -0.547119    0.804218   -0.495591
      3          8           0        0.700497    0.698381    0.073763
      4          1           0        1.039391    1.607435    0.108877
      5         53           0       -3.414469    0.646901    0.697151
 ---------------------------------------------------------------------
                    Distance matrix (angstroms):
                    1          2          3          4          5
     1  O    0.000000
     2  H    1.198485   0.000000
     3  O    2.148158   1.375467   0.000000
     4  H    2.646642   1.878178   0.970805   0.000000
     5  I    2.018640   3.109514   4.162236   4.594079   0.000000
 Stoichiometry    H2IO2(1-)
 Framework group  C1[X(H2IO2)]
 Deg. of freedom     9
 Full point group                 C1      NOp   1
 Largest Abelian subgroup         C1      NOp   1
 Largest concise Abelian subgroup C1      NOp   1
                         Standard orientation:                         
 ---------------------------------------------------------------------
 Center     Atomic      Atomic             Coordinates (Angstroms)
 Number     Number       Type             X           Y           Z
 ---------------------------------------------------------------------
      1          8           0       -1.214871   -0.045100    0.045894
      2          1           0       -2.225685   -0.172188    0.677139
      3          8           0       -3.358088   -0.072154   -0.097178
      4          1           0       -3.719954    0.807280    0.098040
      5         53           0        0.802440    0.005716   -0.006885
 ---------------------------------------------------------------------
 Rotational constants (GHZ):    354.5699209      1.6728358      1.6720737
 Standard basis: LANL2DZ (5D, 7F)
 There are    30 symmetry adapted basis functions of A   symmetry.
 Integral buffers will be    262144 words long.
 Raffenetti 2 integral format.
 Two-electron integral symmetry is turned on.
    30 basis functions,    70 primitive gaussians,    30 cartesian basis functions
    13 alpha electrons       13 beta electrons
       nuclear repulsion energy        52.4153162911 Hartrees.
 NAtoms=    5 NActive=    5 NUniq=    5 SFac= 7.50D-01 NAtFMM=   80 NAOKFM=F Big=F
 ------------------------------------------------------------------------------
 Polarizable Continuum Model (PCM)
 =================================
 Model                : PCM.
 Atomic radii         : SMD-Coulomb.
 Polarization charges : Total charges.
 Charge compensation  : None.
 Solution method      : Matrix inversion.
 Cavity type          : VdW (van der Waals Surface) (Alpha=1.000).
 Cavity algorithm     : GePol (No added spheres)
                        Default sphere list used, NSphG=    5.
                        Lebedev-Laikov grids with approx.  5.0 points / Ang**2.
                        Smoothing algorithm: Karplus/York (Gamma=1.0000).
                        Polarization charges: spherical gaussians, with
                                              point-specific exponents (IZeta= 3).
                        Self-potential: point-specific (ISelfS= 7).
                        Self-field    : sphere-specific E.n sum rule (ISelfD= 2).
 1st derivatives      : Analytical E(r).r(x)/FMM algorithm (CHGder, D1EAlg=3).
                        Cavity 1st derivative terms included.
 Solvent              : Water, Eps=  78.355300 Eps(inf)=   1.777849
 ------------------------------------------------------------------------------
 Spheres list:
 ISph  on   Nord    Re0     Alpha      Xe            Ye            Ze
    1   O      1    1.520   1.000     -1.214871     -0.045100      0.045894
    2   H      2    1.200   1.000     -2.225685     -0.172188      0.677139
    3   O      3    1.520   1.000     -3.358088     -0.072154     -0.097178
    4   H      4    1.200   1.000     -3.719954      0.807280      0.098040
    5   I      5    1.980   1.000      0.802440      0.005716     -0.006885
 ------------------------------------------------------------------------------
 ------------------------------------------------------------------------------
 Atomic radii for non-electrostatic terms: SMD-CDS.
 ------------------------------------------------------------------------------
 Nuclear repulsion after PCM non-electrostatic terms =       52.4171061659 Hartrees.
 One-electron integrals computed using PRISM.
   1 Symmetry operations used in ECPInt.
 ECPInt:  NShTT=     171 NPrTT=    1054 LenC2=     172 LenP2D=     920.
 LDataN:  DoStor=T MaxTD1= 4 Len=   56
 NBasis=    30 RedAO= T  NBF=    30
 NBsUse=    30 1.00D-06 NBFU=    30
 Defaulting to unpruned grid for atomic number  53.
 Initial guess read from the read-write file.
 B after Tr=     0.000000    0.000000    0.000000
         Rot=    1.000000    0.000000    0.000000    0.000000 Ang=   0.00 deg.
 Initial guess orbital symmetries:
       Occupied  (A) (A) (A) (A) (A) (A) (A) (A) (A) (A) (A) (A)
                 (A)
       Virtual   (A) (A) (A) (A) (A) (A) (A) (A) (A) (A) (A) (A)
                 (A) (A) (A) (A) (A)
 Harris functional with IExCor= 1009 diagonalized for initial guess.
 ExpMin= 1.05D-01 ExpMax= 7.82D+03 ExpMxC= 2.73D+02 IAcc=1 IRadAn=         1 AccDes= 0.00D+00
 HarFok:  IExCor= 1009 AccDes= 0.00D+00 IRadAn=         1 IDoV= 1
 ScaDFX=  1.000000  1.000000  1.000000  1.000000
 Defaulting to unpruned grid for atomic number  53.
 Defaulting to unpruned grid for atomic number  53.
 Defaulting to unpruned grid for atomic number  53.
 Defaulting to unpruned grid for atomic number  53.
 FoFCou: FMM=F IPFlag=           0 FMFlag=      100000 FMFlg1=           0
         NFxFlg=           0 DoJE=T BraDBF=F KetDBF=T FulRan=T
         Omega=  0.000000  0.000000  1.000000  0.000000  0.000000 ICntrl=     500 IOpCl=  0
         NMat0=    1 NMatS0=    1 NMatT0=    0 NMatD0=    1 NMtDS0=    0 NMtDT0=    0
         I1Cent=           4 NGrid=           0.
 Petite list used in FoFCou.
 Requested convergence on RMS density matrix=1.00D-08 within 128 cycles.
 Requested convergence on MAX density matrix=1.00D-06.
 Requested convergence on             energy=1.00D-06.
 No special actions if energy rises.
 Keep R1 ints in memory in canonical form, NReq=3415796.
 Defaulting to unpruned grid for atomic number  53.
 Defaulting to unpruned grid for atomic number  53.
 Defaulting to unpruned grid for atomic number  53.
 Defaulting to unpruned grid for atomic number  53.
 Error on total polarization charges =  0.07735
 SCF Done:  E(RM062X) =  -162.980072924     A.U. after   12 cycles
             Convg  =    0.2739D-08             -V/T =  2.0581
 SMD-CDS (non-electrostatic) energy             (kcal/mol) =       1.12
 (included in total energy above)
   1 Symmetry operations used in ECPInt.
 ECPInt:  NShTT=     171 NPrTT=    1054 LenC2=     172 LenP2D=     920.
 LDataN:  DoStor=T MaxTD1= 5 Len=  102
 D1PCM: PCM CHGder 1st derivatives, ID1Alg=3 FixD1E=F DoIter=F DoCFld=F I1PDM=0.
 Calling FoFJK, ICntrl=      2127 FMM=F ISym2X=0 I1Cent= 0 IOpClX= 0 NMat=1 NMatS=1 NMatT=0.
 Defaulting to unpruned grid for atomic number  53.
 Defaulting to unpruned grid for atomic number  53.
 Defaulting to unpruned grid for atomic number  53.
 Defaulting to unpruned grid for atomic number  53.
 ***** Axes restored to original set *****
 -------------------------------------------------------------------
 Center     Atomic                   Forces (Hartrees/Bohr)
 Number     Number              X              Y              Z
 -------------------------------------------------------------------
      1        8          -0.007707678    0.001345465   -0.003189106
      2        1           0.019784317   -0.008673051    0.046636588
      3        8          -0.001263163   -0.002951393   -0.037797322
      4        1           0.004559883    0.009128509    0.000867215
      5       53          -0.015373359    0.001150470   -0.006517374
 -------------------------------------------------------------------
 Cartesian Forces:  Max     0.046636588 RMS     0.017391491

 GradGradGradGradGradGradGradGradGradGradGradGradGradGradGradGradGradGrad
 Berny optimization.
 Internal  Forces:  Max     0.090363913 RMS     0.033583449
 Search for a saddle point.
 Step number   4 out of a maximum of   20
 All quantities printed in internal units (Hartrees-Bohrs-Radians)
 Swaping is turned off.
 Update second derivatives using D2CorX and points    1    2    3    4
 The second derivative matrix:
                          R1        R2        R3        R4        A1
           R1           0.08673
           R2           0.02475   0.18099
           R3           0.15279   0.03575   0.02745
           R4          -0.00370  -0.00394  -0.00570   0.58123
           A1           0.00130   0.02686   0.02320  -0.00503   0.03445
           A2           0.11359   0.08382   0.09490  -0.00160   0.00109
           A3          -0.00090   0.00179   0.01064   0.01084  -0.00937
           D1           0.00583   0.00323   0.00097  -0.00030   0.00484
           D2           0.00124   0.00181   0.00399   0.00588  -0.00233
                          A2        A3        D1        D2
           A2           0.23650
           A3          -0.00051   0.08623
           D1          -0.00322  -0.00007   0.00692
           D2          -0.00103   0.01534  -0.00114   0.00542
     Eigenvalues ---   -0.10166   0.00202   0.00646   0.02468   0.07569
     Eigenvalues ---    0.09093   0.15599   0.40991   0.58188
 Eigenvectors required to have negative eigenvalues:
                          R3        R1        A1        A3        D1
   1                    0.77035  -0.62146  -0.12404  -0.05132   0.03282
                          R2        D2        R4        A2
   1                   -0.03142  -0.01618   0.00294   0.00096
 RFO step:  Lambda0=1.356642035D-03 Lambda=-5.42713898D-02.
 Linear search not attempted -- option 19 set.
 Maximum step size (   0.030) exceeded in Quadratic search.
    -- Step size scaled by   0.047
 Iteration  1 RMS(Cart)=  0.02238072 RMS(Int)=  0.00038097
 Iteration  2 RMS(Cart)=  0.00040853 RMS(Int)=  0.00000006
 Iteration  3 RMS(Cart)=  0.00000007 RMS(Int)=  0.00000000
 Variable       Old X    -DE/DX   Delta X   Delta X   Delta X     New X
                                 (Linear)    (Quad)   (Total)
    R1        2.26481   0.01020   0.00000  -0.00948  -0.00948   2.25533
    R2        3.81468   0.01376   0.00000  -0.00060  -0.00060   3.81408
    R3        2.59926  -0.01265   0.00000  -0.00403  -0.00403   2.59523
    R4        1.83455   0.01029   0.00000   0.00057   0.00057   1.83512
    A1        2.60469  -0.03770   0.00000  -0.01949  -0.01949   2.58520
    A2        1.97159   0.09036   0.00000   0.01992   0.01992   1.99151
    A3        1.83336   0.00214   0.00000  -0.00045  -0.00045   1.83291
    D1       -3.13651   0.00035   0.00000   0.00403   0.00403  -3.13248
    D2       -1.82425   0.00032   0.00000   0.00037   0.00037  -1.82388
         Item               Value     Threshold  Converged?
 Maximum Force            0.090364     0.000450     NO 
 RMS     Force            0.033583     0.000300     NO 
 Maximum Displacement     0.035531     0.001800     NO 
 RMS     Displacement     0.022308     0.001200     NO 
 Predicted change in Energy=-2.452427D-03
 GradGradGradGradGradGradGradGradGradGradGradGradGradGradGradGradGradGrad

                          Input orientation:                          
 ---------------------------------------------------------------------
 Center     Atomic      Atomic             Coordinates (Angstroms)
 Number     Number       Type             X           Y           Z
 ---------------------------------------------------------------------
      1          8           0       -1.435018    0.686989    0.317563
      2          1           0       -0.552789    0.809659   -0.476789
      3          8           0        0.705853    0.697542    0.061078
      4          1           0        1.044368    1.606862    0.100974
      5         53           0       -3.419756    0.645604    0.681889
 ---------------------------------------------------------------------
                    Distance matrix (angstroms):
                    1          2          3          4          5
     1  O    0.000000
     2  H    1.193469   0.000000
     3  O    2.156206   1.373336   0.000000
     4  H    2.653381   1.876234   0.971106   0.000000
     5  I    2.018324   3.096602   4.172379   4.603246   0.000000
 Stoichiometry    H2IO2(1-)
 Framework group  C1[X(H2IO2)]
 Deg. of freedom     9
 Full point group                 C1      NOp   1
 Largest Abelian subgroup         C1      NOp   1
 Largest concise Abelian subgroup C1      NOp   1
                         Standard orientation:                         
 ---------------------------------------------------------------------
 Center     Atomic      Atomic             Coordinates (Angstroms)
 Number     Number       Type             X           Y           Z
 ---------------------------------------------------------------------
      1          8           0       -1.213990   -0.036328    0.026982
      2          1           0       -2.216330   -0.087109    0.672818
      3          8           0       -3.367161   -0.084770   -0.076604
      4          1           0       -3.728238    0.811570    0.019545
      5         53           0        0.803656    0.004610   -0.005573
 ---------------------------------------------------------------------
 Rotational constants (GHZ):    379.3083455      1.6667054      1.6654456
 Standard basis: LANL2DZ (5D, 7F)
 There are    30 symmetry adapted basis functions of A   symmetry.
 Integral buffers will be    262144 words long.
 Raffenetti 2 integral format.
 Two-electron integral symmetry is turned on.
    30 basis functions,    70 primitive gaussians,    30 cartesian basis functions
    13 alpha electrons       13 beta electrons
       nuclear repulsion energy        52.3593262514 Hartrees.
 NAtoms=    5 NActive=    5 NUniq=    5 SFac= 7.50D-01 NAtFMM=   80 NAOKFM=F Big=F
 ------------------------------------------------------------------------------
 Polarizable Continuum Model (PCM)
 =================================
 Model                : PCM.
 Atomic radii         : SMD-Coulomb.
 Polarization charges : Total charges.
 Charge compensation  : None.
 Solution method      : Matrix inversion.
 Cavity type          : VdW (van der Waals Surface) (Alpha=1.000).
 Cavity algorithm     : GePol (No added spheres)
                        Default sphere list used, NSphG=    5.
                        Lebedev-Laikov grids with approx.  5.0 points / Ang**2.
                        Smoothing algorithm: Karplus/York (Gamma=1.0000).
                        Polarization charges: spherical gaussians, with
                                              point-specific exponents (IZeta= 3).
                        Self-potential: point-specific (ISelfS= 7).
                        Self-field    : sphere-specific E.n sum rule (ISelfD= 2).
 1st derivatives      : Analytical E(r).r(x)/FMM algorithm (CHGder, D1EAlg=3).
                        Cavity 1st derivative terms included.
 Solvent              : Water, Eps=  78.355300 Eps(inf)=   1.777849
 ------------------------------------------------------------------------------
 Spheres list:
 ISph  on   Nord    Re0     Alpha      Xe            Ye            Ze
    1   O      1    1.520   1.000     -1.213990     -0.036328      0.026982
    2   H      2    1.200   1.000     -2.216330     -0.087109      0.672818
    3   O      3    1.520   1.000     -3.367161     -0.084770     -0.076604
    4   H      4    1.200   1.000     -3.728238      0.811570      0.019545
    5   I      5    1.980   1.000      0.803656      0.004610     -0.005573
 ------------------------------------------------------------------------------
 ------------------------------------------------------------------------------
 Atomic radii for non-electrostatic terms: SMD-CDS.
 ------------------------------------------------------------------------------
 Nuclear repulsion after PCM non-electrostatic terms =       52.3610915513 Hartrees.
 One-electron integrals computed using PRISM.
   1 Symmetry operations used in ECPInt.
 ECPInt:  NShTT=     171 NPrTT=    1054 LenC2=     172 LenP2D=     919.
 LDataN:  DoStor=T MaxTD1= 4 Len=   56
 NBasis=    30 RedAO= T  NBF=    30
 NBsUse=    30 1.00D-06 NBFU=    30
 Defaulting to unpruned grid for atomic number  53.
 Initial guess read from the read-write file.
 B after Tr=     0.000000    0.000000    0.000000
         Rot=    1.000000    0.000000    0.000000    0.000000 Ang=   0.00 deg.
 Initial guess orbital symmetries:
       Occupied  (A) (A) (A) (A) (A) (A) (A) (A) (A) (A) (A) (A)
                 (A)
       Virtual   (A) (A) (A) (A) (A) (A) (A) (A) (A) (A) (A) (A)
                 (A) (A) (A) (A) (A)
 Harris functional with IExCor= 1009 diagonalized for initial guess.
 ExpMin= 1.05D-01 ExpMax= 7.82D+03 ExpMxC= 2.73D+02 IAcc=1 IRadAn=         1 AccDes= 0.00D+00
 HarFok:  IExCor= 1009 AccDes= 0.00D+00 IRadAn=         1 IDoV= 1
 ScaDFX=  1.000000  1.000000  1.000000  1.000000
 Defaulting to unpruned grid for atomic number  53.
 Defaulting to unpruned grid for atomic number  53.
 Defaulting to unpruned grid for atomic number  53.
 Defaulting to unpruned grid for atomic number  53.
 FoFCou: FMM=F IPFlag=           0 FMFlag=      100000 FMFlg1=           0
         NFxFlg=           0 DoJE=T BraDBF=F KetDBF=T FulRan=T
         Omega=  0.000000  0.000000  1.000000  0.000000  0.000000 ICntrl=     500 IOpCl=  0
         NMat0=    1 NMatS0=    1 NMatT0=    0 NMatD0=    1 NMtDS0=    0 NMtDT0=    0
         I1Cent=           4 NGrid=           0.
 Petite list used in FoFCou.
 Requested convergence on RMS density matrix=1.00D-08 within 128 cycles.
 Requested convergence on MAX density matrix=1.00D-06.
 Requested convergence on             energy=1.00D-06.
 No special actions if energy rises.
 Keep R1 ints in memory in canonical form, NReq=3417065.
 Defaulting to unpruned grid for atomic number  53.
 Defaulting to unpruned grid for atomic number  53.
 Defaulting to unpruned grid for atomic number  53.
 Defaulting to unpruned grid for atomic number  53.
 Error on total polarization charges =  0.07723
 SCF Done:  E(RM062X) =  -162.982551110     A.U. after   11 cycles
             Convg  =    0.7198D-08             -V/T =  2.0581
 SMD-CDS (non-electrostatic) energy             (kcal/mol) =       1.11
 (included in total energy above)
   1 Symmetry operations used in ECPInt.
 ECPInt:  NShTT=     171 NPrTT=    1054 LenC2=     172 LenP2D=     919.
 LDataN:  DoStor=T MaxTD1= 5 Len=  102
 D1PCM: PCM CHGder 1st derivatives, ID1Alg=3 FixD1E=F DoIter=F DoCFld=F I1PDM=0.
 Calling FoFJK, ICntrl=      2127 FMM=F ISym2X=0 I1Cent= 0 IOpClX= 0 NMat=1 NMatS=1 NMatT=0.
 Defaulting to unpruned grid for atomic number  53.
 Defaulting to unpruned grid for atomic number  53.
 Defaulting to unpruned grid for atomic number  53.
 Defaulting to unpruned grid for atomic number  53.
 ***** Axes restored to original set *****
 -------------------------------------------------------------------
 Center     Atomic                   Forces (Hartrees/Bohr)
 Number     Number              X              Y              Z
 -------------------------------------------------------------------
      1        8          -0.007803857    0.001592567   -0.002835433
      2        1           0.020125778   -0.009205268    0.044976301
      3        8          -0.002265875   -0.002535777   -0.036478715
      4        1           0.004691393    0.008879431    0.001067860
      5       53          -0.014747439    0.001269047   -0.006730012
 -------------------------------------------------------------------
 Cartesian Forces:  Max     0.044976301 RMS     0.016916999

 GradGradGradGradGradGradGradGradGradGradGradGradGradGradGradGradGradGrad
 Berny optimization.
 Internal  Forces:  Max     0.087218406 RMS     0.032413055
 Search for a saddle point.
 Step number   5 out of a maximum of   20
 All quantities printed in internal units (Hartrees-Bohrs-Radians)
 Swaping is turned off.
 Update second derivatives using D2CorX and points    1    2    3    4    5
 The second derivative matrix:
                          R1        R2        R3        R4        A1
           R1           0.09784
           R2           0.02727   0.18144
           R3           0.15745   0.03635   0.02883
           R4           0.00176  -0.00291  -0.00463   0.58296
           A1           0.01647   0.03038   0.03123   0.00268   0.05609
           A2           0.10794   0.08093   0.09039  -0.00781  -0.00200
           A3           0.00540   0.00323   0.01212   0.01342  -0.00138
           D1           0.00347   0.00218   0.00009  -0.00167   0.00301
           D2          -0.00027   0.00179   0.00203   0.00551  -0.00629
                          A2        A3        D1        D2
           A2           0.22892
           A3          -0.00651   0.08971
           D1          -0.00391  -0.00155   0.00602
           D2          -0.00202   0.01561  -0.00133   0.00737
     Eigenvalues ---   -0.09978   0.00311   0.00599   0.03226   0.08636
     Eigenvalues ---    0.10573   0.15600   0.40575   0.58376
 Eigenvectors required to have negative eigenvalues:
                          R3        R1        A1        A3        R2
   1                    0.78621  -0.60920  -0.08897  -0.03241  -0.02975
                          D1        D2        A2        R4
   1                    0.02155  -0.01676  -0.00966   0.00784
 RFO step:  Lambda0=1.832107068D-03 Lambda=-4.70435027D-02.
 Linear search not attempted -- option 19 set.
 Maximum step size (   0.030) exceeded in Quadratic search.
    -- Step size scaled by   0.053
 Iteration  1 RMS(Cart)=  0.02219727 RMS(Int)=  0.00035821
 Iteration  2 RMS(Cart)=  0.00038511 RMS(Int)=  0.00000005
 Iteration  3 RMS(Cart)=  0.00000006 RMS(Int)=  0.00000000
 Variable       Old X    -DE/DX   Delta X   Delta X   Delta X     New X
                                 (Linear)    (Quad)   (Total)
    R1        2.25533   0.00993   0.00000  -0.01103  -0.01103   2.24430
    R2        3.81408   0.01325   0.00000  -0.00106  -0.00106   3.81302
    R3        2.59523  -0.01220   0.00000  -0.00112  -0.00112   2.59411
    R4        1.83512   0.01017   0.00000   0.00120   0.00120   1.83632
    A1        2.58520  -0.03628   0.00000  -0.01647  -0.01647   2.56872
    A2        1.99151   0.08722   0.00000   0.02188   0.02188   2.01339
    A3        1.83291   0.00237   0.00000   0.00239   0.00239   1.83530
    D1       -3.13248   0.00050   0.00000   0.00403   0.00403  -3.12845
    D2       -1.82388   0.00025   0.00000  -0.00164  -0.00164  -1.82553
         Item               Value     Threshold  Converged?
 Maximum Force            0.087218     0.000450     NO 
 RMS     Force            0.032413     0.000300     NO 
 Maximum Displacement     0.036486     0.001800     NO 
 RMS     Displacement     0.022120     0.001200     NO 
 Predicted change in Energy=-2.370535D-03
 GradGradGradGradGradGradGradGradGradGradGradGradGradGradGradGradGradGrad

                          Input orientation:                          
 ---------------------------------------------------------------------
 Center     Atomic      Atomic             Coordinates (Angstroms)
 Number     Number       Type             X           Y           Z
 ---------------------------------------------------------------------
      1          8           0       -1.435987    0.684124    0.332939
      2          1           0       -0.559264    0.814757   -0.457481
      3          8           0        0.711235    0.697477    0.048983
      4          1           0        1.052114    1.606406    0.092920
      5         53           0       -3.425440    0.643893    0.667354
 ---------------------------------------------------------------------
                    Distance matrix (angstroms):
                    1          2          3          4          5
     1  O    0.000000
     2  H    1.187633   0.000000
     3  O    2.165957   1.372745   0.000000
     4  H    2.664368   1.877814   0.971741   0.000000
     5  I    2.017764   3.083733   4.182981   4.615722   0.000000
 Stoichiometry    H2IO2(1-)
 Framework group  C1[X(H2IO2)]
 Deg. of freedom     9
 Full point group                 C1      NOp   1
 Largest Abelian subgroup         C1      NOp   1
 Largest concise Abelian subgroup C1      NOp   1
                         Standard orientation:                         
 ---------------------------------------------------------------------
 Center     Atomic      Atomic             Coordinates (Angstroms)
 Number     Number       Type             X           Y           Z
 ---------------------------------------------------------------------
      1          8           0       -1.212489   -0.032974    0.007308
      2          1           0       -2.206934   -0.038678    0.656553
      3          8           0       -3.376631   -0.090617   -0.060065
      4          1           0       -3.739949    0.809710   -0.018940
      5         53           0        0.804903    0.004107   -0.004067
 ---------------------------------------------------------------------
 Rotational constants (GHZ):    399.5969338      1.6601966      1.6585803
 Standard basis: LANL2DZ (5D, 7F)
 There are    30 symmetry adapted basis functions of A   symmetry.
 Integral buffers will be    262144 words long.
 Raffenetti 2 integral format.
 Two-electron integral symmetry is turned on.
    30 basis functions,    70 primitive gaussians,    30 cartesian basis functions
    13 alpha electrons       13 beta electrons
       nuclear repulsion energy        52.2865878547 Hartrees.
 NAtoms=    5 NActive=    5 NUniq=    5 SFac= 7.50D-01 NAtFMM=   80 NAOKFM=F Big=F
 ------------------------------------------------------------------------------
 Polarizable Continuum Model (PCM)
 =================================
 Model                : PCM.
 Atomic radii         : SMD-Coulomb.
 Polarization charges : Total charges.
 Charge compensation  : None.
 Solution method      : Matrix inversion.
 Cavity type          : VdW (van der Waals Surface) (Alpha=1.000).
 Cavity algorithm     : GePol (No added spheres)
                        Default sphere list used, NSphG=    5.
                        Lebedev-Laikov grids with approx.  5.0 points / Ang**2.
                        Smoothing algorithm: Karplus/York (Gamma=1.0000).
                        Polarization charges: spherical gaussians, with
                                              point-specific exponents (IZeta= 3).
                        Self-potential: point-specific (ISelfS= 7).
                        Self-field    : sphere-specific E.n sum rule (ISelfD= 2).
 1st derivatives      : Analytical E(r).r(x)/FMM algorithm (CHGder, D1EAlg=3).
                        Cavity 1st derivative terms included.
 Solvent              : Water, Eps=  78.355300 Eps(inf)=   1.777849
 ------------------------------------------------------------------------------
 Spheres list:
 ISph  on   Nord    Re0     Alpha      Xe            Ye            Ze
    1   O      1    1.520   1.000     -1.212489     -0.032974      0.007308
    2   H      2    1.200   1.000     -2.206934     -0.038678      0.656553
    3   O      3    1.520   1.000     -3.376631     -0.090617     -0.060065
    4   H      4    1.200   1.000     -3.739949      0.809710     -0.018940
    5   I      5    1.980   1.000      0.804903      0.004107     -0.004067
 ------------------------------------------------------------------------------
 ------------------------------------------------------------------------------
 Atomic radii for non-electrostatic terms: SMD-CDS.
 ------------------------------------------------------------------------------
 Nuclear repulsion after PCM non-electrostatic terms =       52.2883357858 Hartrees.
 One-electron integrals computed using PRISM.
   1 Symmetry operations used in ECPInt.
 ECPInt:  NShTT=     171 NPrTT=    1054 LenC2=     172 LenP2D=     919.
 LDataN:  DoStor=T MaxTD1= 4 Len=   56
 NBasis=    30 RedAO= T  NBF=    30
 NBsUse=    30 1.00D-06 NBFU=    30
 Defaulting to unpruned grid for atomic number  53.
 Initial guess read from the read-write file.
 B after Tr=     0.000000    0.000000    0.000000
         Rot=    1.000000    0.000000    0.000000    0.000000 Ang=   0.00 deg.
 Initial guess orbital symmetries:
       Occupied  (A) (A) (A) (A) (A) (A) (A) (A) (A) (A) (A) (A)
                 (A)
       Virtual   (A) (A) (A) (A) (A) (A) (A) (A) (A) (A) (A) (A)
                 (A) (A) (A) (A) (A)
 Harris functional with IExCor= 1009 diagonalized for initial guess.
 ExpMin= 1.05D-01 ExpMax= 7.82D+03 ExpMxC= 2.73D+02 IAcc=1 IRadAn=         1 AccDes= 0.00D+00
 HarFok:  IExCor= 1009 AccDes= 0.00D+00 IRadAn=         1 IDoV= 1
 ScaDFX=  1.000000  1.000000  1.000000  1.000000
 Defaulting to unpruned grid for atomic number  53.
 Defaulting to unpruned grid for atomic number  53.
 Defaulting to unpruned grid for atomic number  53.
 Defaulting to unpruned grid for atomic number  53.
 FoFCou: FMM=F IPFlag=           0 FMFlag=      100000 FMFlg1=           0
         NFxFlg=           0 DoJE=T BraDBF=F KetDBF=T FulRan=T
         Omega=  0.000000  0.000000  1.000000  0.000000  0.000000 ICntrl=     500 IOpCl=  0
         NMat0=    1 NMatS0=    1 NMatT0=    0 NMatD0=    1 NMtDS0=    0 NMtDT0=    0
         I1Cent=           4 NGrid=           0.
 Petite list used in FoFCou.
 Requested convergence on RMS density matrix=1.00D-08 within 128 cycles.
 Requested convergence on MAX density matrix=1.00D-06.
 Requested convergence on             energy=1.00D-06.
 No special actions if energy rises.
 Keep R1 ints in memory in canonical form, NReq=3414528.
 Defaulting to unpruned grid for atomic number  53.
 Defaulting to unpruned grid for atomic number  53.
 Defaulting to unpruned grid for atomic number  53.
 Defaulting to unpruned grid for atomic number  53.
 Error on total polarization charges =  0.07712
 SCF Done:  E(RM062X) =  -162.984927684     A.U. after   11 cycles
             Convg  =    0.3426D-08             -V/T =  2.0581
 SMD-CDS (non-electrostatic) energy             (kcal/mol) =       1.10
 (included in total energy above)
   1 Symmetry operations used in ECPInt.
 ECPInt:  NShTT=     171 NPrTT=    1054 LenC2=     172 LenP2D=     919.
 LDataN:  DoStor=T MaxTD1= 5 Len=  102
 D1PCM: PCM CHGder 1st derivatives, ID1Alg=3 FixD1E=F DoIter=F DoCFld=F I1PDM=0.
 Calling FoFJK, ICntrl=      2127 FMM=F ISym2X=0 I1Cent= 0 IOpClX= 0 NMat=1 NMatS=1 NMatT=0.
 Defaulting to unpruned grid for atomic number  53.
 Defaulting to unpruned grid for atomic number  53.
 Defaulting to unpruned grid for atomic number  53.
 Defaulting to unpruned grid for atomic number  53.
 ***** Axes restored to original set *****
 -------------------------------------------------------------------
 Center     Atomic                   Forces (Hartrees/Bohr)
 Number     Number              X              Y              Z
 -------------------------------------------------------------------
      1        8          -0.007531400    0.001788519   -0.002281952
      2        1           0.020215677   -0.009770500    0.043041632
      3        8          -0.003116826   -0.001529795   -0.034855712
      4        1           0.004488540    0.008126954    0.001056115
      5       53          -0.014055991    0.001384822   -0.006960083
 -------------------------------------------------------------------
 Cartesian Forces:  Max     0.043041632 RMS     0.016297368

 GradGradGradGradGradGradGradGradGradGradGradGradGradGradGradGradGradGrad
 Berny optimization.
 Internal  Forces:  Max     0.083542408 RMS     0.031094097
 Search for a saddle point.
 Step number   6 out of a maximum of   20
 All quantities printed in internal units (Hartrees-Bohrs-Radians)
 Swaping is turned off.
 Update second derivatives using D2CorX and points    1    2    3    4    5
                                                      6
 The second derivative matrix:
                          R1        R2        R3        R4        A1
           R1           0.10758
           R2           0.03003   0.18195
           R3           0.15853   0.03698   0.02907
           R4          -0.00233  -0.00324  -0.00456   0.58438
           A1           0.02161   0.03341   0.03114  -0.00265   0.05064
           A2           0.10045   0.07786   0.09056  -0.00071   0.00087
           A3           0.00756   0.00371   0.01342   0.01406   0.00172
           D1           0.00069   0.00111  -0.00055  -0.00053   0.00214
           D2           0.00109   0.00189   0.00215   0.00554  -0.00432
                          A2        A3        D1        D2
           A2           0.22904
           A3          -0.00790   0.09013
           D1          -0.00397  -0.00195   0.00541
           D2          -0.00423   0.01563  -0.00167   0.00748
     Eigenvalues ---   -0.09666   0.00292   0.00586   0.03024   0.08321
     Eigenvalues ---    0.11436   0.15598   0.40475   0.58501
 Eigenvectors required to have negative eigenvalues:
                          R3        R1        A1        A2        A3
   1                    0.80082  -0.59135  -0.07709  -0.03543  -0.03332
                          R2        D2        D1        R4
   1                   -0.02289  -0.00960   0.00800   0.00366
 RFO step:  Lambda0=2.483077725D-03 Lambda=-4.37824993D-02.
 Linear search not attempted -- option 19 set.
 Maximum step size (   0.030) exceeded in Quadratic search.
    -- Step size scaled by   0.054
 Iteration  1 RMS(Cart)=  0.02215466 RMS(Int)=  0.00036393
 Iteration  2 RMS(Cart)=  0.00037730 RMS(Int)=  0.00000005
 Iteration  3 RMS(Cart)=  0.00000008 RMS(Int)=  0.00000000
 Variable       Old X    -DE/DX   Delta X   Delta X   Delta X     New X
                                 (Linear)    (Quad)   (Total)
    R1        2.24430   0.00947   0.00000  -0.01084  -0.01084   2.23347
    R2        3.81302   0.01265   0.00000  -0.00005  -0.00005   3.81297
    R3        2.59411  -0.01187   0.00000   0.00182   0.00182   2.59593
    R4        1.83632   0.00939   0.00000   0.00067   0.00067   1.83699
    A1        2.56872  -0.03517   0.00000  -0.01886  -0.01886   2.54986
    A2        2.01339   0.08354   0.00000   0.02008   0.02008   2.03347
    A3        1.83530   0.00248   0.00000   0.00278   0.00278   1.83809
    D1       -3.12845   0.00061   0.00000   0.00346   0.00346  -3.12499
    D2       -1.82553   0.00026   0.00000  -0.00038  -0.00038  -1.82591
         Item               Value     Threshold  Converged?
 Maximum Force            0.083542     0.000450     NO 
 RMS     Force            0.031094     0.000300     NO 
 Maximum Displacement     0.035144     0.001800     NO 
 RMS     Displacement     0.022137     0.001200     NO 
 Predicted change in Energy=-2.188969D-03
[...]
   1                    0.01714   0.01398  -0.00448  -0.00188
 RFO step:  Lambda0=1.495521434D-02 Lambda=-2.45346493D-02.
 Linear search not attempted -- option 19 set.
 Maximum step size (   0.030) exceeded in Quadratic search.
    -- Step size scaled by   0.038
 Iteration  1 RMS(Cart)=  0.01182625 RMS(Int)=  0.00009141
 Iteration  2 RMS(Cart)=  0.00011458 RMS(Int)=  0.00000001
 Iteration  3 RMS(Cart)=  0.00000001 RMS(Int)=  0.00000000
 Variable       Old X    -DE/DX   Delta X   Delta X   Delta X     New X
                                 (Linear)    (Quad)   (Total)
    R1        2.08744   0.00594   0.00000  -0.01170  -0.01170   2.07574
    R2        3.80324   0.00705   0.00000   0.00089   0.00089   3.80412
    R3        2.72464  -0.00817   0.00000   0.02372   0.02372   2.74836
    R4        1.84306   0.00550   0.00000   0.00074   0.00074   1.84381
    A1        2.33352  -0.02708   0.00000  -0.01320  -0.01320   2.32032
    A2        2.20723   0.05273   0.00000   0.00488   0.00488   2.21211
    A3        1.85463   0.00214   0.00000  -0.00034  -0.00034   1.85429
    D1       -3.10568   0.00052   0.00000   0.00022   0.00022  -3.10546
    D2       -1.82849   0.00003   0.00000   0.00094   0.00094  -1.82755
         Item               Value     Threshold  Converged?
 Maximum Force            0.052728     0.000450     NO 
 RMS     Force            0.020276     0.000300     NO 
 Maximum Displacement     0.016816     0.001800     NO 
 RMS     Displacement     0.011887     0.001200     NO 
 Predicted change in Energy=-3.567306D-04
 GradGradGradGradGradGradGradGradGradGradGradGradGradGradGradGradGradGrad

                          Input orientation:                          
 ---------------------------------------------------------------------
 Center     Atomic      Atomic             Coordinates (Angstroms)
 Number     Number       Type             X           Y           Z
 ---------------------------------------------------------------------
      1          8           0       -1.431633    0.604744    0.509144
      2          1           0       -0.670300    0.847580   -0.244485
      3          8           0        0.770655    0.713297   -0.100221
      4          1           0        1.117685    1.616478    0.025583
      5         53           0       -3.443748    0.664558    0.494694
 ---------------------------------------------------------------------
                    Distance matrix (angstroms):
                    1          2          3          4          5
     1  O    0.000000
     2  H    1.098433   0.000000
     3  O    2.287615   1.454372   0.000000
     4  H    2.785042   1.964951   0.975701   0.000000
     5  I    2.013055   2.876090   4.256465   4.683256   0.000000
 Stoichiometry    H2IO2(1-)
 Framework group  C1[X(H2IO2)]
 Deg. of freedom     9
 Full point group                 C1      NOp   1
 Largest Abelian subgroup         C1      NOp   1
 Largest concise Abelian subgroup C1      NOp   1
                         Standard orientation:                         
 ---------------------------------------------------------------------
 Center     Atomic      Atomic             Coordinates (Angstroms)
 Number     Number       Type             X           Y           Z
 ---------------------------------------------------------------------
      1          8           0        1.183472   -0.232942    0.132181
      2          1           0        2.038370    0.328924   -0.267830
      3          8           0        3.446106   -0.002357   -0.113786
      4          1           0        3.801946    0.619549    0.548485
      5         53           0       -0.808999    0.017621   -0.008072
 ---------------------------------------------------------------------
 Rotational constants (GHZ):    226.9683037      1.6211556      1.6173302
 Standard basis: LANL2DZ (5D, 7F)
 There are    30 symmetry adapted basis functions of A   symmetry.
 Integral buffers will be    262144 words long.
 Raffenetti 2 integral format.
 Two-electron integral symmetry is turned on.
    30 basis functions,    70 primitive gaussians,    30 cartesian basis functions
    13 alpha electrons       13 beta electrons
       nuclear repulsion energy        51.4595992349 Hartrees.
 NAtoms=    5 NActive=    5 NUniq=    5 SFac= 7.50D-01 NAtFMM=   80 NAOKFM=F Big=F
 ------------------------------------------------------------------------------
 Polarizable Continuum Model (PCM)
 =================================
 Model                : PCM.
 Atomic radii         : SMD-Coulomb.
 Polarization charges : Total charges.
 Charge compensation  : None.
 Solution method      : Matrix inversion.
 Cavity type          : VdW (van der Waals Surface) (Alpha=1.000).
 Cavity algorithm     : GePol (No added spheres)
                        Default sphere list used, NSphG=    5.
                        Lebedev-Laikov grids with approx.  5.0 points / Ang**2.
                        Smoothing algorithm: Karplus/York (Gamma=1.0000).
                        Polarization charges: spherical gaussians, with
                                              point-specific exponents (IZeta= 3).
                        Self-potential: point-specific (ISelfS= 7).
                        Self-field    : sphere-specific E.n sum rule (ISelfD= 2).
 1st derivatives      : Analytical E(r).r(x)/FMM algorithm (CHGder, D1EAlg=3).
                        Cavity 1st derivative terms included.
 Solvent              : Water, Eps=  78.355300 Eps(inf)=   1.777849
 ------------------------------------------------------------------------------
 Spheres list:
 ISph  on   Nord    Re0     Alpha      Xe            Ye            Ze
    1   O      1    1.520   1.000      1.183472     -0.232942      0.132181
    2   H      2    1.200   1.000      2.038370      0.328924     -0.267830
    3   O      3    1.520   1.000      3.446106     -0.002357     -0.113786
    4   H      4    1.200   1.000      3.801946      0.619549      0.548485
    5   I      5    1.980   1.000     -0.808999      0.017621     -0.008072
 ------------------------------------------------------------------------------
 ------------------------------------------------------------------------------
 Atomic radii for non-electrostatic terms: SMD-CDS.
 ------------------------------------------------------------------------------
 Nuclear repulsion after PCM non-electrostatic terms =       51.4612772442 Hartrees.
 One-electron integrals computed using PRISM.
   1 Symmetry operations used in ECPInt.
 ECPInt:  NShTT=     171 NPrTT=    1054 LenC2=     172 LenP2D=     914.
 LDataN:  DoStor=T MaxTD1= 4 Len=   56
 NBasis=    30 RedAO= T  NBF=    30
 NBsUse=    30 1.00D-06 NBFU=    30
 Defaulting to unpruned grid for atomic number  53.
 Initial guess read from the read-write file.
 B after Tr=     0.000000    0.000000    0.000000
         Rot=    1.000000    0.000000    0.000000    0.000000 Ang=   0.00 deg.
 Initial guess orbital symmetries:
       Occupied  (A) (A) (A) (A) (A) (A) (A) (A) (A) (A) (A) (A)
                 (A)
       Virtual   (A) (A) (A) (A) (A) (A) (A) (A) (A) (A) (A) (A)
                 (A) (A) (A) (A) (A)
 Requested convergence on RMS density matrix=1.00D-08 within 128 cycles.
 Requested convergence on MAX density matrix=1.00D-06.
 Requested convergence on             energy=1.00D-06.
 No special actions if energy rises.
 Keep R1 ints in memory in canonical form, NReq=3415442.
 Defaulting to unpruned grid for atomic number  53.
 Defaulting to unpruned grid for atomic number  53.
 Defaulting to unpruned grid for atomic number  53.
 Defaulting to unpruned grid for atomic number  53.
 Error on total polarization charges =  0.07610
 SCF Done:  E(RM062X) =  -163.003657497     A.U. after   11 cycles
             Convg  =    0.3361D-08             -V/T =  2.0582
 SMD-CDS (non-electrostatic) energy             (kcal/mol) =       1.05
 (included in total energy above)
   1 Symmetry operations used in ECPInt.
 ECPInt:  NShTT=     171 NPrTT=    1054 LenC2=     172 LenP2D=     914.
 LDataN:  DoStor=T MaxTD1= 5 Len=  102
 D1PCM: PCM CHGder 1st derivatives, ID1Alg=3 FixD1E=F DoIter=F DoCFld=F I1PDM=0.
 Calling FoFJK, ICntrl=      2127 FMM=F ISym2X=0 I1Cent= 0 IOpClX= 0 NMat=1 NMatS=1 NMatT=0.
 Defaulting to unpruned grid for atomic number  53.
 Defaulting to unpruned grid for atomic number  53.
 Defaulting to unpruned grid for atomic number  53.
 Defaulting to unpruned grid for atomic number  53.
 ***** Axes restored to original set *****
 -------------------------------------------------------------------
 Center     Atomic                   Forces (Hartrees/Bohr)
 Number     Number              X              Y              Z
 -------------------------------------------------------------------
      1        8          -0.006059020    0.000577747    0.003287673
      2        1           0.018176562   -0.010578716    0.021645905
      3        8          -0.008270419    0.003253162   -0.018131368
      4        1           0.002863091    0.004448344    0.000978642
      5       53          -0.006710213    0.002299462   -0.007780851
 -------------------------------------------------------------------
 Cartesian Forces:  Max     0.021645905 RMS     0.010020727

 GradGradGradGradGradGradGradGradGradGradGradGradGradGradGradGradGradGrad
 Berny optimization.
 Internal  Forces:  Max     0.051282408 RMS     0.019761144
 Search for a saddle point.
 Step number  20 out of a maximum of   20
 All quantities printed in internal units (Hartrees-Bohrs-Radians)
 Swaping is turned off.
 Update second derivatives using D2CorX and points   11   12   13   14   15
                                                     16   17   18   19   20
 The second derivative matrix:
                          R1        R2        R3        R4        A1
           R1           0.18342
           R2           0.03834   0.18306
           R3           0.11138   0.02851   0.04050
           R4           0.00151  -0.00202  -0.00451   0.58657
           A1           0.05853   0.03086   0.02120  -0.00365   0.03152
           A2           0.08829   0.07776   0.08218  -0.00205   0.03626
           A3           0.00940   0.00414   0.00788   0.01400  -0.00095
           D1          -0.00303   0.00196  -0.00713   0.00119   0.00091
           D2           0.00328   0.00114   0.00067   0.00404   0.00117
                          A2        A3        D1        D2
           A2           0.19313
           A3          -0.00926   0.09930
           D1          -0.00723   0.00144   0.01055
           D2          -0.00432   0.01227  -0.00715   0.01215
     Eigenvalues ---   -0.02878   0.00239   0.01467   0.01828   0.08223
     Eigenvalues ---    0.11059   0.15963   0.39406   0.58713
 Eigenvectors required to have negative eigenvalues:
                          R3        R1        A1        A2        D1
   1                    0.84928  -0.43182   0.22721  -0.17633   0.08807
                          A3        D2        R4        R2
   1                   -0.03537   0.02095   0.00852  -0.00467
 RFO step:  Lambda0=1.389622266D-02 Lambda=-2.70724442D-02.
 Linear search not attempted -- option 19 set.
 Maximum step size (   0.030) exceeded in Quadratic search.
    -- Step size scaled by   0.035
 Iteration  1 RMS(Cart)=  0.01288742 RMS(Int)=  0.00009627
 Iteration  2 RMS(Cart)=  0.00012368 RMS(Int)=  0.00000001
 Iteration  3 RMS(Cart)=  0.00000001 RMS(Int)=  0.00000000
 Variable       Old X    -DE/DX   Delta X   Delta X   Delta X     New X
                                 (Linear)    (Quad)   (Total)
    R1        2.07574   0.00575   0.00000  -0.01105  -0.01105   2.06469
    R2        3.80412   0.00669   0.00000  -0.00033  -0.00033   3.80379
    R3        2.74836  -0.00797   0.00000   0.02178   0.02178   2.77014
    R4        1.84381   0.00516   0.00000   0.00040   0.00040   1.84420
    A1        2.32032  -0.02668   0.00000  -0.01352  -0.01352   2.30680
    A2        2.21211   0.05128   0.00000   0.00643   0.00643   2.21854
    A3        1.85429   0.00211   0.00000  -0.00030  -0.00030   1.85399
    D1       -3.10546   0.00071   0.00000   0.00808   0.00808  -3.09738
    D2       -1.82755   0.00008   0.00000   0.00371   0.00371  -1.82384
         Item               Value     Threshold  Converged?
 Maximum Force            0.051282     0.000450     NO 
 RMS     Force            0.019761     0.000300     NO 
 Maximum Displacement     0.018243     0.001800     NO 
 RMS     Displacement     0.012970     0.001200     NO 
 Predicted change in Energy=-4.548505D-04
 Optimization stopped.
    -- Number of steps exceeded,  NStep=  20
    -- Flag reset to prevent archiving.
                           ----------------------------
                           ! Non-Optimized Parameters !
                           ! (Angstroms and Degrees)  !
 --------------------------                            --------------------------
 ! Name  Definition              Value          Derivative Info.                !
 --------------------------------------------------------------------------------
 ! R1    R(1,2)                  1.0926         -DE/DX =    0.0058              !
 ! R2    R(1,5)                  2.0129         -DE/DX =    0.0067              !
 ! R3    R(2,3)                  1.4659         -DE/DX =   -0.008               !
 ! R4    R(3,4)                  0.9759         -DE/DX =    0.0052              !
 ! A1    A(2,1,5)              132.1698         -DE/DX =   -0.0267              !
 ! A2    A(1,2,3)              127.1129         -DE/DX =    0.0513              !
 ! A3    A(2,3,4)              106.226          -DE/DX =    0.0021              !
 ! D1    D(5,1,2,3)           -177.467          -DE/DX =    0.0007              !
 ! D2    D(1,2,3,4)           -104.4983         -DE/DX =    0.0001              !
 --------------------------------------------------------------------------------
 GradGradGradGradGradGradGradGradGradGradGradGradGradGradGradGradGradGrad

                          Input orientation:                          
 ---------------------------------------------------------------------
 Center     Atomic      Atomic             Coordinates (Angstroms)
 Number     Number       Type             X           Y           Z
 ---------------------------------------------------------------------
      1          8           0       -1.431633    0.604744    0.509144
      2          1           0       -0.670300    0.847580   -0.244485
      3          8           0        0.770655    0.713297   -0.100221
      4          1           0        1.117685    1.616478    0.025583
      5         53           0       -3.443748    0.664558    0.494694
 ---------------------------------------------------------------------
                    Distance matrix (angstroms):
                    1          2          3          4          5
     1  O    0.000000
     2  H    1.098433   0.000000
     3  O    2.287615   1.454372   0.000000
     4  H    2.785042   1.964951   0.975701   0.000000
     5  I    2.013055   2.876090   4.256465   4.683256   0.000000
 Stoichiometry    H2IO2(1-)
 Framework group  C1[X(H2IO2)]
 Deg. of freedom     9
 Full point group                 C1      NOp   1
 Largest Abelian subgroup         C1      NOp   1
 Largest concise Abelian subgroup C1      NOp   1
                         Standard orientation:                         
 ---------------------------------------------------------------------
 Center     Atomic      Atomic             Coordinates (Angstroms)
 Number     Number       Type             X           Y           Z
 ---------------------------------------------------------------------
      1          8           0        1.183472   -0.232942    0.132181
      2          1           0        2.038370    0.328924   -0.267830
      3          8           0        3.446106   -0.002357   -0.113786
      4          1           0        3.801946    0.619549    0.548485
      5         53           0       -0.808999    0.017621   -0.008072
 ---------------------------------------------------------------------
 Rotational constants (GHZ):    226.9683037      1.6211556      1.6173302

 **********************************************************************

            Population analysis using the SCF density.

 **********************************************************************

 Orbital symmetries:
       Occupied  (A) (A) (A) (A) (A) (A) (A) (A) (A) (A) (A) (A)
                 (A)
       Virtual   (A) (A) (A) (A) (A) (A) (A) (A) (A) (A) (A) (A)
                 (A) (A) (A) (A) (A)
 The electronic state is 1-A.
 Alpha  occ. eigenvalues --  -19.61072 -19.54414  -1.05786  -0.99039  -0.71941
 Alpha  occ. eigenvalues --   -0.52054  -0.42962  -0.39789  -0.39027  -0.31839
 Alpha  occ. eigenvalues --   -0.29728  -0.28161  -0.27870
 Alpha virt. eigenvalues --   -0.01938   0.19344   0.27547   0.42297   0.43116
 Alpha virt. eigenvalues --    0.43482   0.67421   0.71308   0.78163   0.79541
 Alpha virt. eigenvalues --    0.86164   0.94697   1.01264   1.11807   1.46338
 Alpha virt. eigenvalues --    1.59698   9.24331
          Condensed to atoms (all electrons):
              1          2          3          4          5
     1  O    8.930499   0.150802  -0.115521   0.003283  -0.009449
     2  H    0.150802   0.285249   0.133526  -0.012254  -0.006168
     3  O   -0.115521   0.133526   8.799240   0.267089   0.008884
     4  H    0.003283  -0.012254   0.267089   0.389988  -0.000267
     5  I   -0.009449  -0.006168   0.008884  -0.000267   6.755172
 Mulliken atomic charges:
              1
     1  O   -0.959614
     2  H    0.448845
     3  O   -1.093219
     4  H    0.352160
     5  I    0.251828
 Sum of Mulliken atomic charges =  -1.00000
 Mulliken charges with hydrogens summed into heavy atoms:
              1
     1  O   -0.510769
     3  O   -0.741059
     5  I    0.251828
 Sum of Mulliken charges with hydrogens summed into heavy atoms =  -1.00000
 Electronic spatial extent (au):  <R**2>=            570.4239
 Charge=             -1.0000 electrons
 Dipole moment (field-independent basis, Debye):
    X=            -12.0665    Y=              3.2718    Z=              0.6562  Tot=             12.5195
 Quadrupole moment (field-independent basis, Debye-Ang):
   XX=            -67.8296   YY=            -35.1193   ZZ=            -35.3311
   XY=              8.0741   XZ=              5.2856   YZ=              0.8007
 Traceless Quadrupole moment (field-independent basis, Debye-Ang):
   XX=            -21.7363   YY=             10.9741   ZZ=             10.7622
   XY=              8.0741   XZ=              5.2856   YZ=              0.8007
 Octapole moment (field-independent basis, Debye-Ang**2):
  XXX=           -176.6002  YYY=              3.0666  ZZZ=              0.3456  XYY=            -14.7910
  XXY=             27.1919  XXZ=             23.1285  XZZ=            -15.6441  YZZ=              1.1351
  YYZ=              0.3379  XYZ=              3.1538
 Hexadecapole moment (field-independent basis, Debye-Ang**3):
 XXXX=          -1086.1604 YYYY=            -54.1379 ZZZZ=            -53.1437 XXXY=             88.5594
 XXXZ=             99.6204 YYYX=              4.8736 YYYZ=              0.6953 ZZZX=              4.8386
 ZZZY=              0.6898 XXYY=           -121.6718 XXZZ=           -125.3200 YYZZ=            -17.6975
 XXYZ=             11.6442 YYXZ=              2.5589 ZZXY=              2.0870
 N-N= 5.146127724416D+01 E-N=-4.906295531305D+02  KE= 1.540388856954D+02


 IT IS IMPOSSIBLE TO MEDITATE ON TIME AND THE MYSTERY 
 OF NATURE WITHOUT AN OVERWHELMING EMOTION AT THE
 LIMITATIONS OF HUMAN INTELLIGENCE.

                                         -- ALFRED NORTH WHITEHEAD
 Error termination request processed by link 9999.
 Error termination via Lnk1e in C:\G09W\l9999.exe at Tue Feb 02 03:25:36 2021.
 Job cpu time:  0 days  0 hours  2 minutes  0.0 seconds.
 File lengths (MBytes):  RWF=     17 Int=      0 D2E=      0 Chk=      2 Scr=      1
