 Entering Link 1 = C:\G09W\l1.exe PID=     10288.
  
 Copyright (c) 1988,1990,1992,1993,1995,1998,2003,2009, Gaussian, Inc.
                  All Rights Reserved.
  
 This is part of the Gaussian(R) 09 program.  It is based on
 the Gaussian(R) 03 system (copyright 2003, Gaussian, Inc.),
 the Gaussian(R) 98 system (copyright 1998, Gaussian, Inc.),
 the Gaussian(R) 94 system (copyright 1995, Gaussian, Inc.),
 the Gaussian 92(TM) system (copyright 1992, Gaussian, Inc.),
 the Gaussian 90(TM) system (copyright 1990, Gaussian, Inc.),
 the Gaussian 88(TM) system (copyright 1988, Gaussian, Inc.),
 the Gaussian 86(TM) system (copyright 1986, Carnegie Mellon
 University), and the Gaussian 82(TM) system (copyright 1983,
 Carnegie Mellon University). Gaussian is a federally registered
 trademark of Gaussian, Inc.
  
 This software contains proprietary and confidential information,
 including trade secrets, belonging to Gaussian, Inc.
  
 This software is provided under written license and may be
 used, copied, transmitted, or stored only in accord with that
 written license.
  
 The following legend is applicable only to US Government
 contracts under FAR:
  
                    RESTRICTED RIGHTS LEGEND
  
 Use, reproduction and disclosure by the US Government is
 subject to restrictions as set forth in subparagraphs (a)
 and (c) of the Commercial Computer Software - Restricted
 Rights clause in FAR 52.227-19.
  
 Gaussian, Inc.
 340 Quinnipiac St., Bldg. 40, Wallingford CT 06492
  
  
 ---------------------------------------------------------------
 Warning -- This program may not be used in any manner that
 competes with the business of Gaussian, Inc. or will provide
 assistance to any competitor of Gaussian, Inc.  The licensee
 of this program is prohibited from giving any competitor of
 Gaussian, Inc. access to this program.  By using this program,
 the user acknowledges that Gaussian, Inc. is engaged in the
 business of creating and licensing software in the field of
 computational chemistry and represents and warrants to the
 licensee that it is not a competitor of Gaussian, Inc. and that
 it will not use this program in any manner prohibited above.
 ---------------------------------------------------------------
  

 Cite this work as:
 Gaussian 09, Revision A.02,
 M. J. Frisch, G. W. Trucks, H. B. Schlegel, G. E. Scuseria, 
 M. A. Robb, J. R. Cheeseman, G. Scalmani, V. Barone, B. Mennucci, 
 G. A. Petersson, H. Nakatsuji, M. Caricato, X. Li, H. P. Hratchian, 
 A. F. Izmaylov, J. Bloino, G. Zheng, J. L. Sonnenberg, M. Hada, 
 M. Ehara, K. Toyota, R. Fukuda, J. Hasegawa, M. Ishida, T. Nakajima, 
 Y. Honda, O. Kitao, H. Nakai, T. Vreven, J. A. Montgomery, Jr., 
 J. E. Peralta, F. Ogliaro, M. Bearpark, J. J. Heyd, E. Brothers, 
 K. N. Kudin, V. N. Staroverov, R. Kobayashi, J. Normand, 
 K. Raghavachari, A. Rendell, J. C. Burant, S. S. Iyengar, J. Tomasi, 
 M. Cossi, N. Rega, J. M. Millam, M. Klene, J. E. Knox, J. B. Cross, 
 V. Bakken, C. Adamo, J. Jaramillo, R. Gomperts, R. E. Stratmann, 
 O. Yazyev, A. J. Austin, R. Cammi, C. Pomelli, J. W. Ochterski, 
 R. L. Martin, K. Morokuma, V. G. Zakrzewski, G. A. Voth, 
 P. Salvador, J. J. Dannenberg, S. Dapprich, A. D. Daniels, 
 O. Farkas, J. B. Foresman, J. V. Ortiz, J. Cioslowski, 
 and D. J. Fox, Gaussian, Inc., Wallingford CT, 2009.
 
 ******************************************
 Gaussian 09:  IA32W-G09RevA.02 11-Jun-2009
                02-Feb-2021 
 ******************************************
 %chk=D:\Documents\rayGit\FQ\quimicaComputacional\proyecto\decompositionHydrogenP
 eroxide\decompositionCatalyzedByIodine\step1\ts\ts.chk
 %mem=1500MB
 %nprocshared=4
 Will use up to    4 processors via shared memory.
 ----------------------------------------------------------------------
 # opt=(readfc,ts,noeigen) geom=check guess=check freq=noraman lanl2dz 
 scrf=smd iop(1/8=3) m062x
 ----------------------------------------------------------------------
 1/5=1,8=3,10=3,11=1,14=-1,18=20,26=3,29=2,38=1/1,3;
 2/9=110,12=2,40=1/2;
 3/5=6,6=3,11=2,14=-4,16=1,25=1,30=1,70=32201,71=1,72=1,74=-55,116=-2/1,2,3;
 4/5=1/1;
 5/5=2,38=6/2;
 6/7=2,8=2,9=2,10=2,28=1/1;
 7//1,2,3,16;
 1/5=1,8=3,11=1,14=-1,18=20/3(2);
 2/9=110/2;
 99//99;
 2/9=110/2;
 3/5=6,6=3,11=2,14=-2,16=1,25=1,30=1,70=32205,71=1,74=-55/1,2,3;
 4/5=5,16=3/1;
 5/5=2,38=5/2;
 7//1,2,3,16;
 1/5=1,8=3,11=1,14=-1,18=20/3(-5);
 2/9=110/2;
 6/7=2,8=2,9=2,10=2,19=2,28=1/1;
 99/9=1/99;
 ------------------------------
 Hydrogen peroxide with iodine3
 ------------------------------
 Redundant internal coordinates taken from checkpoint file:
 D:\Documents\rayGit\FQ\quimicaComputacional\proyecto\decompositionHydrogenPeroxide\decompositionCatalyzedByIodine\step1\ts\ts.chk
 Charge = -1 Multiplicity = 1
 O,0,-1.4316333406,0.6047444536,0.5091441624
 H,0,-0.6703004026,0.8475798898,-0.244485446
 O,0,0.7706551626,0.713296899,-0.1002211018
 H,0,1.1176846114,1.6164776232,0.0255829334
 I,0,-3.4437480308,0.6645578644,0.494694302
 Recover connectivity data from disk.

 GradGradGradGradGradGradGradGradGradGradGradGradGradGradGradGradGradGrad
 Berny optimization.
 Initialization pass.
 Force constant matrix read from checkpoint file:
 D:\Documents\rayGit\FQ\quimicaComputacional\proyecto\decompositionHydrogenPeroxi
 de\decompositionCatalyzedByIodine\step1\ts\ts.chk
                           ----------------------------
                           !    Initial Parameters    !
                           ! (Angstroms and Degrees)  !
 --------------------------                            --------------------------
 ! Name  Definition              Value          Derivative Info.                !
 --------------------------------------------------------------------------------
 ! R1    R(1,2)                  1.0984         D2E/DX2 =    0.1834             !
 ! R2    R(1,5)                  2.0131         D2E/DX2 =    0.1831             !
 ! R3    R(2,3)                  1.4544         D2E/DX2 =    0.0405             !
 ! R4    R(3,4)                  0.9757         D2E/DX2 =    0.5866             !
 ! A1    A(2,1,5)              132.9446         D2E/DX2 =    0.0315             !
 ! A2    A(1,2,3)              126.7444         D2E/DX2 =    0.1931             !
 ! A3    A(2,3,4)              106.2431         D2E/DX2 =    0.0993             !
 ! D1    D(5,1,2,3)           -177.9297         D2E/DX2 =    0.0106             !
 ! D2    D(1,2,3,4)           -104.7107         D2E/DX2 =    0.0121             !
 --------------------------------------------------------------------------------
 Trust Radius=3.00D-02 FncErr=1.00D-07 GrdErr=1.00D-06
 Number of steps in this run=  20 maximum allowed number of steps= 100.
 Search for a saddle point of order  1.
 GradGradGradGradGradGradGradGradGradGradGradGradGradGradGradGradGradGrad

                          Input orientation:                          
 ---------------------------------------------------------------------
 Center     Atomic      Atomic             Coordinates (Angstroms)
 Number     Number       Type             X           Y           Z
 ---------------------------------------------------------------------
      1          8           0       -1.431633    0.604744    0.509144
      2          1           0       -0.670300    0.847580   -0.244485
      3          8           0        0.770655    0.713297   -0.100221
      4          1           0        1.117685    1.616478    0.025583
      5         53           0       -3.443748    0.664558    0.494694
 ---------------------------------------------------------------------
                    Distance matrix (angstroms):
                    1          2          3          4          5
     1  O    0.000000
     2  H    1.098433   0.000000
     3  O    2.287615   1.454372   0.000000
     4  H    2.785042   1.964951   0.975701   0.000000
     5  I    2.013055   2.876090   4.256465   4.683256   0.000000
 Stoichiometry    H2IO2(1-)
 Framework group  C1[X(H2IO2)]
 Deg. of freedom     9
 Full point group                 C1      NOp   1
 Largest Abelian subgroup         C1      NOp   1
 Largest concise Abelian subgroup C1      NOp   1
                         Standard orientation:                         
 ---------------------------------------------------------------------
 Center     Atomic      Atomic             Coordinates (Angstroms)
 Number     Number       Type             X           Y           Z
 ---------------------------------------------------------------------
      1          8           0        1.183472   -0.232942    0.132181
      2          1           0        2.038370    0.328924   -0.267830
      3          8           0        3.446106   -0.002357   -0.113786
      4          1           0        3.801946    0.619549    0.548485
      5         53           0       -0.808999    0.017621   -0.008072
 ---------------------------------------------------------------------
 Rotational constants (GHZ):    226.9683037      1.6211556      1.6173302
 Standard basis: LANL2DZ (5D, 7F)
 There are    30 symmetry adapted basis functions of A   symmetry.
 Integral buffers will be    262144 words long.
 Raffenetti 2 integral format.
 Two-electron integral symmetry is turned on.
    30 basis functions,    70 primitive gaussians,    30 cartesian basis functions
    13 alpha electrons       13 beta electrons
       nuclear repulsion energy        51.4595992349 Hartrees.
 NAtoms=    5 NActive=    5 NUniq=    5 SFac= 7.50D-01 NAtFMM=   80 NAOKFM=F Big=F
 ------------------------------------------------------------------------------
 Polarizable Continuum Model (PCM)
 =================================
 Model                : PCM.
 Atomic radii         : SMD-Coulomb.
 Polarization charges : Total charges.
 Charge compensation  : None.
 Solution method      : Matrix inversion.
 Cavity type          : VdW (van der Waals Surface) (Alpha=1.000).
 Cavity algorithm     : GePol (No added spheres)
                        Default sphere list used, NSphG=    5.
                        Lebedev-Laikov grids with approx.  5.0 points / Ang**2.
                        Smoothing algorithm: Karplus/York (Gamma=1.0000).
                        Polarization charges: spherical gaussians, with
                                              point-specific exponents (IZeta= 3).
                        Self-potential: point-specific (ISelfS= 7).
                        Self-field    : sphere-specific E.n sum rule (ISelfD= 2).
 1st derivatives      : Analytical E(r).r(x)/FMM algorithm (CHGder, D1EAlg=3).
                        Cavity 1st derivative terms included.
 Solvent              : Water, Eps=  78.355300 Eps(inf)=   1.777849
 ------------------------------------------------------------------------------
 Spheres list:
 ISph  on   Nord    Re0     Alpha      Xe            Ye            Ze
    1   O      1    1.520   1.000      1.183472     -0.232942      0.132181
    2   H      2    1.200   1.000      2.038370      0.328924     -0.267830
    3   O      3    1.520   1.000      3.446106     -0.002357     -0.113786
    4   H      4    1.200   1.000      3.801946      0.619549      0.548485
    5   I      5    1.980   1.000     -0.808999      0.017621     -0.008072
 ------------------------------------------------------------------------------
 ------------------------------------------------------------------------------
 Atomic radii for non-electrostatic terms: SMD-CDS.
 ------------------------------------------------------------------------------
 Nuclear repulsion after PCM non-electrostatic terms =       51.4612772442 Hartrees.
 One-electron integrals computed using PRISM.
   1 Symmetry operations used in ECPInt.
 ECPInt:  NShTT=     171 NPrTT=    1054 LenC2=     172 LenP2D=     914.
 LDataN:  DoStor=T MaxTD1= 4 Len=   56
 NBasis=    30 RedAO= T  NBF=    30
 NBsUse=    30 1.00D-06 NBFU=    30
 Defaulting to unpruned grid for atomic number  53.
 Initial guess read from the checkpoint file:  D:\Documents\rayGit\FQ\quimicaComp
 utacional\proyecto\decompositionHydrogenPeroxide\decompositionCatalyzedByIodine\
 step1\ts\ts.chk
 B after Tr=     0.000000    0.000000    0.000000
         Rot=    1.000000    0.000000    0.000000    0.000000 Ang=   0.00 deg.
 Initial guess orbital symmetries:
       Occupied  (A) (A) (A) (A) (A) (A) (A) (A) (A) (A) (A) (A)
                 (A)
       Virtual   (A) (A) (A) (A) (A) (A) (A) (A) (A) (A) (A) (A)
                 (A) (A) (A) (A) (A)
 Requested convergence on RMS density matrix=1.00D-08 within 128 cycles.
 Requested convergence on MAX density matrix=1.00D-06.
 Requested convergence on             energy=1.00D-06.
 No special actions if energy rises.
 Keep R1 ints in memory in canonical form, NReq=3415442.
 Defaulting to unpruned grid for atomic number  53.
 Defaulting to unpruned grid for atomic number  53.
 Defaulting to unpruned grid for atomic number  53.
 Defaulting to unpruned grid for atomic number  53.
 Error on total polarization charges =  0.07610
 SCF Done:  E(RM062X) =  -163.003657497     A.U. after    1 cycles
             Convg  =    0.6088D-09             -V/T =  2.0582
 SMD-CDS (non-electrostatic) energy             (kcal/mol) =       1.05
 (included in total energy above)

 **********************************************************************

            Population analysis using the SCF density.

 **********************************************************************

 Orbital symmetries:
       Occupied  (A) (A) (A) (A) (A) (A) (A) (A) (A) (A) (A) (A)
                 (A)
       Virtual   (A) (A) (A) (A) (A) (A) (A) (A) (A) (A) (A) (A)
                 (A) (A) (A) (A) (A)
 The electronic state is 1-A.
 Alpha  occ. eigenvalues --  -19.61072 -19.54414  -1.05786  -0.99039  -0.71941
 Alpha  occ. eigenvalues --   -0.52054  -0.42962  -0.39789  -0.39027  -0.31839
 Alpha  occ. eigenvalues --   -0.29728  -0.28161  -0.27870
 Alpha virt. eigenvalues --   -0.01938   0.19344   0.27547   0.42297   0.43116
 Alpha virt. eigenvalues --    0.43482   0.67421   0.71308   0.78163   0.79541
 Alpha virt. eigenvalues --    0.86164   0.94697   1.01264   1.11807   1.46338
 Alpha virt. eigenvalues --    1.59698   9.24331
          Condensed to atoms (all electrons):
              1          2          3          4          5
     1  O    8.930499   0.150802  -0.115521   0.003283  -0.009449
     2  H    0.150802   0.285249   0.133526  -0.012254  -0.006168
     3  O   -0.115521   0.133526   8.799240   0.267089   0.008884
     4  H    0.003283  -0.012254   0.267089   0.389988  -0.000267
     5  I   -0.009449  -0.006168   0.008884  -0.000267   6.755172
 Mulliken atomic charges:
              1
     1  O   -0.959614
     2  H    0.448845
     3  O   -1.093219
     4  H    0.352160
     5  I    0.251828
 Sum of Mulliken atomic charges =  -1.00000
 Mulliken charges with hydrogens summed into heavy atoms:
              1
     1  O   -0.510769
     3  O   -0.741059
     5  I    0.251828
 Sum of Mulliken charges with hydrogens summed into heavy atoms =  -1.00000
 Electronic spatial extent (au):  <R**2>=            570.4239
 Charge=             -1.0000 electrons
 Dipole moment (field-independent basis, Debye):
    X=            -12.0665    Y=              3.2718    Z=              0.6562  Tot=             12.5195
 Quadrupole moment (field-independent basis, Debye-Ang):
   XX=            -67.8296   YY=            -35.1193   ZZ=            -35.3311
   XY=              8.0741   XZ=              5.2856   YZ=              0.8007
 Traceless Quadrupole moment (field-independent basis, Debye-Ang):
   XX=            -21.7363   YY=             10.9741   ZZ=             10.7622
   XY=              8.0741   XZ=              5.2856   YZ=              0.8007
 Octapole moment (field-independent basis, Debye-Ang**2):
  XXX=           -176.6002  YYY=              3.0666  ZZZ=              0.3456  XYY=            -14.7910
  XXY=             27.1919  XXZ=             23.1285  XZZ=            -15.6441  YZZ=              1.1351
  YYZ=              0.3379  XYZ=              3.1538
 Hexadecapole moment (field-independent basis, Debye-Ang**3):
 XXXX=          -1086.1604 YYYY=            -54.1379 ZZZZ=            -53.1437 XXXY=             88.5594
 XXXZ=             99.6204 YYYX=              4.8736 YYYZ=              0.6953 ZZZX=              4.8386
 ZZZY=              0.6898 XXYY=           -121.6718 XXZZ=           -125.3200 YYZZ=            -17.6975
 XXYZ=             11.6442 YYXZ=              2.5589 ZZXY=              2.0870
 N-N= 5.146127724416D+01 E-N=-4.906295531153D+02  KE= 1.540388856878D+02
   1 Symmetry operations used in ECPInt.
 ECPInt:  NShTT=     171 NPrTT=    1054 LenC2=     172 LenP2D=     914.
 LDataN:  DoStor=T MaxTD1= 5 Len=  102
 D1PCM: PCM CHGder 1st derivatives, ID1Alg=3 FixD1E=F DoIter=F DoCFld=F I1PDM=0.
 Calling FoFJK, ICntrl=      2127 FMM=F ISym2X=0 I1Cent= 0 IOpClX= 0 NMat=1 NMatS=1 NMatT=0.
 Defaulting to unpruned grid for atomic number  53.
 Defaulting to unpruned grid for atomic number  53.
 Defaulting to unpruned grid for atomic number  53.
 Defaulting to unpruned grid for atomic number  53.
 ***** Axes restored to original set *****
 -------------------------------------------------------------------
 Center     Atomic                   Forces (Hartrees/Bohr)
 Number     Number              X              Y              Z
 -------------------------------------------------------------------
      1        8          -0.006059020    0.000577747    0.003287673
      2        1           0.018176562   -0.010578716    0.021645905
      3        8          -0.008270419    0.003253163   -0.018131369
      4        1           0.002863091    0.004448344    0.000978642
      5       53          -0.006710213    0.002299462   -0.007780851
 -------------------------------------------------------------------
 Cartesian Forces:  Max     0.021645905 RMS     0.010020727

 GradGradGradGradGradGradGradGradGradGradGradGradGradGradGradGradGradGrad
 Berny optimization.
 Internal  Forces:  Max     0.051282408 RMS     0.019761144
 Search for a saddle point.
 Step number   1 out of a maximum of   20
 All quantities printed in internal units (Hartrees-Bohrs-Radians)
 Swaping is turned off.
 Second derivative matrix not updated -- first step.
 The second derivative matrix:
                          R1        R2        R3        R4        A1
           R1           0.18342
           R2           0.03834   0.18306
           R3           0.11138   0.02851   0.04050
           R4           0.00151  -0.00202  -0.00451   0.58657
           A1           0.05853   0.03086   0.02120  -0.00365   0.03152
           A2           0.08829   0.07776   0.08218  -0.00205   0.03626
           A3           0.00940   0.00414   0.00788   0.01400  -0.00095
           D1          -0.00303   0.00196  -0.00713   0.00119   0.00091
           D2           0.00328   0.00114   0.00067   0.00404   0.00117
                          A2        A3        D1        D2
           A2           0.19313
           A3          -0.00926   0.09930
           D1          -0.00723   0.00144   0.01055
           D2          -0.00432   0.01227  -0.00715   0.01215
     Eigenvalues ---   -0.02878   0.00239   0.01467   0.01828   0.08223
     Eigenvalues ---    0.11059   0.15963   0.39406   0.58713
 Eigenvectors required to have negative eigenvalues:
                          R3        R1        A1        A2        D1
   1                    0.84928  -0.43182   0.22721  -0.17633   0.08807
                          A3        D2        R4        R2
   1                   -0.03537   0.02095   0.00852  -0.00467
 RFO step:  Lambda0=1.389622277D-02 Lambda=-2.70724449D-02.
 Linear search not attempted -- option 19 set.
 Maximum step size (   0.030) exceeded in Quadratic search.
    -- Step size scaled by   0.035
 Iteration  1 RMS(Cart)=  0.01288742 RMS(Int)=  0.00009627
 Iteration  2 RMS(Cart)=  0.00012368 RMS(Int)=  0.00000001
 Iteration  3 RMS(Cart)=  0.00000001 RMS(Int)=  0.00000000
 Variable       Old X    -DE/DX   Delta X   Delta X   Delta X     New X
                                 (Linear)    (Quad)   (Total)
    R1        2.07574   0.00575   0.00000  -0.01105  -0.01105   2.06469
    R2        3.80412   0.00669   0.00000  -0.00033  -0.00033   3.80379
    R3        2.74836  -0.00797   0.00000   0.02178   0.02178   2.77014
    R4        1.84381   0.00516   0.00000   0.00040   0.00040   1.84420
    A1        2.32032  -0.02668   0.00000  -0.01352  -0.01352   2.30680
    A2        2.21211   0.05128   0.00000   0.00643   0.00643   2.21854
    A3        1.85429   0.00211   0.00000  -0.00030  -0.00030   1.85399
    D1       -3.10546   0.00071   0.00000   0.00808   0.00808  -3.09738
    D2       -1.82755   0.00008   0.00000   0.00371   0.00371  -1.82384
         Item               Value     Threshold  Converged?
 Maximum Force            0.051282     0.000450     NO 
 RMS     Force            0.019761     0.000300     NO 
 Maximum Displacement     0.018243     0.001800     NO 
 RMS     Displacement     0.012970     0.001200     NO 
 Predicted change in Energy=-4.548505D-04
 GradGradGradGradGradGradGradGradGradGradGradGradGradGradGradGradGradGrad

                          Input orientation:                          
 ---------------------------------------------------------------------
 Center     Atomic      Atomic             Coordinates (Angstroms)
 Number     Number       Type             X           Y           Z
 ---------------------------------------------------------------------
      1          8           0       -1.432063    0.603518    0.517794
      2          1           0       -0.679003    0.848865   -0.234832
      3          8           0        0.775134    0.713854   -0.107898
      4          1           0        1.122379    1.616406    0.023333
      5         53           0       -3.443789    0.664013    0.486318
 ---------------------------------------------------------------------
                    Distance matrix (angstroms):
                    1          2          3          4          5
     1  O    0.000000
     2  H    1.092585   0.000000
     3  O    2.296821   1.465897   0.000000
     4  H    2.792062   1.975030   0.975911   0.000000
     5  I    2.012881   2.863262   4.260855   4.687355   0.000000
 Stoichiometry    H2IO2(1-)
 Framework group  C1[X(H2IO2)]
 Deg. of freedom     9
 Full point group                 C1      NOp   1
 Largest Abelian subgroup         C1      NOp   1
 Largest concise Abelian subgroup C1      NOp   1
                         Standard orientation:                         
 ---------------------------------------------------------------------
 Center     Atomic      Atomic             Coordinates (Angstroms)
 Number     Number       Type             X           Y           Z
 ---------------------------------------------------------------------
      1          8           0        1.181241   -0.252264    0.120912
      2          1           0        2.026895    0.344316   -0.229378
      3          8           0        3.450254    0.011795   -0.118330
      4          1           0        3.806053    0.571677    0.597450
      5         53           0       -0.809149    0.019014   -0.007334
 ---------------------------------------------------------------------
 Rotational constants (GHZ):    215.4924766      1.6190767      1.6147585
 Standard basis: LANL2DZ (5D, 7F)
 There are    30 symmetry adapted basis functions of A   symmetry.
 Integral buffers will be    262144 words long.
 Raffenetti 2 integral format.
 Two-electron integral symmetry is turned on.
    30 basis functions,    70 primitive gaussians,    30 cartesian basis functions
    13 alpha electrons       13 beta electrons
       nuclear repulsion energy        51.3910573200 Hartrees.
 NAtoms=    5 NActive=    5 NUniq=    5 SFac= 7.50D-01 NAtFMM=   80 NAOKFM=F Big=F
 ------------------------------------------------------------------------------
 Polarizable Continuum Model (PCM)
 =================================
 Model                : PCM.
 Atomic radii         : SMD-Coulomb.
 Polarization charges : Total charges.
 Charge compensation  : None.
 Solution method      : Matrix inversion.
 Cavity type          : VdW (van der Waals Surface) (Alpha=1.000).
 Cavity algorithm     : GePol (No added spheres)
                        Default sphere list used, NSphG=    5.
                        Lebedev-Laikov grids with approx.  5.0 points / Ang**2.
                        Smoothing algorithm: Karplus/York (Gamma=1.0000).
                        Polarization charges: spherical gaussians, with
                                              point-specific exponents (IZeta= 3).
                        Self-potential: point-specific (ISelfS= 7).
                        Self-field    : sphere-specific E.n sum rule (ISelfD= 2).
 1st derivatives      : Analytical E(r).r(x)/FMM algorithm (CHGder, D1EAlg=3).
                        Cavity 1st derivative terms included.
 Solvent              : Water, Eps=  78.355300 Eps(inf)=   1.777849
 ------------------------------------------------------------------------------
 Spheres list:
 ISph  on   Nord    Re0     Alpha      Xe            Ye            Ze
    1   O      1    1.520   1.000      1.181241     -0.252264      0.120912
    2   H      2    1.200   1.000      2.026895      0.344316     -0.229378
    3   O      3    1.520   1.000      3.450254      0.011795     -0.118330
    4   H      4    1.200   1.000      3.806053      0.571677      0.597450
    5   I      5    1.980   1.000     -0.809149      0.019014     -0.007334
 ------------------------------------------------------------------------------
 ------------------------------------------------------------------------------
 Atomic radii for non-electrostatic terms: SMD-CDS.
 ------------------------------------------------------------------------------
 Nuclear repulsion after PCM non-electrostatic terms =       51.3927300038 Hartrees.
 One-electron integrals computed using PRISM.
   1 Symmetry operations used in ECPInt.
 ECPInt:  NShTT=     171 NPrTT=    1054 LenC2=     172 LenP2D=     914.
 LDataN:  DoStor=T MaxTD1= 4 Len=   56
 NBasis=    30 RedAO= T  NBF=    30
 NBsUse=    30 1.00D-06 NBFU=    30
 Defaulting to unpruned grid for atomic number  53.
 Initial guess read from the read-write file.
 B after Tr=     0.000000    0.000000    0.000000
         Rot=    1.000000    0.000000    0.000000    0.000000 Ang=   0.00 deg.
 Initial guess orbital symmetries:
       Occupied  (A) (A) (A) (A) (A) (A) (A) (A) (A) (A) (A) (A)
                 (A)
       Virtual   (A) (A) (A) (A) (A) (A) (A) (A) (A) (A) (A) (A)
                 (A) (A) (A) (A) (A)
 Requested convergence on RMS density matrix=1.00D-08 within 128 cycles.
 Requested convergence on MAX density matrix=1.00D-06.
 Requested convergence on             energy=1.00D-06.
 No special actions if energy rises.
 Keep R1 ints in memory in canonical form, NReq=3410312.
 Defaulting to unpruned grid for atomic number  53.
 Defaulting to unpruned grid for atomic number  53.
 Defaulting to unpruned grid for atomic number  53.
 Defaulting to unpruned grid for atomic number  53.
 Error on total polarization charges =  0.07604
 SCF Done:  E(RM062X) =  -163.004072278     A.U. after   11 cycles
             Convg  =    0.3554D-08             -V/T =  2.0582
 SMD-CDS (non-electrostatic) energy             (kcal/mol) =       1.05
 (included in total energy above)
   1 Symmetry operations used in ECPInt.
 ECPInt:  NShTT=     171 NPrTT=    1054 LenC2=     172 LenP2D=     914.
 LDataN:  DoStor=T MaxTD1= 5 Len=  102
 D1PCM: PCM CHGder 1st derivatives, ID1Alg=3 FixD1E=F DoIter=F DoCFld=F I1PDM=0.
 Calling FoFJK, ICntrl=      2127 FMM=F ISym2X=0 I1Cent= 0 IOpClX= 0 NMat=1 NMatS=1 NMatT=0.
 Defaulting to unpruned grid for atomic number  53.
 Defaulting to unpruned grid for atomic number  53.
 Defaulting to unpruned grid for atomic number  53.
 Defaulting to unpruned grid for atomic number  53.
 ***** Axes restored to original set *****
 -------------------------------------------------------------------
 Center     Atomic                   Forces (Hartrees/Bohr)
 Number     Number              X              Y              Z
 -------------------------------------------------------------------
      1        8          -0.005909401    0.000689154    0.003698066
      2        1           0.018011760   -0.010436747    0.020419587
      3        8          -0.008289653    0.003525200   -0.017352926
      4        1           0.002689841    0.004152313    0.000801747
      5       53          -0.006502547    0.002070081   -0.007566474
 -------------------------------------------------------------------
 Cartesian Forces:  Max     0.020419587 RMS     0.009697386

 GradGradGradGradGradGradGradGradGradGradGradGradGradGradGradGradGradGrad
 Berny optimization.
 Internal  Forces:  Max     0.049654544 RMS     0.019184160
 Search for a saddle point.
 Step number   2 out of a maximum of   20
 All quantities printed in internal units (Hartrees-Bohrs-Radians)
 Swaping is turned off.
 Update second derivatives using D2CorX and points    1    2
 The second derivative matrix:
                          R1        R2        R3        R4        A1
           R1           0.18693
           R2           0.04021   0.18364
           R3           0.10948   0.02632   0.03820
           R4          -0.00231  -0.00319   0.00002   0.58891
           A1           0.06270   0.03310   0.01903  -0.00824   0.03645
           A2           0.08524   0.07637   0.08450   0.00077   0.03263
           A3           0.01100   0.00464   0.00601   0.01300   0.00097
           D1          -0.00350   0.00122  -0.00827   0.00272   0.00039
           D2           0.00231   0.00057   0.00106   0.00520   0.00002
                          A2        A3        D1        D2
           A2           0.19563
           A3          -0.01044   0.09973
           D1          -0.00655   0.00081   0.01003
           D2          -0.00345   0.01179  -0.00708   0.01241
     Eigenvalues ---   -0.03071   0.00301   0.01551   0.01972   0.08547
     Eigenvalues ---    0.11568   0.15977   0.39397   0.58952
 Eigenvectors required to have negative eigenvalues:
                          R3        R1        A1        A2        D1
   1                    0.84723  -0.41826   0.24138  -0.19352   0.10439
                          A3        D2        R2        R4
   1                   -0.02292   0.00902   0.00600   0.00184
 RFO step:  Lambda0=1.385347401D-02 Lambda=-2.33159845D-02.
 Linear search not attempted -- option 19 set.
 Maximum step size (   0.030) exceeded in Quadratic search.
    -- Step size scaled by   0.037
 Iteration  1 RMS(Cart)=  0.01242521 RMS(Int)=  0.00007949
 Iteration  2 RMS(Cart)=  0.00010590 RMS(Int)=  0.00000001
 Iteration  3 RMS(Cart)=  0.00000001 RMS(Int)=  0.00000000
 Variable       Old X    -DE/DX   Delta X   Delta X   Delta X     New X
                                 (Linear)    (Quad)   (Total)
    R1        2.06469   0.00577   0.00000  -0.01075  -0.01075   2.05393
    R2        3.80379   0.00656   0.00000   0.00035   0.00035   3.80414
    R3        2.77014  -0.00780   0.00000   0.02262   0.02262   2.79276
    R4        1.84420   0.00474   0.00000   0.00000   0.00000   1.84421
    A1        2.30680  -0.02611   0.00000  -0.01217  -0.01217   2.29463
    A2        2.21854   0.04965   0.00000   0.00525   0.00525   2.22378
    A3        1.85399   0.00216   0.00000   0.00059   0.00059   1.85458
    D1       -3.09738   0.00084   0.00000   0.00951   0.00951  -3.08788
    D2       -1.82384   0.00012   0.00000   0.00254   0.00254  -1.82130
         Item               Value     Threshold  Converged?
 Maximum Force            0.049655     0.000450     NO 
 RMS     Force            0.019184     0.000300     NO 
 Maximum Displacement     0.016819     0.001800     NO 
 RMS     Displacement     0.012495     0.001200     NO 
 Predicted change in Energy=-3.474860D-04
 GradGradGradGradGradGradGradGradGradGradGradGradGradGradGradGradGradGrad

                          Input orientation:                          
 ---------------------------------------------------------------------
 Center     Atomic      Atomic             Coordinates (Angstroms)
 Number     Number       Type             X           Y           Z
 ---------------------------------------------------------------------
      1          8           0       -1.432890    0.603492    0.525697
      2          1           0       -0.687791    0.850922   -0.225931
      3          8           0        0.779541    0.714358   -0.114706
      4          1           0        1.128347    1.615655    0.020956
      5         53           0       -3.444549    0.662230    0.478699
 ---------------------------------------------------------------------
                    Distance matrix (angstroms):
                    1          2          3          4          5
     1  O    0.000000
     2  H    1.086894   0.000000
     3  O    2.305918   1.477865   0.000000
     4  H    2.799852   1.985983   0.975913   0.000000
     5  I    2.013065   2.851634   4.265886   4.693604   0.000000
 Stoichiometry    H2IO2(1-)
 Framework group  C1[X(H2IO2)]
 Deg. of freedom     9
 Full point group                 C1      NOp   1
 Largest Abelian subgroup         C1      NOp   1
 Largest concise Abelian subgroup C1      NOp   1
                         Standard orientation:                         
 ---------------------------------------------------------------------
 Center     Atomic      Atomic             Coordinates (Angstroms)
 Number     Number       Type             X           Y           Z
 ---------------------------------------------------------------------
      1          8           0        1.179376   -0.269021    0.108450
      2          1           0        2.016227    0.356228   -0.191690
      3          8           0        3.454856    0.025347   -0.121327
      4          1           0        3.812397    0.521224    0.639382
      5         53           0       -0.809481    0.020225   -0.006503
 ---------------------------------------------------------------------
 Rotational constants (GHZ):    206.0691283      1.6163918      1.6116190
 Standard basis: LANL2DZ (5D, 7F)
 There are    30 symmetry adapted basis functions of A   symmetry.
 Integral buffers will be    262144 words long.
 Raffenetti 2 integral format.
 Two-electron integral symmetry is turned on.
    30 basis functions,    70 primitive gaussians,    30 cartesian basis functions
    13 alpha electrons       13 beta electrons
       nuclear repulsion energy        51.3187530712 Hartrees.
 NAtoms=    5 NActive=    5 NUniq=    5 SFac= 7.50D-01 NAtFMM=   80 NAOKFM=F Big=F
 ------------------------------------------------------------------------------
 Polarizable Continuum Model (PCM)
 =================================
 Model                : PCM.
 Atomic radii         : SMD-Coulomb.
 Polarization charges : Total charges.
 Charge compensation  : None.
 Solution method      : Matrix inversion.
 Cavity type          : VdW (van der Waals Surface) (Alpha=1.000).
 Cavity algorithm     : GePol (No added spheres)
                        Default sphere list used, NSphG=    5.
                        Lebedev-Laikov grids with approx.  5.0 points / Ang**2.
                        Smoothing algorithm: Karplus/York (Gamma=1.0000).
                        Polarization charges: spherical gaussians, with
                                              point-specific exponents (IZeta= 3).
                        Self-potential: point-specific (ISelfS= 7).
                        Self-field    : sphere-specific E.n sum rule (ISelfD= 2).
 1st derivatives      : Analytical E(r).r(x)/FMM algorithm (CHGder, D1EAlg=3).
                        Cavity 1st derivative terms included.
 Solvent              : Water, Eps=  78.355300 Eps(inf)=   1.777849
 ------------------------------------------------------------------------------
 Spheres list:
 ISph  on   Nord    Re0     Alpha      Xe            Ye            Ze
    1   O      1    1.520   1.000      1.179376     -0.269021      0.108450
    2   H      2    1.200   1.000      2.016227      0.356228     -0.191690
    3   O      3    1.520   1.000      3.454856      0.025347     -0.121327
    4   H      4    1.200   1.000      3.812397      0.521224      0.639382
    5   I      5    1.980   1.000     -0.809481      0.020225     -0.006503
 ------------------------------------------------------------------------------
 ------------------------------------------------------------------------------
 Atomic radii for non-electrostatic terms: SMD-CDS.
 ------------------------------------------------------------------------------
 Nuclear repulsion after PCM non-electrostatic terms =       51.3204277948 Hartrees.
 One-electron integrals computed using PRISM.
   1 Symmetry operations used in ECPInt.
 ECPInt:  NShTT=     171 NPrTT=    1054 LenC2=     172 LenP2D=     914.
 LDataN:  DoStor=T MaxTD1= 4 Len=   56
 NBasis=    30 RedAO= T  NBF=    30
 NBsUse=    30 1.00D-06 NBFU=    30
 Defaulting to unpruned grid for atomic number  53.
 Initial guess read from the read-write file.
 B after Tr=     0.000000    0.000000    0.000000
         Rot=    1.000000    0.000000    0.000000    0.000000 Ang=   0.00 deg.
 Initial guess orbital symmetries:
       Occupied  (A) (A) (A) (A) (A) (A) (A) (A) (A) (A) (A) (A)
                 (A)
       Virtual   (A) (A) (A) (A) (A) (A) (A) (A) (A) (A) (A) (A)
                 (A) (A) (A) (A) (A)
 Requested convergence on RMS density matrix=1.00D-08 within 128 cycles.
 Requested convergence on MAX density matrix=1.00D-06.
 Requested convergence on             energy=1.00D-06.
 No special actions if energy rises.
 Keep R1 ints in memory in canonical form, NReq=3410312.
 Defaulting to unpruned grid for atomic number  53.
 Defaulting to unpruned grid for atomic number  53.
 Defaulting to unpruned grid for atomic number  53.
 Defaulting to unpruned grid for atomic number  53.
 Error on total polarization charges =  0.07604
 SCF Done:  E(RM062X) =  -163.004362378     A.U. after   11 cycles
             Convg  =    0.3548D-08             -V/T =  2.0582
 SMD-CDS (non-electrostatic) energy             (kcal/mol) =       1.05
 (included in total energy above)
   1 Symmetry operations used in ECPInt.
 ECPInt:  NShTT=     171 NPrTT=    1054 LenC2=     172 LenP2D=     914.
 LDataN:  DoStor=T MaxTD1= 5 Len=  102
 D1PCM: PCM CHGder 1st derivatives, ID1Alg=3 FixD1E=F DoIter=F DoCFld=F I1PDM=0.
 Calling FoFJK, ICntrl=      2127 FMM=F ISym2X=0 I1Cent= 0 IOpClX= 0 NMat=1 NMatS=1 NMatT=0.
 Defaulting to unpruned grid for atomic number  53.
 Defaulting to unpruned grid for atomic number  53.
 Defaulting to unpruned grid for atomic number  53.
 Defaulting to unpruned grid for atomic number  53.
 ***** Axes restored to original set *****
 -------------------------------------------------------------------
 Center     Atomic                   Forces (Hartrees/Bohr)
 Number     Number              X              Y              Z
 -------------------------------------------------------------------
      1        8          -0.005777762    0.000905515    0.003994891
      2        1           0.017897334   -0.010426472    0.019302886
      3        8          -0.008612662    0.003455561   -0.016820405
      4        1           0.002678458    0.004178916    0.000850108
      5       53          -0.006185369    0.001886480   -0.007327479
 -------------------------------------------------------------------
 Cartesian Forces:  Max     0.019302886 RMS     0.009457637

 GradGradGradGradGradGradGradGradGradGradGradGradGradGradGradGradGradGrad
 Berny optimization.
 Internal  Forces:  Max     0.048073823 RMS     0.018635606
 Search for a saddle point.
 Step number   3 out of a maximum of   20
 All quantities printed in internal units (Hartrees-Bohrs-Radians)
 Swaping is turned off.
 Update second derivatives using D2CorX and points    1    2    3
 The second derivative matrix:
                          R1        R2        R3        R4        A1
           R1           0.18681
           R2           0.04019   0.18364
           R3           0.10815   0.02643   0.04557
           R4          -0.00051  -0.00324  -0.00528   0.59069
           A1           0.06286   0.03306   0.01662  -0.00586   0.03703
           A2           0.08535   0.07639   0.08505  -0.00011   0.03261
           A3           0.01167   0.00462   0.00410   0.01361   0.00184
           D1          -0.00325   0.00124  -0.00759   0.00135   0.00045
           D2           0.00386   0.00053  -0.00307   0.00625   0.00199
                          A2        A3        D1        D2
           A2           0.19556
           A3          -0.01077   0.09993
           D1          -0.00670   0.00030   0.00971
           D2          -0.00422   0.01213  -0.00830   0.01290
     Eigenvalues ---   -0.02619   0.00174   0.01865   0.02092   0.08466
     Eigenvalues ---    0.11677   0.15969   0.39427   0.59134
 Eigenvectors required to have negative eigenvalues:
                          R3        R1        A1        A2        D1
   1                    0.81511  -0.42746   0.30552  -0.18819   0.11740
                          D2        A3        R4        R2
   1                    0.09966  -0.01821   0.00862  -0.00083
 RFO step:  Lambda0=1.559072834D-02 Lambda=-2.18969458D-02.
 Linear search not attempted -- option 19 set.
 Maximum step size (   0.030) exceeded in Quadratic search.
    -- Step size scaled by   0.035
 Iteration  1 RMS(Cart)=  0.01068430 RMS(Int)=  0.00007419
 Iteration  2 RMS(Cart)=  0.00008808 RMS(Int)=  0.00000001
 Iteration  3 RMS(Cart)=  0.00000001 RMS(Int)=  0.00000000
 Variable       Old X    -DE/DX   Delta X   Delta X   Delta X     New X
                                 (Linear)    (Quad)   (Total)
    R1        2.05393   0.00565   0.00000  -0.01143  -0.01143   2.04250
    R2        3.80414   0.00632   0.00000  -0.00011  -0.00011   3.80404
    R3        2.79276  -0.00784   0.00000   0.02145   0.02145   2.81421
    R4        1.84421   0.00475   0.00000   0.00025   0.00025   1.84446
    A1        2.29463  -0.02555   0.00000  -0.00790  -0.00790   2.28673
    A2        2.22378   0.04807   0.00000   0.00491   0.00491   2.22869
    A3        1.85458   0.00217   0.00000   0.00044   0.00044   1.85502
    D1       -3.08788   0.00094   0.00000   0.01159   0.01159  -3.07629
    D2       -1.82130   0.00032   0.00000   0.00938   0.00938  -1.81192
         Item               Value     Threshold  Converged?
 Maximum Force            0.048074     0.000450     NO 
 RMS     Force            0.018636     0.000300     NO 
 Maximum Displacement     0.015169     0.001800     NO 
 RMS     Displacement     0.010734     0.001200     NO 
 Predicted change in Energy=-2.176661D-04
 GradGradGradGradGradGradGradGradGradGradGradGradGradGradGradGradGradGrad

                          Input orientation:                          
 ---------------------------------------------------------------------
 Center     Atomic      Atomic             Coordinates (Angstroms)
 Number     Number       Type             X           Y           Z
 ---------------------------------------------------------------------
      1          8           0       -1.433736    0.607410    0.531491
      2          1           0       -0.695818    0.852104   -0.219393
      3          8           0        0.783734    0.714168   -0.121062
      4          1           0        1.133725    1.614243    0.020483
      5         53           0       -3.445246    0.658732    0.473196
 ---------------------------------------------------------------------
                    Distance matrix (angstroms):
                    1          2          3          4          5
     1  O    0.000000
     2  H    1.080844   0.000000
     3  O    2.313956   1.489218   0.000000
     4  H    2.804763   1.996403   0.976045   0.000000
     5  I    2.013009   2.841905   4.270888   4.699460   0.000000
 Stoichiometry    H2IO2(1-)
 Framework group  C1[X(H2IO2)]
 Deg. of freedom     9
 Full point group                 C1      NOp   1
 Largest Abelian subgroup         C1      NOp   1
 Largest concise Abelian subgroup C1      NOp   1
                         Standard orientation:                         
 ---------------------------------------------------------------------
 Center     Atomic      Atomic             Coordinates (Angstroms)
 Number     Number       Type             X           Y           Z
 ---------------------------------------------------------------------
      1          8           0       -1.177848    0.280551    0.095500
      2          1           0       -2.007069   -0.365501   -0.155962
      3          8           0       -3.459360   -0.037534   -0.123409
      4          1           0       -3.818480   -0.464474    0.677478
      5         53           0        0.809872   -0.021022   -0.005627
 ---------------------------------------------------------------------
 Rotational constants (GHZ):    200.2626975      1.6136116      1.6085944
 Standard basis: LANL2DZ (5D, 7F)
 There are    30 symmetry adapted basis functions of A   symmetry.
 Integral buffers will be    262144 words long.
 Raffenetti 2 integral format.
 Two-electron integral symmetry is turned on.
    30 basis functions,    70 primitive gaussians,    30 cartesian basis functions
    13 alpha electrons       13 beta electrons
       nuclear repulsion energy        51.2588062165 Hartrees.
 NAtoms=    5 NActive=    5 NUniq=    5 SFac= 7.50D-01 NAtFMM=   80 NAOKFM=F Big=F
 ------------------------------------------------------------------------------
 Polarizable Continuum Model (PCM)
 =================================
 Model                : PCM.
 Atomic radii         : SMD-Coulomb.
 Polarization charges : Total charges.
 Charge compensation  : None.
 Solution method      : Matrix inversion.
 Cavity type          : VdW (van der Waals Surface) (Alpha=1.000).
 Cavity algorithm     : GePol (No added spheres)
                        Default sphere list used, NSphG=    5.
                        Lebedev-Laikov grids with approx.  5.0 points / Ang**2.
                        Smoothing algorithm: Karplus/York (Gamma=1.0000).
                        Polarization charges: spherical gaussians, with
                                              point-specific exponents (IZeta= 3).
                        Self-potential: point-specific (ISelfS= 7).
                        Self-field    : sphere-specific E.n sum rule (ISelfD= 2).
 1st derivatives      : Analytical E(r).r(x)/FMM algorithm (CHGder, D1EAlg=3).
                        Cavity 1st derivative terms included.
 Solvent              : Water, Eps=  78.355300 Eps(inf)=   1.777849
 ------------------------------------------------------------------------------
 Spheres list:
 ISph  on   Nord    Re0     Alpha      Xe            Ye            Ze
    1   O      1    1.520   1.000     -1.177848      0.280551      0.095500
    2   H      2    1.200   1.000     -2.007069     -0.365501     -0.155962
    3   O      3    1.520   1.000     -3.459360     -0.037534     -0.123409
    4   H      4    1.200   1.000     -3.818480     -0.464474      0.677478
    5   I      5    1.980   1.000      0.809872     -0.021022     -0.005627
 ------------------------------------------------------------------------------
 ------------------------------------------------------------------------------
 Atomic radii for non-electrostatic terms: SMD-CDS.
 ------------------------------------------------------------------------------
 Nuclear repulsion after PCM non-electrostatic terms =       51.2604824213 Hartrees.
 One-electron integrals computed using PRISM.
   1 Symmetry operations used in ECPInt.
 ECPInt:  NShTT=     171 NPrTT=    1054 LenC2=     172 LenP2D=     914.
 LDataN:  DoStor=T MaxTD1= 4 Len=   56
 NBasis=    30 RedAO= T  NBF=    30
 NBsUse=    30 1.00D-06 NBFU=    30
 Defaulting to unpruned grid for atomic number  53.
 Initial guess read from the read-write file.
 B after Tr=     0.000000    0.000000    0.000000
         Rot=    1.000000    0.000000    0.000000    0.000000 Ang=   0.00 deg.
 Initial guess orbital symmetries:
       Occupied  (A) (A) (A) (A) (A) (A) (A) (A) (A) (A) (A) (A)
                 (A)
       Virtual   (A) (A) (A) (A) (A) (A) (A) (A) (A) (A) (A) (A)
                 (A) (A) (A) (A) (A)
 Requested convergence on RMS density matrix=1.00D-08 within 128 cycles.
 Requested convergence on MAX density matrix=1.00D-06.
 Requested convergence on             energy=1.00D-06.
 No special actions if energy rises.
 Keep R1 ints in memory in canonical form, NReq=3426867.
 Defaulting to unpruned grid for atomic number  53.
 Defaulting to unpruned grid for atomic number  53.
 Defaulting to unpruned grid for atomic number  53.
 Defaulting to unpruned grid for atomic number  53.
 Error on total polarization charges =  0.07603
 SCF Done:  E(RM062X) =  -163.004524553     A.U. after   14 cycles
             Convg  =    0.2734D-08             -V/T =  2.0582
 SMD-CDS (non-electrostatic) energy             (kcal/mol) =       1.05
 (included in total energy above)
   1 Symmetry operations used in ECPInt.
 ECPInt:  NShTT=     171 NPrTT=    1054 LenC2=     172 LenP2D=     914.
 LDataN:  DoStor=T MaxTD1= 5 Len=  102
 D1PCM: PCM CHGder 1st derivatives, ID1Alg=3 FixD1E=F DoIter=F DoCFld=F I1PDM=0.
 Calling FoFJK, ICntrl=      2127 FMM=F ISym2X=0 I1Cent= 0 IOpClX= 0 NMat=1 NMatS=1 NMatT=0.
 Defaulting to unpruned grid for atomic number  53.
 Defaulting to unpruned grid for atomic number  53.
 Defaulting to unpruned grid for atomic number  53.
 Defaulting to unpruned grid for atomic number  53.
 ***** Axes restored to original set *****
 -------------------------------------------------------------------
 Center     Atomic                   Forces (Hartrees/Bohr)
 Number     Number              X              Y              Z
 -------------------------------------------------------------------
      1        8          -0.005817568    0.000991884    0.004699958
      2        1           0.017924554   -0.010243077    0.017949875
      3        8          -0.008725056    0.003421091   -0.016397252
      4        1           0.002582877    0.004067438    0.000912438
      5       53          -0.005964807    0.001762664   -0.007165018
 -------------------------------------------------------------------
 Cartesian Forces:  Max     0.017949875 RMS     0.009223511

 GradGradGradGradGradGradGradGradGradGradGradGradGradGradGradGradGradGrad
 Berny optimization.
 Internal  Forces:  Max     0.046705292 RMS     0.018214367
 Search for a saddle point.
 Step number   4 out of a maximum of   20
 All quantities printed in internal units (Hartrees-Bohrs-Radians)
 Swaping is turned off.
 Update second derivatives using D2CorX and points    1    2    3    4
 The second derivative matrix:
                          R1        R2        R3        R4        A1
           R1           0.19902
           R2           0.04108   0.18368
           R3           0.09780   0.02514   0.04590
           R4           0.00041  -0.00319  -0.00639   0.59115
           A1           0.06217   0.03343   0.02403  -0.00593   0.03174
           A2           0.08411   0.07613   0.08340  -0.00016   0.03476
           A3           0.01117   0.00459   0.00472   0.01370   0.00162
           D1          -0.01023   0.00055  -0.00448   0.00080   0.00303
           D2           0.00260   0.00021  -0.00577   0.00642   0.00477
                          A2        A3        D1        D2
           A2           0.19487
           A3          -0.01061   0.09998
           D1          -0.00686   0.00067   0.01277
           D2          -0.00513   0.01239  -0.00876   0.01176
     Eigenvalues ---   -0.01365  -0.00207   0.01558   0.02056   0.08638
     Eigenvalues ---    0.11750   0.16097   0.39378   0.59182
 Eigenvectors required to have negative eigenvalues:
                          R3        R1        A2        A1        D2
   1                    0.86206  -0.36506  -0.23900   0.19548   0.15724
                          A3        D1        R2        R4
   1                   -0.04432  -0.02732   0.02636   0.01072
 RFO step:  Lambda0=1.897110591D-02 Lambda=-2.54221819D-02.
 Linear search not attempted -- option 19 set.
 Maximum step size (   0.030) exceeded in Quadratic search.
    -- Step size scaled by   0.027
 Iteration  1 RMS(Cart)=  0.01005394 RMS(Int)=  0.00007428
 Iteration  2 RMS(Cart)=  0.00009502 RMS(Int)=  0.00000001
 Iteration  3 RMS(Cart)=  0.00000001 RMS(Int)=  0.00000000
 Variable       Old X    -DE/DX   Delta X   Delta X   Delta X     New X
                                 (Linear)    (Quad)   (Total)
    R1        2.04250   0.00600   0.00000  -0.00712  -0.00712   2.03538
    R2        3.80404   0.00615   0.00000   0.00140   0.00140   3.80544
    R3        2.81421  -0.00782   0.00000   0.02197   0.02197   2.83619
    R4        1.84446   0.00462   0.00000   0.00022   0.00022   1.84468
    A1        2.28673  -0.02535   0.00000  -0.01344  -0.01344   2.27329
    A2        2.22869   0.04671   0.00000   0.00116   0.00116   2.22985
    A3        1.85502   0.00209   0.00000  -0.00114  -0.00114   1.85388
    D1       -3.07629   0.00091   0.00000   0.00540   0.00540  -3.07089
    D2       -1.81192   0.00052   0.00000   0.01233   0.01233  -1.79959
         Item               Value     Threshold  Converged?
 Maximum Force            0.046705     0.000450     NO 
 RMS     Force            0.018214     0.000300     NO 
 Maximum Displacement     0.014839     0.001800     NO 
 RMS     Displacement     0.010097     0.001200     NO 
 Predicted change in Energy=-1.978117D-04
 GradGradGradGradGradGradGradGradGradGradGradGradGradGradGradGradGradGrad

                          Input orientation:                          
 ---------------------------------------------------------------------
 Center     Atomic      Atomic             Coordinates (Angstroms)
 Number     Number       Type             X           Y           Z
 ---------------------------------------------------------------------
      1          8           0       -1.433363    0.608186    0.539308
      2          1           0       -0.703671    0.851300   -0.214707
      3          8           0        0.788396    0.714525   -0.127718
      4          1           0        1.136491    1.614353    0.020697
      5         53           0       -3.445195    0.658292    0.467136
 ---------------------------------------------------------------------
                    Distance matrix (angstroms):
                    1          2          3          4          5
     1  O    0.000000
     2  H    1.077077   0.000000
     3  O    2.322164   1.500846   0.000000
     4  H    2.808110   2.005956   0.976160   0.000000
     5  I    2.013750   2.831628   4.275548   4.701618   0.000000
 Stoichiometry    H2IO2(1-)
 Framework group  C1[X(H2IO2)]
 Deg. of freedom     9
 Full point group                 C1      NOp   1
 Largest Abelian subgroup         C1      NOp   1
 Largest concise Abelian subgroup C1      NOp   1
                         Standard orientation:                         
 ---------------------------------------------------------------------
 Center     Atomic      Atomic             Coordinates (Angstroms)
 Number     Number       Type             X           Y           Z
 ---------------------------------------------------------------------
      1          8           0       -1.176567    0.295603    0.079788
      2          1           0       -1.997282   -0.371578   -0.123658
      3          8           0       -3.463620   -0.051595   -0.123399
      4          1           0       -3.820406   -0.408387    0.712240
      5         53           0        0.810173   -0.022115   -0.004523
 ---------------------------------------------------------------------
 Rotational constants (GHZ):    191.5978926      1.6112015      1.6056938
 Standard basis: LANL2DZ (5D, 7F)
 There are    30 symmetry adapted basis functions of A   symmetry.
 Integral buffers will be    262144 words long.
 Raffenetti 2 integral format.
 Two-electron integral symmetry is turned on.
    30 basis functions,    70 primitive gaussians,    30 cartesian basis functions
    13 alpha electrons       13 beta electrons
       nuclear repulsion energy        51.1865717386 Hartrees.
 NAtoms=    5 NActive=    5 NUniq=    5 SFac= 7.50D-01 NAtFMM=   80 NAOKFM=F Big=F
 ------------------------------------------------------------------------------
 Polarizable Continuum Model (PCM)
 =================================
 Model                : PCM.
 Atomic radii         : SMD-Coulomb.
 Polarization charges : Total charges.
 Charge compensation  : None.
 Solution method      : Matrix inversion.
 Cavity type          : VdW (van der Waals Surface) (Alpha=1.000).
 Cavity algorithm     : GePol (No added spheres)
                        Default sphere list used, NSphG=    5.
                        Lebedev-Laikov grids with approx.  5.0 points / Ang**2.
                        Smoothing algorithm: Karplus/York (Gamma=1.0000).
                        Polarization charges: spherical gaussians, with
                                              point-specific exponents (IZeta= 3).
                        Self-potential: point-specific (ISelfS= 7).
                        Self-field    : sphere-specific E.n sum rule (ISelfD= 2).
 1st derivatives      : Analytical E(r).r(x)/FMM algorithm (CHGder, D1EAlg=3).
                        Cavity 1st derivative terms included.
 Solvent              : Water, Eps=  78.355300 Eps(inf)=   1.777849
 ------------------------------------------------------------------------------
 Spheres list:
 ISph  on   Nord    Re0     Alpha      Xe            Ye            Ze
    1   O      1    1.520   1.000     -1.176567      0.295603      0.079788
    2   H      2    1.200   1.000     -1.997282     -0.371578     -0.123658
    3   O      3    1.520   1.000     -3.463620     -0.051595     -0.123399
    4   H      4    1.200   1.000     -3.820406     -0.408387      0.712240
    5   I      5    1.980   1.000      0.810173     -0.022115     -0.004523
 ------------------------------------------------------------------------------
 ------------------------------------------------------------------------------
 Atomic radii for non-electrostatic terms: SMD-CDS.
 ------------------------------------------------------------------------------
 Nuclear repulsion after PCM non-electrostatic terms =       51.1882483243 Hartrees.
 One-electron integrals computed using PRISM.
   1 Symmetry operations used in ECPInt.
 ECPInt:  NShTT=     171 NPrTT=    1054 LenC2=     172 LenP2D=     914.
 LDataN:  DoStor=T MaxTD1= 4 Len=   56
 NBasis=    30 RedAO= T  NBF=    30
 NBsUse=    30 1.00D-06 NBFU=    30
 Defaulting to unpruned grid for atomic number  53.
 Initial guess read from the read-write file.
 B after Tr=     0.000000    0.000000    0.000000
         Rot=    1.000000    0.000000    0.000000    0.000000 Ang=   0.00 deg.
 Initial guess orbital symmetries:
       Occupied  (A) (A) (A) (A) (A) (A) (A) (A) (A) (A) (A) (A)
                 (A)
       Virtual   (A) (A) (A) (A) (A) (A) (A) (A) (A) (A) (A) (A)
                 (A) (A) (A) (A) (A)
 Requested convergence on RMS density matrix=1.00D-08 within 128 cycles.
 Requested convergence on MAX density matrix=1.00D-06.
 Requested convergence on             energy=1.00D-06.
 No special actions if energy rises.
 Keep R1 ints in memory in canonical form, NReq=3423017.
 Defaulting to unpruned grid for atomic number  53.
 Defaulting to unpruned grid for atomic number  53.
 Defaulting to unpruned grid for atomic number  53.
 Defaulting to unpruned grid for atomic number  53.
 Error on total polarization charges =  0.07590
 SCF Done:  E(RM062X) =  -163.004678141     A.U. after   11 cycles
             Convg  =    0.2946D-08             -V/T =  2.0582
 SMD-CDS (non-electrostatic) energy             (kcal/mol) =       1.05
 (included in total energy above)
   1 Symmetry operations used in ECPInt.
 ECPInt:  NShTT=     171 NPrTT=    1054 LenC2=     172 LenP2D=     914.
 LDataN:  DoStor=T MaxTD1= 5 Len=  102
 D1PCM: PCM CHGder 1st derivatives, ID1Alg=3 FixD1E=F DoIter=F DoCFld=F I1PDM=0.
 Calling FoFJK, ICntrl=      2127 FMM=F ISym2X=0 I1Cent= 0 IOpClX= 0 NMat=1 NMatS=1 NMatT=0.
 Defaulting to unpruned grid for atomic number  53.
 Defaulting to unpruned grid for atomic number  53.
 Defaulting to unpruned grid for atomic number  53.
 Defaulting to unpruned grid for atomic number  53.
 ***** Axes restored to original set *****
 -------------------------------------------------------------------
 Center     Atomic                   Forces (Hartrees/Bohr)
 Number     Number              X              Y              Z
 -------------------------------------------------------------------
      1        8          -0.005556367    0.001062596    0.004443253
      2        1           0.017556242   -0.009989485    0.017588808
      3        8          -0.008886549    0.003076646   -0.016182085
      4        1           0.002525381    0.004211404    0.000969744
      5       53          -0.005638706    0.001638840   -0.006819722
 -------------------------------------------------------------------
 Cartesian Forces:  Max     0.017588808 RMS     0.009038665

 GradGradGradGradGradGradGradGradGradGradGradGradGradGradGradGradGradGrad
 Berny optimization.
 Internal  Forces:  Max     0.045687076 RMS     0.017816575
 Search for a saddle point.
 Step number   5 out of a maximum of   20
 All quantities printed in internal units (Hartrees-Bohrs-Radians)
 Swaping is turned off.
 Update second derivatives using D2CorX and points    1    2    3    4    5
 The second derivative matrix:
                          R1        R2        R3        R4        A1
           R1           0.18706
           R2           0.04050   0.18384
           R3           0.11223   0.02753   0.04344
           R4           0.00305  -0.00347  -0.01281   0.59181
           A1           0.05805   0.03187   0.01668  -0.00276   0.04065
           A2           0.08581   0.07641   0.08332  -0.00066   0.03358
           A3           0.00924   0.00467   0.00837   0.01381  -0.00007
           D1          -0.00735   0.00153  -0.00087  -0.00156  -0.00161
           D2           0.00724   0.00127  -0.00418   0.00385   0.00028
                          A2        A3        D1        D2
           A2           0.19501
           A3          -0.01024   0.09980
           D1          -0.00653   0.00181   0.01560
           D2          -0.00480   0.01399  -0.00617   0.01361
     Eigenvalues ---   -0.02932   0.00665   0.02035   0.02543   0.08547
     Eigenvalues ---    0.11489   0.16000   0.39472   0.59263
 Eigenvectors required to have negative eigenvalues:
                          R3        R1        A1        A2        D2
   1                    0.83433  -0.43020   0.24339  -0.18428   0.14024
                          A3        D1        R4        R2
   1                   -0.05466  -0.05027   0.02045   0.00473
 RFO step:  Lambda0=1.284949480D-02 Lambda=-2.04748865D-02.
 Linear search not attempted -- option 19 set.
 Maximum step size (   0.030) exceeded in Quadratic search.
    -- Step size scaled by   0.039
 Iteration  1 RMS(Cart)=  0.01050333 RMS(Int)=  0.00007271
 Iteration  2 RMS(Cart)=  0.00008108 RMS(Int)=  0.00000001
 Iteration  3 RMS(Cart)=  0.00000001 RMS(Int)=  0.00000000
 Variable       Old X    -DE/DX   Delta X   Delta X   Delta X     New X
                                 (Linear)    (Quad)   (Total)
    R1        2.03538   0.00545   0.00000  -0.01220  -0.01220   2.02318
    R2        3.80544   0.00590   0.00000   0.00005   0.00005   3.80549
    R3        2.83619  -0.00782   0.00000   0.02225   0.02225   2.85843
    R4        1.84468   0.00474   0.00000   0.00077   0.00077   1.84545
    A1        2.27329  -0.02484   0.00000  -0.01074  -0.01074   2.26255
    A2        2.22985   0.04569   0.00000   0.00579   0.00579   2.23564
    A3        1.85388   0.00191   0.00000  -0.00112  -0.00112   1.85276
    D1       -3.07089   0.00086   0.00000   0.00039   0.00039  -3.07049
    D2       -1.79959   0.00055   0.00000   0.01027   0.01027  -1.78933
         Item               Value     Threshold  Converged?
 Maximum Force            0.045687     0.000450     NO 
 RMS     Force            0.017817     0.000300     NO 
 Maximum Displacement     0.014841     0.001800     NO 
 RMS     Displacement     0.010552     0.001200     NO 
 Predicted change in Energy=-2.942921D-04
 GradGradGradGradGradGradGradGradGradGradGradGradGradGradGradGradGradGrad

                          Input orientation:                          
 ---------------------------------------------------------------------
 Center     Atomic      Atomic             Coordinates (Angstroms)
 Number     Number       Type             X           Y           Z
 ---------------------------------------------------------------------
      1          8           0       -1.433294    0.606235    0.545235
      2          1           0       -0.711524    0.848574   -0.207459
      3          8           0        0.793470    0.715633   -0.134451
      4          1           0        1.138593    1.615986    0.020285
      5         53           0       -3.444587    0.660228    0.461105
 ---------------------------------------------------------------------
                    Distance matrix (angstroms):
                    1          2          3          4          5
     1  O    0.000000
     2  H    1.070620   0.000000
     3  O    2.330755   1.512617   0.000000
     4  H    2.812431   2.015867   0.976570   0.000000
     5  I    2.013776   2.819945   4.280057   4.702482   0.000000
 Stoichiometry    H2IO2(1-)
 Framework group  C1[X(H2IO2)]
 Deg. of freedom     9
 Full point group                 C1      NOp   1
 Largest Abelian subgroup         C1      NOp   1
 Largest concise Abelian subgroup C1      NOp   1
                         Standard orientation:                         
 ---------------------------------------------------------------------
 Center     Atomic      Atomic             Coordinates (Angstroms)
 Number     Number       Type             X           Y           Z
 ---------------------------------------------------------------------
      1          8           0       -1.174684    0.307774    0.070320
      2          1           0       -1.986642   -0.367416   -0.105947
      3          8           0       -3.467892   -0.061436   -0.122807
      4          1           0       -3.820767   -0.379425    0.730452
      5         53           0        0.810340   -0.023092   -0.003861
 ---------------------------------------------------------------------
 Rotational constants (GHZ):    183.8343718      1.6091287      1.6031190
 Standard basis: LANL2DZ (5D, 7F)
 There are    30 symmetry adapted basis functions of A   symmetry.
 Integral buffers will be    262144 words long.
 Raffenetti 2 integral format.
 Two-electron integral symmetry is turned on.
    30 basis functions,    70 primitive gaussians,    30 cartesian basis functions
    13 alpha electrons       13 beta electrons
       nuclear repulsion energy        51.1269137392 Hartrees.
 NAtoms=    5 NActive=    5 NUniq=    5 SFac= 7.50D-01 NAtFMM=   80 NAOKFM=F Big=F
 ------------------------------------------------------------------------------
 Polarizable Continuum Model (PCM)
 =================================
 Model                : PCM.
 Atomic radii         : SMD-Coulomb.
 Polarization charges : Total charges.
 Charge compensation  : None.
 Solution method      : Matrix inversion.
 Cavity type          : VdW (van der Waals Surface) (Alpha=1.000).
 Cavity algorithm     : GePol (No added spheres)
                        Default sphere list used, NSphG=    5.
                        Lebedev-Laikov grids with approx.  5.0 points / Ang**2.
                        Smoothing algorithm: Karplus/York (Gamma=1.0000).
                        Polarization charges: spherical gaussians, with
                                              point-specific exponents (IZeta= 3).
                        Self-potential: point-specific (ISelfS= 7).
                        Self-field    : sphere-specific E.n sum rule (ISelfD= 2).
 1st derivatives      : Analytical E(r).r(x)/FMM algorithm (CHGder, D1EAlg=3).
                        Cavity 1st derivative terms included.
 Solvent              : Water, Eps=  78.355300 Eps(inf)=   1.777849
 ------------------------------------------------------------------------------
 Spheres list:
 ISph  on   Nord    Re0     Alpha      Xe            Ye            Ze
    1   O      1    1.520   1.000     -1.174684      0.307774      0.070320
    2   H      2    1.200   1.000     -1.986642     -0.367416     -0.105947
    3   O      3    1.520   1.000     -3.467892     -0.061436     -0.122807
    4   H      4    1.200   1.000     -3.820767     -0.379425      0.730452
    5   I      5    1.980   1.000      0.810340     -0.023092     -0.003861
 ------------------------------------------------------------------------------
 ------------------------------------------------------------------------------
 Atomic radii for non-electrostatic terms: SMD-CDS.
 ------------------------------------------------------------------------------
 Nuclear repulsion after PCM non-electrostatic terms =       51.1285899238 Hartrees.
 One-electron integrals computed using PRISM.
   1 Symmetry operations used in ECPInt.
 ECPInt:  NShTT=     171 NPrTT=    1054 LenC2=     172 LenP2D=     914.
 LDataN:  DoStor=T MaxTD1= 4 Len=   56
 NBasis=    30 RedAO= T  NBF=    30
 NBsUse=    30 1.00D-06 NBFU=    30
 Defaulting to unpruned grid for atomic number  53.
 Initial guess read from the read-write file.
 B after Tr=     0.000000    0.000000    0.000000
         Rot=    1.000000    0.000000    0.000000    0.000000 Ang=   0.00 deg.
 Initial guess orbital symmetries:
       Occupied  (A) (A) (A) (A) (A) (A) (A) (A) (A) (A) (A) (A)
                 (A)
       Virtual   (A) (A) (A) (A) (A) (A) (A) (A) (A) (A) (A) (A)
                 (A) (A) (A) (A) (A)
 Requested convergence on RMS density matrix=1.00D-08 within 128 cycles.
 Requested convergence on MAX density matrix=1.00D-06.
 Requested convergence on             energy=1.00D-06.
 No special actions if energy rises.
 Keep R1 ints in memory in canonical form, NReq=3424298.
 Defaulting to unpruned grid for atomic number  53.
 Defaulting to unpruned grid for atomic number  53.
 Defaulting to unpruned grid for atomic number  53.
 Defaulting to unpruned grid for atomic number  53.
 Error on total polarization charges =  0.07580
 SCF Done:  E(RM062X) =  -163.004957539     A.U. after   11 cycles
             Convg  =    0.2331D-08             -V/T =  2.0582
 SMD-CDS (non-electrostatic) energy             (kcal/mol) =       1.05
 (included in total energy above)
   1 Symmetry operations used in ECPInt.
 ECPInt:  NShTT=     171 NPrTT=    1054 LenC2=     172 LenP2D=     914.
 LDataN:  DoStor=T MaxTD1= 5 Len=  102
 D1PCM: PCM CHGder 1st derivatives, ID1Alg=3 FixD1E=F DoIter=F DoCFld=F I1PDM=0.
 Calling FoFJK, ICntrl=      2127 FMM=F ISym2X=0 I1Cent= 0 IOpClX= 0 NMat=1 NMatS=1 NMatT=0.
 Defaulting to unpruned grid for atomic number  53.
 Defaulting to unpruned grid for atomic number  53.
 Defaulting to unpruned grid for atomic number  53.
 Defaulting to unpruned grid for atomic number  53.
 ***** Axes restored to original set *****
 -------------------------------------------------------------------
 Center     Atomic                   Forces (Hartrees/Bohr)
 Number     Number              X              Y              Z
 -------------------------------------------------------------------
      1        8          -0.005855279    0.000627270    0.005238882
      2        1           0.017647244   -0.009214191    0.016113681
      3        8          -0.008639308    0.003066763   -0.015689085
      4        1           0.002255187    0.003931340    0.000923491
      5       53          -0.005407844    0.001588819   -0.006586969
 -------------------------------------------------------------------
 Cartesian Forces:  Max     0.017647244 RMS     0.008736294

 GradGradGradGradGradGradGradGradGradGradGradGradGradGradGradGradGradGrad
 Berny optimization.
 Internal  Forces:  Max     0.044349093 RMS     0.017396478
 Search for a saddle point.
 Step number   6 out of a maximum of   20
 All quantities printed in internal units (Hartrees-Bohrs-Radians)
 Swaping is turned off.
 Update second derivatives using D2CorX and points    1    2    3    4    5
                                                      6
 The second derivative matrix:
                          R1        R2        R3        R4        A1
           R1           0.21037
           R2           0.04146   0.18385
           R3           0.09342   0.02573   0.03668
           R4          -0.00021  -0.00358  -0.00853   0.59266
           A1           0.06239   0.03273   0.02800  -0.00474   0.03154
           A2           0.08417   0.07594   0.07719   0.00043   0.03831
           A3           0.00705   0.00476   0.01353   0.01382  -0.00266
           D1          -0.01131   0.00120  -0.00045  -0.00077  -0.00011
           D2          -0.00259   0.00063  -0.00335   0.00565   0.00298
                          A2        A3        D1        D2
           A2           0.19276
           A3          -0.00910   0.09936
           D1          -0.00729   0.00220   0.01533
           D2          -0.00668   0.01634  -0.00533   0.01600
     Eigenvalues ---   -0.01512   0.00325   0.01396   0.02066   0.09148
     Eigenvalues ---    0.11421   0.16313   0.39361   0.59337
 Eigenvectors required to have negative eigenvalues:
                          R3        R1        A2        D1        A3
   1                    0.90288  -0.30021  -0.23956  -0.13900  -0.11489
                          D2        R2        A1        R4
   1                    0.05186   0.03742   0.02137   0.01508
 RFO step:  Lambda0=1.367700721D-02 Lambda=-2.76640369D-02.
 Linear search not attempted -- option 19 set.
 Maximum step size (   0.030) exceeded in Quadratic search.
    -- Step size scaled by   0.029
 Iteration  1 RMS(Cart)=  0.01385522 RMS(Int)=  0.00012393
 Iteration  2 RMS(Cart)=  0.00015692 RMS(Int)=  0.00000001
 Iteration  3 RMS(Cart)=  0.00000001 RMS(Int)=  0.00000000
 Variable       Old X    -DE/DX   Delta X   Delta X   Delta X     New X
                                 (Linear)    (Quad)   (Total)
    R1        2.02318   0.00616   0.00000  -0.00422  -0.00422   2.01896
    R2        3.80549   0.00574   0.00000   0.00162   0.00162   3.80711
    R3        2.85843  -0.00759   0.00000   0.02083   0.02083   2.87927
    R4        1.84545   0.00437   0.00000   0.00039   0.00039   1.84584
    A1        2.26255  -0.02461   0.00000  -0.01993  -0.01993   2.24262
    A2        2.23564   0.04435   0.00000   0.00215   0.00215   2.23779
    A3        1.85276   0.00165   0.00000  -0.00338  -0.00338   1.84938
    D1       -3.07049   0.00082   0.00000  -0.00191  -0.00191  -3.07240
    D2       -1.78933   0.00051   0.00000   0.00533   0.00533  -1.78400
         Item               Value     Threshold  Converged?
 Maximum Force            0.044349     0.000450     NO 
 RMS     Force            0.017396     0.000300     NO 
 Maximum Displacement     0.020789     0.001800     NO 
 RMS     Displacement     0.013941     0.001200     NO 
 Predicted change in Energy=-4.067125D-04
 GradGradGradGradGradGradGradGradGradGradGradGradGradGradGradGradGradGrad

                          Input orientation:                          
 ---------------------------------------------------------------------
 Center     Atomic      Atomic             Coordinates (Angstroms)
 Number     Number       Type             X           Y           Z
 ---------------------------------------------------------------------
      1          8           0       -1.432325    0.599490    0.556236
      2          1           0       -0.718848    0.846675   -0.199606
      3          8           0        0.798199    0.717190   -0.142262
      4          1           0        1.138826    1.618433    0.018446
      5         53           0       -3.443194    0.664870    0.451901
 ---------------------------------------------------------------------
                    Distance matrix (angstroms):
                    1          2          3          4          5
     1  O    0.000000
     2  H    1.068386   0.000000
     3  O    2.340297   1.523642   0.000000
     4  H    2.817495   2.023390   0.976777   0.000000
     5  I    2.014634   2.807058   4.283127   4.700220   0.000000
 Stoichiometry    H2IO2(1-)
 Framework group  C1[X(H2IO2)]
 Deg. of freedom     9
 Full point group                 C1      NOp   1
 Largest Abelian subgroup         C1      NOp   1
 Largest concise Abelian subgroup C1      NOp   1
                         Standard orientation:                         
 ---------------------------------------------------------------------
 Center     Atomic      Atomic             Coordinates (Angstroms)
 Number     Number       Type             X           Y           Z
 ---------------------------------------------------------------------
      1          8           0       -1.172463    0.326959    0.061151
      2          1           0       -1.975195   -0.361569   -0.090502
      3          8           0       -3.471007   -0.073368   -0.121668
      4          1           0       -3.817901   -0.359989    0.745283
      5         53           0        0.810205   -0.024664   -0.003220
 ---------------------------------------------------------------------
 Rotational constants (GHZ):    171.0499124      1.6082295      1.6012200
 Standard basis: LANL2DZ (5D, 7F)
 There are    30 symmetry adapted basis functions of A   symmetry.
 Integral buffers will be    262144 words long.
 Raffenetti 2 integral format.
 Two-electron integral symmetry is turned on.
    30 basis functions,    70 primitive gaussians,    30 cartesian basis functions
    13 alpha electrons       13 beta electrons
       nuclear repulsion energy        51.0462681346 Hartrees.
 NAtoms=    5 NActive=    5 NUniq=    5 SFac= 7.50D-01 NAtFMM=   80 NAOKFM=F Big=F
 ------------------------------------------------------------------------------
 Polarizable Continuum Model (PCM)
 =================================
 Model                : PCM.
 Atomic radii         : SMD-Coulomb.
 Polarization charges : Total charges.
 Charge compensation  : None.
 Solution method      : Matrix inversion.
 Cavity type          : VdW (van der Waals Surface) (Alpha=1.000).
 Cavity algorithm     : GePol (No added spheres)
                        Default sphere list used, NSphG=    5.
                        Lebedev-Laikov grids with approx.  5.0 points / Ang**2.
                        Smoothing algorithm: Karplus/York (Gamma=1.0000).
                        Polarization charges: spherical gaussians, with
                                              point-specific exponents (IZeta= 3).
                        Self-potential: point-specific (ISelfS= 7).
                        Self-field    : sphere-specific E.n sum rule (ISelfD= 2).
 1st derivatives      : Analytical E(r).r(x)/FMM algorithm (CHGder, D1EAlg=3).
                        Cavity 1st derivative terms included.
 Solvent              : Water, Eps=  78.355300 Eps(inf)=   1.777849
 ------------------------------------------------------------------------------
 Spheres list:
 ISph  on   Nord    Re0     Alpha      Xe            Ye            Ze
    1   O      1    1.520   1.000     -1.172463      0.326959      0.061151
    2   H      2    1.200   1.000     -1.975195     -0.361569     -0.090502
    3   O      3    1.520   1.000     -3.471007     -0.073368     -0.121668
    4   H      4    1.200   1.000     -3.817901     -0.359989      0.745283
[...]
                          R3        A2        D1        R1        D2
   1                    0.85699  -0.26549  -0.25207  -0.22049   0.20347
                          A3        A1        R2        R4
   1                   -0.17015   0.10311   0.04049   0.01771
 RFO step:  Lambda0=1.164682924D-02 Lambda=-9.33816804D-03.
 Linear search not attempted -- option 19 set.
 Maximum step size (   0.030) exceeded in Quadratic search.
    -- Step size scaled by   0.035
 Iteration  1 RMS(Cart)=  0.00821139 RMS(Int)=  0.00006926
 Iteration  2 RMS(Cart)=  0.00006841 RMS(Int)=  0.00000000
 Iteration  3 RMS(Cart)=  0.00000000 RMS(Int)=  0.00000000
 Variable       Old X    -DE/DX   Delta X   Delta X   Delta X     New X
                                 (Linear)    (Quad)   (Total)
    R1        1.94953   0.00496   0.00000  -0.00486  -0.00486   1.94467
    R2        3.81619   0.00345   0.00000   0.00072   0.00072   3.81692
    R3        3.11751  -0.00784   0.00000   0.01893   0.01893   3.13644
    R4        1.85027   0.00259   0.00000   0.00039   0.00039   1.85066
    A1        2.14884  -0.01580   0.00000  -0.00457  -0.00457   2.14427
    A2        2.25629   0.02880   0.00000   0.00046   0.00046   2.25675
    A3        1.78129   0.00114   0.00000  -0.00722  -0.00722   1.77407
    D1       -3.13627   0.00097   0.00000  -0.00864  -0.00864   3.13827
    D2       -1.58277   0.00096   0.00000   0.01922   0.01922  -1.56355
         Item               Value     Threshold  Converged?
 Maximum Force            0.028802     0.000450     NO 
 RMS     Force            0.011484     0.000300     NO 
 Maximum Displacement     0.012898     0.001800     NO 
 RMS     Displacement     0.008203     0.001200     NO 
 Predicted change in Energy= 8.218664D-05
 GradGradGradGradGradGradGradGradGradGradGradGradGradGradGradGradGradGrad

                          Input orientation:                          
 ---------------------------------------------------------------------
 Center     Atomic      Atomic             Coordinates (Angstroms)
 Number     Number       Type             X           Y           Z
 ---------------------------------------------------------------------
      1          8           0       -1.425489    0.587121    0.602632
      2          1           0       -0.781496    0.775712   -0.177564
      3          8           0        0.877312    0.728409   -0.206437
      4          1           0        1.105701    1.646672    0.045969
      5         53           0       -3.433370    0.708743    0.420114
 ---------------------------------------------------------------------
                    Distance matrix (angstroms):
                    1          2          3          4          5
     1  O    0.000000
     2  H    1.029077   0.000000
     3  O    2.444881   1.659733   0.000000
     4  H    2.799901   2.090467   0.979326   0.000000
     5  I    2.019825   2.719217   4.356022   4.650039   0.000000
 Stoichiometry    H2IO2(1-)
 Framework group  C1[X(H2IO2)]
 Deg. of freedom     9
 Full point group                 C1      NOp   1
 Largest Abelian subgroup         C1      NOp   1
 Largest concise Abelian subgroup C1      NOp   1
                         Standard orientation:                         
 ---------------------------------------------------------------------
 Center     Atomic      Atomic             Coordinates (Angstroms)
 Number     Number       Type             X           Y           Z
 ---------------------------------------------------------------------
      1          8           0       -1.156440    0.406967    0.017112
      2          1           0       -1.888241   -0.306755   -0.101488
      3          8           0       -3.538425   -0.129173   -0.109948
      4          1           0       -3.753923   -0.238716    0.839073
      5         53           0        0.815115   -0.031639    0.000096
 ---------------------------------------------------------------------
 Rotational constants (GHZ):    124.2140958      1.5720114      1.5607149
 Standard basis: LANL2DZ (5D, 7F)
 There are    30 symmetry adapted basis functions of A   symmetry.
 Integral buffers will be    262144 words long.
 Raffenetti 2 integral format.
 Two-electron integral symmetry is turned on.
    30 basis functions,    70 primitive gaussians,    30 cartesian basis functions
    13 alpha electrons       13 beta electrons
       nuclear repulsion energy        50.2380863116 Hartrees.
 NAtoms=    5 NActive=    5 NUniq=    5 SFac= 7.50D-01 NAtFMM=   80 NAOKFM=F Big=F
 ------------------------------------------------------------------------------
 Polarizable Continuum Model (PCM)
 =================================
 Model                : PCM.
 Atomic radii         : SMD-Coulomb.
 Polarization charges : Total charges.
 Charge compensation  : None.
 Solution method      : Matrix inversion.
 Cavity type          : VdW (van der Waals Surface) (Alpha=1.000).
 Cavity algorithm     : GePol (No added spheres)
                        Default sphere list used, NSphG=    5.
                        Lebedev-Laikov grids with approx.  5.0 points / Ang**2.
                        Smoothing algorithm: Karplus/York (Gamma=1.0000).
                        Polarization charges: spherical gaussians, with
                                              point-specific exponents (IZeta= 3).
                        Self-potential: point-specific (ISelfS= 7).
                        Self-field    : sphere-specific E.n sum rule (ISelfD= 2).
 1st derivatives      : Analytical E(r).r(x)/FMM algorithm (CHGder, D1EAlg=3).
                        Cavity 1st derivative terms included.
 Solvent              : Water, Eps=  78.355300 Eps(inf)=   1.777849
 ------------------------------------------------------------------------------
 Spheres list:
 ISph  on   Nord    Re0     Alpha      Xe            Ye            Ze
    1   O      1    1.520   1.000     -1.156440      0.406967      0.017112
    2   H      2    1.200   1.000     -1.888241     -0.306755     -0.101488
    3   O      3    1.520   1.000     -3.538425     -0.129173     -0.109948
    4   H      4    1.200   1.000     -3.753923     -0.238716      0.839073
    5   I      5    1.980   1.000      0.815115     -0.031639      0.000096
 ------------------------------------------------------------------------------
 ------------------------------------------------------------------------------
 Atomic radii for non-electrostatic terms: SMD-CDS.
 ------------------------------------------------------------------------------
 Nuclear repulsion after PCM non-electrostatic terms =       50.2397590690 Hartrees.
 One-electron integrals computed using PRISM.
   1 Symmetry operations used in ECPInt.
 ECPInt:  NShTT=     171 NPrTT=    1054 LenC2=     172 LenP2D=     912.
 LDataN:  DoStor=T MaxTD1= 4 Len=   56
 NBasis=    30 RedAO= T  NBF=    30
 NBsUse=    30 1.00D-06 NBFU=    30
 Defaulting to unpruned grid for atomic number  53.
 Initial guess read from the read-write file.
 B after Tr=     0.000000    0.000000    0.000000
         Rot=    1.000000    0.000000    0.000000    0.000000 Ang=   0.00 deg.
 Initial guess orbital symmetries:
       Occupied  (A) (A) (A) (A) (A) (A) (A) (A) (A) (A) (A) (A)
                 (A)
       Virtual   (A) (A) (A) (A) (A) (A) (A) (A) (A) (A) (A) (A)
                 (A) (A) (A) (A) (A)
 Requested convergence on RMS density matrix=1.00D-08 within 128 cycles.
 Requested convergence on MAX density matrix=1.00D-06.
 Requested convergence on             energy=1.00D-06.
 No special actions if energy rises.
 Keep R1 ints in memory in canonical form, NReq=3424172.
 Defaulting to unpruned grid for atomic number  53.
 Defaulting to unpruned grid for atomic number  53.
 Defaulting to unpruned grid for atomic number  53.
 Defaulting to unpruned grid for atomic number  53.
 Error on total polarization charges =  0.07512
 SCF Done:  E(RM062X) =  -163.005691149     A.U. after   10 cycles
             Convg  =    0.7838D-08             -V/T =  2.0584
 SMD-CDS (non-electrostatic) energy             (kcal/mol) =       1.05
 (included in total energy above)
   1 Symmetry operations used in ECPInt.
 ECPInt:  NShTT=     171 NPrTT=    1054 LenC2=     172 LenP2D=     912.
 LDataN:  DoStor=T MaxTD1= 5 Len=  102
 D1PCM: PCM CHGder 1st derivatives, ID1Alg=3 FixD1E=F DoIter=F DoCFld=F I1PDM=0.
 Calling FoFJK, ICntrl=      2127 FMM=F ISym2X=0 I1Cent= 0 IOpClX= 0 NMat=1 NMatS=1 NMatT=0.
 Defaulting to unpruned grid for atomic number  53.
 Defaulting to unpruned grid for atomic number  53.
 Defaulting to unpruned grid for atomic number  53.
 Defaulting to unpruned grid for atomic number  53.
 ***** Axes restored to original set *****
 -------------------------------------------------------------------
 Center     Atomic                   Forces (Hartrees/Bohr)
 Number     Number              X              Y              Z
 -------------------------------------------------------------------
      1        8          -0.005414116   -0.000288722    0.004623835
      2        1           0.016139430   -0.003449947    0.008172466
      3        8          -0.009020126    0.000828353   -0.009727054
      4        1           0.001124987    0.002110764    0.001063260
      5       53          -0.002830175    0.000799551   -0.004132507
 -------------------------------------------------------------------
 Cartesian Forces:  Max     0.016139430 RMS     0.006320290

 GradGradGradGradGradGradGradGradGradGradGradGradGradGradGradGradGradGrad
 Berny optimization.
 Internal  Forces:  Max     0.028031694 RMS     0.011233468
 Search for a saddle point.
 Step number  20 out of a maximum of   20
 All quantities printed in internal units (Hartrees-Bohrs-Radians)
 Swaping is turned off.
 Update second derivatives using D2CorX and points   11   12   13   14   15
                                                     16   17   18   19   20
 The second derivative matrix:
                          R1        R2        R3        R4        A1
           R1           0.26241
           R2           0.04579   0.18527
           R3           0.08334   0.02559   0.03616
           R4          -0.00092  -0.00427  -0.00916   0.59500
           A1           0.03954   0.03247   0.01379  -0.00885   0.07781
           A2           0.08220   0.07620   0.07617   0.00157   0.03328
           A3           0.01547   0.00530   0.01628   0.01403  -0.00309
           D1           0.00000   0.00215   0.00458  -0.00232   0.00119
           D2          -0.02280  -0.00315  -0.00958   0.00627  -0.00126
                          A2        A3        D1        D2
           A2           0.19323
           A3          -0.00795   0.09766
           D1          -0.00377  -0.00218   0.01273
           D2          -0.01853   0.02379  -0.00090   0.01204
     Eigenvalues ---   -0.00909   0.00274   0.01423   0.06459   0.09722
     Eigenvalues ---    0.12065   0.17991   0.40617   0.59592
 Eigenvectors required to have negative eigenvalues:
                          R3        A2        D1        R1        A3
   1                    0.88043  -0.27810  -0.24766  -0.17479  -0.17179
                          D2        R2        A1        R4
   1                    0.15244   0.03905   0.03282   0.01601
 RFO step:  Lambda0=1.227819872D-02 Lambda=-1.00104786D-02.
 Linear search not attempted -- option 19 set.
 Maximum step size (   0.030) exceeded in Quadratic search.
    -- Step size scaled by   0.032
 Iteration  1 RMS(Cart)=  0.00843662 RMS(Int)=  0.00007030
 Iteration  2 RMS(Cart)=  0.00006582 RMS(Int)=  0.00000000
 Iteration  3 RMS(Cart)=  0.00000000 RMS(Int)=  0.00000000
 Variable       Old X    -DE/DX   Delta X   Delta X   Delta X     New X
                                 (Linear)    (Quad)   (Total)
    R1        1.94467   0.00531   0.00000  -0.00280  -0.00280   1.94187
    R2        3.81692   0.00328   0.00000   0.00071   0.00071   3.81763
    R3        3.13644  -0.00777   0.00000   0.01996   0.01996   3.15640
    R4        1.85066   0.00245   0.00000   0.00030   0.00030   1.85096
    A1        2.14427  -0.01554   0.00000  -0.00719  -0.00719   2.13708
    A2        2.25675   0.02803   0.00000  -0.00062  -0.00062   2.25613
    A3        1.77407   0.00111   0.00000  -0.00756  -0.00756   1.76650
    D1        3.13827   0.00100   0.00000  -0.00825  -0.00825   3.13003
    D2       -1.56355   0.00096   0.00000   0.01778   0.01778  -1.54577
         Item               Value     Threshold  Converged?
 Maximum Force            0.028032     0.000450     NO 
 RMS     Force            0.011233     0.000300     NO 
 Maximum Displacement     0.012582     0.001800     NO 
 RMS     Displacement     0.008433     0.001200     NO 
 Predicted change in Energy= 7.285661D-05
 Optimization stopped.
    -- Number of steps exceeded,  NStep=  20
    -- Flag reset to prevent archiving.
                           ----------------------------
                           ! Non-Optimized Parameters !
                           ! (Angstroms and Degrees)  !
 --------------------------                            --------------------------
 ! Name  Definition              Value          Derivative Info.                !
 --------------------------------------------------------------------------------
 ! R1    R(1,2)                  1.0276         -DE/DX =    0.0053              !
 ! R2    R(1,5)                  2.0202         -DE/DX =    0.0033              !
 ! R3    R(2,3)                  1.6703         -DE/DX =   -0.0078              !
 ! R4    R(3,4)                  0.9795         -DE/DX =    0.0025              !
 ! A1    A(2,1,5)              122.4456         -DE/DX =   -0.0155              !
 ! A2    A(1,2,3)              129.267          -DE/DX =    0.028               !
 ! A3    A(2,3,4)              101.2132         -DE/DX =    0.0011              !
 ! D1    D(5,1,2,3)            179.3373         -DE/DX =    0.001               !
 ! D2    D(1,2,3,4)            -88.5661         -DE/DX =    0.001               !
 --------------------------------------------------------------------------------
 GradGradGradGradGradGradGradGradGradGradGradGradGradGradGradGradGradGrad

                          Input orientation:                          
 ---------------------------------------------------------------------
 Center     Atomic      Atomic             Coordinates (Angstroms)
 Number     Number       Type             X           Y           Z
 ---------------------------------------------------------------------
      1          8           0       -1.425489    0.587121    0.602632
      2          1           0       -0.781496    0.775712   -0.177564
      3          8           0        0.877312    0.728409   -0.206437
      4          1           0        1.105701    1.646672    0.045969
      5         53           0       -3.433370    0.708743    0.420114
 ---------------------------------------------------------------------
                    Distance matrix (angstroms):
                    1          2          3          4          5
     1  O    0.000000
     2  H    1.029077   0.000000
     3  O    2.444881   1.659733   0.000000
     4  H    2.799901   2.090467   0.979326   0.000000
     5  I    2.019825   2.719217   4.356022   4.650039   0.000000
 Stoichiometry    H2IO2(1-)
 Framework group  C1[X(H2IO2)]
 Deg. of freedom     9
 Full point group                 C1      NOp   1
 Largest Abelian subgroup         C1      NOp   1
 Largest concise Abelian subgroup C1      NOp   1
                         Standard orientation:                         
 ---------------------------------------------------------------------
 Center     Atomic      Atomic             Coordinates (Angstroms)
 Number     Number       Type             X           Y           Z
 ---------------------------------------------------------------------
      1          8           0       -1.156440    0.406967    0.017112
      2          1           0       -1.888241   -0.306755   -0.101488
      3          8           0       -3.538425   -0.129173   -0.109948
      4          1           0       -3.753923   -0.238716    0.839073
      5         53           0        0.815115   -0.031639    0.000096
 ---------------------------------------------------------------------
 Rotational constants (GHZ):    124.2140958      1.5720114      1.5607149

 **********************************************************************

            Population analysis using the SCF density.

 **********************************************************************

 Orbital symmetries:
       Occupied  (A) (A) (A) (A) (A) (A) (A) (A) (A) (A) (A) (A)
                 (A)
       Virtual   (A) (A) (A) (A) (A) (A) (A) (A) (A) (A) (A) (A)
                 (A) (A) (A) (A) (A)
 The electronic state is 1-A.
 Alpha  occ. eigenvalues --  -19.62676 -19.52920  -1.07931  -0.97362  -0.72818
 Alpha  occ. eigenvalues --   -0.52471  -0.42222  -0.41106  -0.40186  -0.30590
 Alpha  occ. eigenvalues --   -0.28956  -0.28699  -0.28287
 Alpha virt. eigenvalues --   -0.02964   0.19440   0.27353   0.42299   0.42857
 Alpha virt. eigenvalues --    0.43609   0.67856   0.70435   0.77378   0.79030
 Alpha virt. eigenvalues --    0.84521   0.94512   1.01059   1.11331   1.46318
 Alpha virt. eigenvalues --    1.58754   9.30388
          Condensed to atoms (all electrons):
              1          2          3          4          5
     1  O    8.804292   0.185124  -0.070377   0.002811   0.006936
     2  H    0.185124   0.286631   0.103520  -0.009911  -0.010625
     3  O   -0.070377   0.103520   8.847864   0.269108   0.006288
     4  H    0.002811  -0.009911   0.269108   0.402403  -0.000152
     5  I    0.006936  -0.010625   0.006288  -0.000152   6.693367
 Mulliken atomic charges:
              1
     1  O   -0.928785
     2  H    0.445262
     3  O   -1.156403
     4  H    0.335741
     5  I    0.304186
 Sum of Mulliken atomic charges =  -1.00000
 Mulliken charges with hydrogens summed into heavy atoms:
              1
     1  O   -0.483524
     3  O   -0.820662
     5  I    0.304186
 Sum of Mulliken charges with hydrogens summed into heavy atoms =  -1.00000
 Electronic spatial extent (au):  <R**2>=            594.2006
 Charge=             -1.0000 electrons
 Dipole moment (field-independent basis, Debye):
    X=             14.4244    Y=             -2.2424    Z=              2.1820  Tot=             14.7598
 Quadrupole moment (field-independent basis, Debye-Ang):
   XX=            -77.3298   YY=            -36.3697   ZZ=            -34.2030
   XY=              2.0630   XZ=             -8.8541   YZ=             -0.5109
 Traceless Quadrupole moment (field-independent basis, Debye-Ang):
   XX=            -28.0290   YY=             12.9311   ZZ=             15.0979
   XY=              2.0630   XZ=             -8.8541   YZ=             -0.5109
 Octapole moment (field-independent basis, Debye-Ang**2):
  XXX=            223.2154  YYY=             -2.7300  ZZZ=              2.0839  XYY=             20.3788
  XXY=             -4.6224  XXZ=             34.6389  XZZ=             12.9033  YZZ=             -1.1781
  YYZ=              0.5782  XYZ=              2.0292
 Hexadecapole moment (field-independent basis, Debye-Ang**3):
 XXXX=          -1300.8542 YYYY=            -58.4091 ZZZZ=            -51.4526 XXXY=             -6.6815
 XXXZ=           -135.1349 YYYX=             -1.5477 YYYZ=             -0.3103 ZZZX=             -8.2192
 ZZZY=             -0.5408 XXYY=           -142.2503 XXZZ=           -117.2893 YYZZ=            -18.4405
 XXYZ=             -7.6936 YYXZ=             -2.2553 ZZXY=              0.6566
 N-N= 5.023975906899D+01 E-N=-4.880439729655D+02  KE= 1.540165635164D+02


 E PUR SI MUOVE    -- GALILEO GALILEI
 Error termination request processed by link 9999.
 Error termination via Lnk1e in C:\G09W\l9999.exe at Tue Feb 02 03:31:32 2021.
 Job cpu time:  0 days  0 hours  1 minutes 46.0 seconds.
 File lengths (MBytes):  RWF=     18 Int=      0 D2E=      0 Chk=      2 Scr=      1
