 Entering Link 1 = C:\G09W\l1.exe PID=      5964.
  
 Copyright (c) 1988,1990,1992,1993,1995,1998,2003,2009, Gaussian, Inc.
                  All Rights Reserved.
  
 This is part of the Gaussian(R) 09 program.  It is based on
 the Gaussian(R) 03 system (copyright 2003, Gaussian, Inc.),
 the Gaussian(R) 98 system (copyright 1998, Gaussian, Inc.),
 the Gaussian(R) 94 system (copyright 1995, Gaussian, Inc.),
 the Gaussian 92(TM) system (copyright 1992, Gaussian, Inc.),
 the Gaussian 90(TM) system (copyright 1990, Gaussian, Inc.),
 the Gaussian 88(TM) system (copyright 1988, Gaussian, Inc.),
 the Gaussian 86(TM) system (copyright 1986, Carnegie Mellon
 University), and the Gaussian 82(TM) system (copyright 1983,
 Carnegie Mellon University). Gaussian is a federally registered
 trademark of Gaussian, Inc.
  
 This software contains proprietary and confidential information,
 including trade secrets, belonging to Gaussian, Inc.
  
 This software is provided under written license and may be
 used, copied, transmitted, or stored only in accord with that
 written license.
  
 The following legend is applicable only to US Government
 contracts under FAR:
  
                    RESTRICTED RIGHTS LEGEND
  
 Use, reproduction and disclosure by the US Government is
 subject to restrictions as set forth in subparagraphs (a)
 and (c) of the Commercial Computer Software - Restricted
 Rights clause in FAR 52.227-19.
  
 Gaussian, Inc.
 340 Quinnipiac St., Bldg. 40, Wallingford CT 06492
  
  
 ---------------------------------------------------------------
 Warning -- This program may not be used in any manner that
 competes with the business of Gaussian, Inc. or will provide
 assistance to any competitor of Gaussian, Inc.  The licensee
 of this program is prohibited from giving any competitor of
 Gaussian, Inc. access to this program.  By using this program,
 the user acknowledges that Gaussian, Inc. is engaged in the
 business of creating and licensing software in the field of
 computational chemistry and represents and warrants to the
 licensee that it is not a competitor of Gaussian, Inc. and that
 it will not use this program in any manner prohibited above.
 ---------------------------------------------------------------
  

 Cite this work as:
 Gaussian 09, Revision A.02,
 M. J. Frisch, G. W. Trucks, H. B. Schlegel, G. E. Scuseria, 
 M. A. Robb, J. R. Cheeseman, G. Scalmani, V. Barone, B. Mennucci, 
 G. A. Petersson, H. Nakatsuji, M. Caricato, X. Li, H. P. Hratchian, 
 A. F. Izmaylov, J. Bloino, G. Zheng, J. L. Sonnenberg, M. Hada, 
 M. Ehara, K. Toyota, R. Fukuda, J. Hasegawa, M. Ishida, T. Nakajima, 
 Y. Honda, O. Kitao, H. Nakai, T. Vreven, J. A. Montgomery, Jr., 
 J. E. Peralta, F. Ogliaro, M. Bearpark, J. J. Heyd, E. Brothers, 
 K. N. Kudin, V. N. Staroverov, R. Kobayashi, J. Normand, 
 K. Raghavachari, A. Rendell, J. C. Burant, S. S. Iyengar, J. Tomasi, 
 M. Cossi, N. Rega, J. M. Millam, M. Klene, J. E. Knox, J. B. Cross, 
 V. Bakken, C. Adamo, J. Jaramillo, R. Gomperts, R. E. Stratmann, 
 O. Yazyev, A. J. Austin, R. Cammi, C. Pomelli, J. W. Ochterski, 
 R. L. Martin, K. Morokuma, V. G. Zakrzewski, G. A. Voth, 
 P. Salvador, J. J. Dannenberg, S. Dapprich, A. D. Daniels, 
 O. Farkas, J. B. Foresman, J. V. Ortiz, J. Cioslowski, 
 and D. J. Fox, Gaussian, Inc., Wallingford CT, 2009.
 
 ******************************************
 Gaussian 09:  IA32W-G09RevA.02 11-Jun-2009
                02-Feb-2021 
 ******************************************
 %chk=D:\Documents\rayGit\FQ\quimicaComputacional\proyecto\decompositionHydrogenP
 eroxide\decompositionCatalyzedByIodine\step1\ts\ts.chk
 %mem=1500MB
 %nprocshared=4
 Will use up to    4 processors via shared memory.
 ----------------------------------------------------------------------
 # opt=(readfc,ts,noeigen) geom=check guess=check freq=noraman lanl2dz 
 scrf=smd iop(1/8=3) m062x
 ----------------------------------------------------------------------
 1/5=1,8=3,10=3,11=1,14=-1,18=20,26=3,29=2,38=1/1,3;
 2/9=110,12=2,40=1/2;
 3/5=6,6=3,11=2,14=-4,16=1,25=1,30=1,70=32201,71=1,72=1,74=-55,116=-2/1,2,3;
 4/5=1/1;
 5/5=2,38=6/2;
 6/7=2,8=2,9=2,10=2,28=1/1;
 7//1,2,3,16;
 1/5=1,8=3,11=1,14=-1,18=20/3(2);
 2/9=110/2;
 99//99;
 2/9=110/2;
 3/5=6,6=3,11=2,14=-2,16=1,25=1,30=1,70=32205,71=1,74=-55/1,2,3;
 4/5=5,16=3/1;
 5/5=2,38=5/2;
 7//1,2,3,16;
 1/5=1,8=3,11=1,14=-1,18=20/3(-5);
 2/9=110/2;
 6/7=2,8=2,9=2,10=2,19=2,28=1/1;
 99/9=1/99;
 ------------------------------
 Hydrogen peroxide with iodine4
 ------------------------------
 Redundant internal coordinates taken from checkpoint file:
 D:\Documents\rayGit\FQ\quimicaComputacional\proyecto\decompositionHydrogenPeroxide\decompositionCatalyzedByIodine\step1\ts\ts.chk
 Charge = -1 Multiplicity = 1
 O,0,-1.4254887069,0.5871213077,0.6026319035
 H,0,-0.7814956982,0.7757116476,-0.1775637263
 O,0,0.877311505,0.7284087404,-0.2064369425
 H,0,1.1057010751,1.6466722848,0.045969396
 I,0,-3.433370175,0.7087427495,0.4201142192
 Recover connectivity data from disk.

 GradGradGradGradGradGradGradGradGradGradGradGradGradGradGradGradGradGrad
 Berny optimization.
 Initialization pass.
 Force constant matrix read from checkpoint file:
 D:\Documents\rayGit\FQ\quimicaComputacional\proyecto\decompositionHydrogenPeroxi
 de\decompositionCatalyzedByIodine\step1\ts\ts.chk
                           ----------------------------
                           !    Initial Parameters    !
                           ! (Angstroms and Degrees)  !
 --------------------------                            --------------------------
 ! Name  Definition              Value          Derivative Info.                !
 --------------------------------------------------------------------------------
 ! R1    R(1,2)                  1.0291         D2E/DX2 =    0.2624             !
 ! R2    R(1,5)                  2.0198         D2E/DX2 =    0.1853             !
 ! R3    R(2,3)                  1.6597         D2E/DX2 =    0.0362             !
 ! R4    R(3,4)                  0.9793         D2E/DX2 =    0.595              !
 ! A1    A(2,1,5)              122.8576         D2E/DX2 =    0.0778             !
 ! A2    A(1,2,3)              129.3025         D2E/DX2 =    0.1932             !
 ! A3    A(2,3,4)              101.6466         D2E/DX2 =    0.0977             !
 ! D1    D(5,1,2,3)            179.8097         D2E/DX2 =    0.0127             !
 ! D2    D(1,2,3,4)            -89.5847         D2E/DX2 =    0.012              !
 --------------------------------------------------------------------------------
 Trust Radius=3.00D-02 FncErr=1.00D-07 GrdErr=1.00D-06
 Number of steps in this run=  20 maximum allowed number of steps= 100.
 Search for a saddle point of order  1.
 GradGradGradGradGradGradGradGradGradGradGradGradGradGradGradGradGradGrad

                          Input orientation:                          
 ---------------------------------------------------------------------
 Center     Atomic      Atomic             Coordinates (Angstroms)
 Number     Number       Type             X           Y           Z
 ---------------------------------------------------------------------
      1          8           0       -1.425489    0.587121    0.602632
      2          1           0       -0.781496    0.775712   -0.177564
      3          8           0        0.877312    0.728409   -0.206437
      4          1           0        1.105701    1.646672    0.045969
      5         53           0       -3.433370    0.708743    0.420114
 ---------------------------------------------------------------------
                    Distance matrix (angstroms):
                    1          2          3          4          5
     1  O    0.000000
     2  H    1.029077   0.000000
     3  O    2.444881   1.659733   0.000000
     4  H    2.799901   2.090467   0.979326   0.000000
     5  I    2.019825   2.719217   4.356022   4.650039   0.000000
 Stoichiometry    H2IO2(1-)
 Framework group  C1[X(H2IO2)]
 Deg. of freedom     9
 Full point group                 C1      NOp   1
 Largest Abelian subgroup         C1      NOp   1
 Largest concise Abelian subgroup C1      NOp   1
                         Standard orientation:                         
 ---------------------------------------------------------------------
 Center     Atomic      Atomic             Coordinates (Angstroms)
 Number     Number       Type             X           Y           Z
 ---------------------------------------------------------------------
      1          8           0       -1.156440    0.406967    0.017112
      2          1           0       -1.888241   -0.306755   -0.101488
      3          8           0       -3.538425   -0.129173   -0.109948
      4          1           0       -3.753923   -0.238716    0.839073
      5         53           0        0.815115   -0.031639    0.000096
 ---------------------------------------------------------------------
 Rotational constants (GHZ):    124.2140958      1.5720114      1.5607149
 Standard basis: LANL2DZ (5D, 7F)
 There are    30 symmetry adapted basis functions of A   symmetry.
 Integral buffers will be    262144 words long.
 Raffenetti 2 integral format.
 Two-electron integral symmetry is turned on.
    30 basis functions,    70 primitive gaussians,    30 cartesian basis functions
    13 alpha electrons       13 beta electrons
       nuclear repulsion energy        50.2380863116 Hartrees.
 NAtoms=    5 NActive=    5 NUniq=    5 SFac= 7.50D-01 NAtFMM=   80 NAOKFM=F Big=F
 ------------------------------------------------------------------------------
 Polarizable Continuum Model (PCM)
 =================================
 Model                : PCM.
 Atomic radii         : SMD-Coulomb.
 Polarization charges : Total charges.
 Charge compensation  : None.
 Solution method      : Matrix inversion.
 Cavity type          : VdW (van der Waals Surface) (Alpha=1.000).
 Cavity algorithm     : GePol (No added spheres)
                        Default sphere list used, NSphG=    5.
                        Lebedev-Laikov grids with approx.  5.0 points / Ang**2.
                        Smoothing algorithm: Karplus/York (Gamma=1.0000).
                        Polarization charges: spherical gaussians, with
                                              point-specific exponents (IZeta= 3).
                        Self-potential: point-specific (ISelfS= 7).
                        Self-field    : sphere-specific E.n sum rule (ISelfD= 2).
 1st derivatives      : Analytical E(r).r(x)/FMM algorithm (CHGder, D1EAlg=3).
                        Cavity 1st derivative terms included.
 Solvent              : Water, Eps=  78.355300 Eps(inf)=   1.777849
 ------------------------------------------------------------------------------
 Spheres list:
 ISph  on   Nord    Re0     Alpha      Xe            Ye            Ze
    1   O      1    1.520   1.000     -1.156440      0.406967      0.017112
    2   H      2    1.200   1.000     -1.888241     -0.306755     -0.101488
    3   O      3    1.520   1.000     -3.538425     -0.129173     -0.109948
    4   H      4    1.200   1.000     -3.753923     -0.238716      0.839073
    5   I      5    1.980   1.000      0.815115     -0.031639      0.000096
 ------------------------------------------------------------------------------
 ------------------------------------------------------------------------------
 Atomic radii for non-electrostatic terms: SMD-CDS.
 ------------------------------------------------------------------------------
 Nuclear repulsion after PCM non-electrostatic terms =       50.2397590690 Hartrees.
 One-electron integrals computed using PRISM.
   1 Symmetry operations used in ECPInt.
 ECPInt:  NShTT=     171 NPrTT=    1054 LenC2=     172 LenP2D=     912.
 LDataN:  DoStor=T MaxTD1= 4 Len=   56
 NBasis=    30 RedAO= T  NBF=    30
 NBsUse=    30 1.00D-06 NBFU=    30
 Defaulting to unpruned grid for atomic number  53.
 Initial guess read from the checkpoint file:  D:\Documents\rayGit\FQ\quimicaComp
 utacional\proyecto\decompositionHydrogenPeroxide\decompositionCatalyzedByIodine\
 step1\ts\ts.chk
 B after Tr=     0.000000    0.000000    0.000000
         Rot=    1.000000    0.000000    0.000000    0.000000 Ang=   0.00 deg.
 Initial guess orbital symmetries:
       Occupied  (A) (A) (A) (A) (A) (A) (A) (A) (A) (A) (A) (A)
                 (A)
       Virtual   (A) (A) (A) (A) (A) (A) (A) (A) (A) (A) (A) (A)
                 (A) (A) (A) (A) (A)
 Requested convergence on RMS density matrix=1.00D-08 within 128 cycles.
 Requested convergence on MAX density matrix=1.00D-06.
 Requested convergence on             energy=1.00D-06.
 No special actions if energy rises.
 Keep R1 ints in memory in canonical form, NReq=3424172.
 Defaulting to unpruned grid for atomic number  53.
 Defaulting to unpruned grid for atomic number  53.
 Defaulting to unpruned grid for atomic number  53.
 Defaulting to unpruned grid for atomic number  53.
 Error on total polarization charges =  0.07512
 SCF Done:  E(RM062X) =  -163.005691149     A.U. after    1 cycles
             Convg  =    0.8255D-09             -V/T =  2.0584
 SMD-CDS (non-electrostatic) energy             (kcal/mol) =       1.05
 (included in total energy above)

 **********************************************************************

            Population analysis using the SCF density.

 **********************************************************************

 Orbital symmetries:
       Occupied  (A) (A) (A) (A) (A) (A) (A) (A) (A) (A) (A) (A)
                 (A)
       Virtual   (A) (A) (A) (A) (A) (A) (A) (A) (A) (A) (A) (A)
                 (A) (A) (A) (A) (A)
 The electronic state is 1-A.
 Alpha  occ. eigenvalues --  -19.62676 -19.52920  -1.07931  -0.97362  -0.72818
 Alpha  occ. eigenvalues --   -0.52471  -0.42222  -0.41106  -0.40186  -0.30590
 Alpha  occ. eigenvalues --   -0.28956  -0.28699  -0.28287
 Alpha virt. eigenvalues --   -0.02964   0.19440   0.27353   0.42299   0.42857
 Alpha virt. eigenvalues --    0.43609   0.67856   0.70435   0.77378   0.79030
 Alpha virt. eigenvalues --    0.84521   0.94512   1.01059   1.11331   1.46318
 Alpha virt. eigenvalues --    1.58754   9.30388
          Condensed to atoms (all electrons):
              1          2          3          4          5
     1  O    8.804292   0.185124  -0.070377   0.002811   0.006936
     2  H    0.185124   0.286631   0.103520  -0.009911  -0.010625
     3  O   -0.070377   0.103520   8.847864   0.269108   0.006288
     4  H    0.002811  -0.009911   0.269108   0.402403  -0.000152
     5  I    0.006936  -0.010625   0.006288  -0.000152   6.693367
 Mulliken atomic charges:
              1
     1  O   -0.928785
     2  H    0.445262
     3  O   -1.156403
     4  H    0.335741
     5  I    0.304186
 Sum of Mulliken atomic charges =  -1.00000
 Mulliken charges with hydrogens summed into heavy atoms:
              1
     1  O   -0.483524
     3  O   -0.820662
     5  I    0.304186
 Sum of Mulliken charges with hydrogens summed into heavy atoms =  -1.00000
 Electronic spatial extent (au):  <R**2>=            594.2006
 Charge=             -1.0000 electrons
 Dipole moment (field-independent basis, Debye):
    X=             14.4244    Y=             -2.2424    Z=              2.1820  Tot=             14.7598
 Quadrupole moment (field-independent basis, Debye-Ang):
   XX=            -77.3298   YY=            -36.3697   ZZ=            -34.2030
   XY=              2.0630   XZ=             -8.8541   YZ=             -0.5109
 Traceless Quadrupole moment (field-independent basis, Debye-Ang):
   XX=            -28.0290   YY=             12.9311   ZZ=             15.0979
   XY=              2.0630   XZ=             -8.8541   YZ=             -0.5109
 Octapole moment (field-independent basis, Debye-Ang**2):
  XXX=            223.2154  YYY=             -2.7300  ZZZ=              2.0839  XYY=             20.3788
  XXY=             -4.6224  XXZ=             34.6389  XZZ=             12.9033  YZZ=             -1.1781
  YYZ=              0.5782  XYZ=              2.0292
 Hexadecapole moment (field-independent basis, Debye-Ang**3):
 XXXX=          -1300.8541 YYYY=            -58.4091 ZZZZ=            -51.4526 XXXY=             -6.6815
 XXXZ=           -135.1349 YYYX=             -1.5477 YYYZ=             -0.3103 ZZZX=             -8.2192
 ZZZY=             -0.5408 XXYY=           -142.2503 XXZZ=           -117.2893 YYZZ=            -18.4405
 XXYZ=             -7.6936 YYXZ=             -2.2553 ZZXY=              0.6566
 N-N= 5.023975906899D+01 E-N=-4.880439731846D+02  KE= 1.540165636284D+02
   1 Symmetry operations used in ECPInt.
 ECPInt:  NShTT=     171 NPrTT=    1054 LenC2=     172 LenP2D=     912.
 LDataN:  DoStor=T MaxTD1= 5 Len=  102
 D1PCM: PCM CHGder 1st derivatives, ID1Alg=3 FixD1E=F DoIter=F DoCFld=F I1PDM=0.
 Calling FoFJK, ICntrl=      2127 FMM=F ISym2X=0 I1Cent= 0 IOpClX= 0 NMat=1 NMatS=1 NMatT=0.
 Defaulting to unpruned grid for atomic number  53.
 Defaulting to unpruned grid for atomic number  53.
 Defaulting to unpruned grid for atomic number  53.
 Defaulting to unpruned grid for atomic number  53.
 ***** Axes restored to original set *****
 -------------------------------------------------------------------
 Center     Atomic                   Forces (Hartrees/Bohr)
 Number     Number              X              Y              Z
 -------------------------------------------------------------------
      1        8          -0.005414117   -0.000288721    0.004623835
      2        1           0.016139431   -0.003449947    0.008172465
      3        8          -0.009020126    0.000828353   -0.009727055
      4        1           0.001124987    0.002110764    0.001063260
      5       53          -0.002830175    0.000799551   -0.004132506
 -------------------------------------------------------------------
 Cartesian Forces:  Max     0.016139431 RMS     0.006320290

 GradGradGradGradGradGradGradGradGradGradGradGradGradGradGradGradGradGrad
 Berny optimization.
 Internal  Forces:  Max     0.028031693 RMS     0.011233467
 Search for a saddle point.
 Step number   1 out of a maximum of   20
 All quantities printed in internal units (Hartrees-Bohrs-Radians)
 Swaping is turned off.
 Second derivative matrix not updated -- first step.
 The second derivative matrix:
                          R1        R2        R3        R4        A1
           R1           0.26241
           R2           0.04579   0.18527
           R3           0.08334   0.02559   0.03616
           R4          -0.00092  -0.00427  -0.00916   0.59500
           A1           0.03954   0.03247   0.01379  -0.00885   0.07781
           A2           0.08220   0.07620   0.07617   0.00157   0.03328
           A3           0.01547   0.00530   0.01628   0.01403  -0.00309
           D1           0.00000   0.00215   0.00458  -0.00232   0.00119
           D2          -0.02280  -0.00315  -0.00958   0.00627  -0.00126
                          A2        A3        D1        D2
           A2           0.19323
           A3          -0.00795   0.09766
           D1          -0.00377  -0.00218   0.01273
           D2          -0.01853   0.02379  -0.00090   0.01204
     Eigenvalues ---   -0.00909   0.00274   0.01423   0.06459   0.09722
     Eigenvalues ---    0.12065   0.17991   0.40617   0.59592
 Eigenvectors required to have negative eigenvalues:
                          R3        A2        D1        R1        A3
   1                    0.88043  -0.27810  -0.24766  -0.17479  -0.17179
                          D2        R2        A1        R4
   1                    0.15244   0.03905   0.03282   0.01601
 RFO step:  Lambda0=1.227819877D-02 Lambda=-1.00104783D-02.
 Linear search not attempted -- option 19 set.
 Maximum step size (   0.030) exceeded in Quadratic search.
    -- Step size scaled by   0.032
 Iteration  1 RMS(Cart)=  0.00843662 RMS(Int)=  0.00007030
 Iteration  2 RMS(Cart)=  0.00006582 RMS(Int)=  0.00000000
 Iteration  3 RMS(Cart)=  0.00000000 RMS(Int)=  0.00000000
 Variable       Old X    -DE/DX   Delta X   Delta X   Delta X     New X
                                 (Linear)    (Quad)   (Total)
    R1        1.94467   0.00531   0.00000  -0.00280  -0.00280   1.94187
    R2        3.81692   0.00328   0.00000   0.00071   0.00071   3.81763
    R3        3.13644  -0.00777   0.00000   0.01996   0.01996   3.15640
    R4        1.85066   0.00245   0.00000   0.00030   0.00030   1.85096
    A1        2.14427  -0.01554   0.00000  -0.00719  -0.00719   2.13708
    A2        2.25675   0.02803   0.00000  -0.00062  -0.00062   2.25613
    A3        1.77407   0.00111   0.00000  -0.00756  -0.00756   1.76650
    D1        3.13827   0.00100   0.00000  -0.00825  -0.00825   3.13003
    D2       -1.56355   0.00096   0.00000   0.01778   0.01778  -1.54577
         Item               Value     Threshold  Converged?
 Maximum Force            0.028032     0.000450     NO 
 RMS     Force            0.011233     0.000300     NO 
 Maximum Displacement     0.012582     0.001800     NO 
 RMS     Displacement     0.008433     0.001200     NO 
 Predicted change in Energy= 7.285662D-05
 GradGradGradGradGradGradGradGradGradGradGradGradGradGradGradGradGradGrad

                          Input orientation:                          
 ---------------------------------------------------------------------
 Center     Atomic      Atomic             Coordinates (Angstroms)
 Number     Number       Type             X           Y           Z
 ---------------------------------------------------------------------
      1          8           0       -1.424959    0.585948    0.605789
      2          1           0       -0.785516    0.769451   -0.177402
      3          8           0        0.883970    0.729656   -0.210754
      4          1           0        1.101621    1.648776    0.048547
      5         53           0       -3.432457    0.712825    0.418536
 ---------------------------------------------------------------------
                    Distance matrix (angstroms):
                    1          2          3          4          5
     1  O    0.000000
     2  H    1.027594   0.000000
     3  O    2.453273   1.670293   0.000000
     4  H    2.797094   2.094172   0.979485   0.000000
     5  I    2.020200   2.713788   4.362090   4.644434   0.000000
 Stoichiometry    H2IO2(1-)
 Framework group  C1[X(H2IO2)]
 Deg. of freedom     9
 Full point group                 C1      NOp   1
 Largest Abelian subgroup         C1      NOp   1
 Largest concise Abelian subgroup C1      NOp   1
                         Standard orientation:                         
 ---------------------------------------------------------------------
 Center     Atomic      Atomic             Coordinates (Angstroms)
 Number     Number       Type             X           Y           Z
 ---------------------------------------------------------------------
      1          8           0       -1.155145    0.412182    0.015587
      2          1           0       -1.882541   -0.303165   -0.107392
      3          8           0       -3.544043   -0.132034   -0.109086
      4          1           0       -3.747169   -0.235687    0.843483
      5         53           0        0.815532   -0.032119    0.000224
 ---------------------------------------------------------------------
 Rotational constants (GHZ):    121.6530516      1.5690389      1.5574307
 Standard basis: LANL2DZ (5D, 7F)
 There are    30 symmetry adapted basis functions of A   symmetry.
 Integral buffers will be    262144 words long.
 Raffenetti 2 integral format.
 Two-electron integral symmetry is turned on.
    30 basis functions,    70 primitive gaussians,    30 cartesian basis functions
    13 alpha electrons       13 beta electrons
       nuclear repulsion energy        50.1723681611 Hartrees.
 NAtoms=    5 NActive=    5 NUniq=    5 SFac= 7.50D-01 NAtFMM=   80 NAOKFM=F Big=F
 ------------------------------------------------------------------------------
 Polarizable Continuum Model (PCM)
 =================================
 Model                : PCM.
 Atomic radii         : SMD-Coulomb.
 Polarization charges : Total charges.
 Charge compensation  : None.
 Solution method      : Matrix inversion.
 Cavity type          : VdW (van der Waals Surface) (Alpha=1.000).
 Cavity algorithm     : GePol (No added spheres)
                        Default sphere list used, NSphG=    5.
                        Lebedev-Laikov grids with approx.  5.0 points / Ang**2.
                        Smoothing algorithm: Karplus/York (Gamma=1.0000).
                        Polarization charges: spherical gaussians, with
                                              point-specific exponents (IZeta= 3).
                        Self-potential: point-specific (ISelfS= 7).
                        Self-field    : sphere-specific E.n sum rule (ISelfD= 2).
 1st derivatives      : Analytical E(r).r(x)/FMM algorithm (CHGder, D1EAlg=3).
                        Cavity 1st derivative terms included.
 Solvent              : Water, Eps=  78.355300 Eps(inf)=   1.777849
 ------------------------------------------------------------------------------
 Spheres list:
 ISph  on   Nord    Re0     Alpha      Xe            Ye            Ze
    1   O      1    1.520   1.000     -1.155145      0.412182      0.015587
    2   H      2    1.200   1.000     -1.882541     -0.303165     -0.107392
    3   O      3    1.520   1.000     -3.544043     -0.132034     -0.109086
    4   H      4    1.200   1.000     -3.747169     -0.235687      0.843483
    5   I      5    1.980   1.000      0.815532     -0.032119      0.000224
 ------------------------------------------------------------------------------
 ------------------------------------------------------------------------------
 Atomic radii for non-electrostatic terms: SMD-CDS.
 ------------------------------------------------------------------------------
 Nuclear repulsion after PCM non-electrostatic terms =       50.1740399998 Hartrees.
 One-electron integrals computed using PRISM.
   1 Symmetry operations used in ECPInt.
 ECPInt:  NShTT=     171 NPrTT=    1054 LenC2=     172 LenP2D=     912.
 LDataN:  DoStor=T MaxTD1= 4 Len=   56
 NBasis=    30 RedAO= T  NBF=    30
 NBsUse=    30 1.00D-06 NBFU=    30
 Defaulting to unpruned grid for atomic number  53.
 Initial guess read from the read-write file.
 B after Tr=     0.000000    0.000000    0.000000
         Rot=    1.000000    0.000000    0.000000    0.000000 Ang=   0.00 deg.
 Initial guess orbital symmetries:
       Occupied  (A) (A) (A) (A) (A) (A) (A) (A) (A) (A) (A) (A)
                 (A)
       Virtual   (A) (A) (A) (A) (A) (A) (A) (A) (A) (A) (A) (A)
                 (A) (A) (A) (A) (A)
 Requested convergence on RMS density matrix=1.00D-08 within 128 cycles.
 Requested convergence on MAX density matrix=1.00D-06.
 Requested convergence on             energy=1.00D-06.
 No special actions if energy rises.
 Keep R1 ints in memory in canonical form, NReq=3426711.
 Defaulting to unpruned grid for atomic number  53.
 Defaulting to unpruned grid for atomic number  53.
 Defaulting to unpruned grid for atomic number  53.
 Defaulting to unpruned grid for atomic number  53.
 Error on total polarization charges =  0.07507
 SCF Done:  E(RM062X) =  -163.005619419     A.U. after   10 cycles
             Convg  =    0.7859D-08             -V/T =  2.0584
 SMD-CDS (non-electrostatic) energy             (kcal/mol) =       1.05
 (included in total energy above)
   1 Symmetry operations used in ECPInt.
 ECPInt:  NShTT=     171 NPrTT=    1054 LenC2=     172 LenP2D=     912.
 LDataN:  DoStor=T MaxTD1= 5 Len=  102
 D1PCM: PCM CHGder 1st derivatives, ID1Alg=3 FixD1E=F DoIter=F DoCFld=F I1PDM=0.
 Calling FoFJK, ICntrl=      2127 FMM=F ISym2X=0 I1Cent= 0 IOpClX= 0 NMat=1 NMatS=1 NMatT=0.
 Defaulting to unpruned grid for atomic number  53.
 Defaulting to unpruned grid for atomic number  53.
 Defaulting to unpruned grid for atomic number  53.
 Defaulting to unpruned grid for atomic number  53.
 ***** Axes restored to original set *****
 -------------------------------------------------------------------
 Center     Atomic                   Forces (Hartrees/Bohr)
 Number     Number              X              Y              Z
 -------------------------------------------------------------------
      1        8          -0.005192932   -0.000280369    0.004243927
      2        1           0.015860068   -0.003175392    0.008128922
      3        8          -0.008977639    0.000689581   -0.009442914
      4        1           0.001073215    0.002023889    0.001071681
      5       53          -0.002762711    0.000742290   -0.004001616
 -------------------------------------------------------------------
 Cartesian Forces:  Max     0.015860068 RMS     0.006183825

 GradGradGradGradGradGradGradGradGradGradGradGradGradGradGradGradGradGrad
 Berny optimization.
 Internal  Forces:  Max     0.027300154 RMS     0.010918275
 Search for a saddle point.
 Step number   2 out of a maximum of   20
 All quantities printed in internal units (Hartrees-Bohrs-Radians)
 Swaping is turned off.
 Update second derivatives using D2CorX and points    1    2
 The second derivative matrix:
                          R1        R2        R3        R4        A1
           R1           0.26118
           R2           0.04607   0.18522
           R3           0.08951   0.02458   0.03377
           R4          -0.00085  -0.00428  -0.00897   0.59501
           A1           0.03756   0.03275   0.01076  -0.00898   0.08051
           A2           0.08203   0.07622   0.07587   0.00156   0.03353
           A3           0.01315   0.00568   0.01683   0.01395  -0.00179
           D1          -0.00250   0.00255   0.00488  -0.00241   0.00272
           D2          -0.01745  -0.00400  -0.00943   0.00648  -0.00490
                          A2        A3        D1        D2
           A2           0.19325
           A3          -0.00782   0.09759
           D1          -0.00362  -0.00214   0.01290
           D2          -0.01888   0.02341  -0.00160   0.01427
     Eigenvalues ---   -0.01420   0.00569   0.01485   0.06761   0.09702
     Eigenvalues ---    0.12037   0.17987   0.40655   0.59592
 Eigenvectors required to have negative eigenvalues:
                          R3        A2        D1        R1        A3
   1                    0.88556  -0.26579  -0.22991  -0.21241  -0.15923
                          D2        A1        R2        R4
   1                    0.11960   0.07549   0.03934   0.01628
 RFO step:  Lambda0=1.079571258D-02 Lambda=-7.94788373D-03.
 Linear search not attempted -- option 19 set.
 Maximum step size (   0.030) exceeded in Quadratic search.
    -- Step size scaled by   0.038
 Iteration  1 RMS(Cart)=  0.00806198 RMS(Int)=  0.00005803
 Iteration  2 RMS(Cart)=  0.00005435 RMS(Int)=  0.00000000
 Iteration  3 RMS(Cart)=  0.00000000 RMS(Int)=  0.00000000
 Variable       Old X    -DE/DX   Delta X   Delta X   Delta X     New X
                                 (Linear)    (Quad)   (Total)
    R1        1.94187   0.00493   0.00000  -0.00515  -0.00515   1.93672
    R2        3.81763   0.00321   0.00000   0.00077   0.00077   3.81840
    R3        3.15640  -0.00775   0.00000   0.02234   0.02234   3.17873
    R4        1.85096   0.00236   0.00000   0.00037   0.00037   1.85133
    A1        2.13708  -0.01497   0.00000  -0.00591  -0.00591   2.13117
    A2        2.25613   0.02730   0.00000  -0.00005  -0.00005   2.25608
    A3        1.76650   0.00109   0.00000  -0.00694  -0.00694   1.75957
    D1        3.13003   0.00103   0.00000  -0.00800  -0.00800   3.12203
    D2       -1.54577   0.00097   0.00000   0.01506   0.01506  -1.53071
         Item               Value     Threshold  Converged?
 Maximum Force            0.027300     0.000450     NO 
 RMS     Force            0.010918     0.000300     NO 
 Maximum Displacement     0.013509     0.001800     NO 
 RMS     Displacement     0.008062     0.001200     NO 
 Predicted change in Energy= 1.095737D-04
 GradGradGradGradGradGradGradGradGradGradGradGradGradGradGradGradGradGrad

                          Input orientation:                          
 ---------------------------------------------------------------------
 Center     Atomic      Atomic             Coordinates (Angstroms)
 Number     Number       Type             X           Y           Z
 ---------------------------------------------------------------------
      1          8           0       -1.424916    0.584507    0.607982
      2          1           0       -0.790250    0.763595   -0.176547
      3          8           0        0.891118    0.730990   -0.214544
      4          1           0        1.098870    1.650961    0.050540
      5         53           0       -3.432164    0.716603    0.417283
 ---------------------------------------------------------------------
                    Distance matrix (angstroms):
                    1          2          3          4          5
     1  O    0.000000
     2  H    1.024870   0.000000
     3  O    2.462117   1.682113   0.000000
     4  H    2.795990   2.099467   0.979682   0.000000
     5  I    2.020609   2.708238   4.369231   4.640883   0.000000
 Stoichiometry    H2IO2(1-)
 Framework group  C1[X(H2IO2)]
 Deg. of freedom     9
 Full point group                 C1      NOp   1
 Largest Abelian subgroup         C1      NOp   1
 Largest concise Abelian subgroup C1      NOp   1
                         Standard orientation:                         
 ---------------------------------------------------------------------
 Center     Atomic      Atomic             Coordinates (Angstroms)
 Number     Number       Type             X           Y           Z
 ---------------------------------------------------------------------
      1          8           0       -1.153930    0.416363    0.015081
      2          1           0       -1.876564   -0.298859   -0.113822
      3          8           0       -3.550568   -0.133973   -0.108522
      4          1           0       -3.742353   -0.236304    0.846740
      5         53           0        0.816130   -0.032527    0.000276
 ---------------------------------------------------------------------
 Rotational constants (GHZ):    119.6465962      1.5653213      1.5534860
 Standard basis: LANL2DZ (5D, 7F)
 There are    30 symmetry adapted basis functions of A   symmetry.
 Integral buffers will be    262144 words long.
 Raffenetti 2 integral format.
 Two-electron integral symmetry is turned on.
    30 basis functions,    70 primitive gaussians,    30 cartesian basis functions
    13 alpha electrons       13 beta electrons
       nuclear repulsion energy        50.1043499109 Hartrees.
 NAtoms=    5 NActive=    5 NUniq=    5 SFac= 7.50D-01 NAtFMM=   80 NAOKFM=F Big=F
 ------------------------------------------------------------------------------
 Polarizable Continuum Model (PCM)
 =================================
 Model                : PCM.
 Atomic radii         : SMD-Coulomb.
 Polarization charges : Total charges.
 Charge compensation  : None.
 Solution method      : Matrix inversion.
 Cavity type          : VdW (van der Waals Surface) (Alpha=1.000).
 Cavity algorithm     : GePol (No added spheres)
                        Default sphere list used, NSphG=    5.
                        Lebedev-Laikov grids with approx.  5.0 points / Ang**2.
                        Smoothing algorithm: Karplus/York (Gamma=1.0000).
                        Polarization charges: spherical gaussians, with
                                              point-specific exponents (IZeta= 3).
                        Self-potential: point-specific (ISelfS= 7).
                        Self-field    : sphere-specific E.n sum rule (ISelfD= 2).
 1st derivatives      : Analytical E(r).r(x)/FMM algorithm (CHGder, D1EAlg=3).
                        Cavity 1st derivative terms included.
 Solvent              : Water, Eps=  78.355300 Eps(inf)=   1.777849
 ------------------------------------------------------------------------------
 Spheres list:
 ISph  on   Nord    Re0     Alpha      Xe            Ye            Ze
    1   O      1    1.520   1.000     -1.153930      0.416363      0.015081
    2   H      2    1.200   1.000     -1.876564     -0.298859     -0.113822
    3   O      3    1.520   1.000     -3.550568     -0.133973     -0.108522
    4   H      4    1.200   1.000     -3.742353     -0.236304      0.846740
    5   I      5    1.980   1.000      0.816130     -0.032527      0.000276
 ------------------------------------------------------------------------------
 ------------------------------------------------------------------------------
 Atomic radii for non-electrostatic terms: SMD-CDS.
 ------------------------------------------------------------------------------
 Nuclear repulsion after PCM non-electrostatic terms =       50.1060212271 Hartrees.
 One-electron integrals computed using PRISM.
   1 Symmetry operations used in ECPInt.
 ECPInt:  NShTT=     171 NPrTT=    1054 LenC2=     172 LenP2D=     908.
 LDataN:  DoStor=T MaxTD1= 4 Len=   56
 NBasis=    30 RedAO= T  NBF=    30
 NBsUse=    30 1.00D-06 NBFU=    30
 Defaulting to unpruned grid for atomic number  53.
 Initial guess read from the read-write file.
 B after Tr=     0.000000    0.000000    0.000000
         Rot=    1.000000    0.000000    0.000000    0.000000 Ang=   0.00 deg.
 Initial guess orbital symmetries:
       Occupied  (A) (A) (A) (A) (A) (A) (A) (A) (A) (A) (A) (A)
                 (A)
       Virtual   (A) (A) (A) (A) (A) (A) (A) (A) (A) (A) (A) (A)
                 (A) (A) (A) (A) (A)
 Requested convergence on RMS density matrix=1.00D-08 within 128 cycles.
 Requested convergence on MAX density matrix=1.00D-06.
 Requested convergence on             energy=1.00D-06.
 No special actions if energy rises.
 Keep R1 ints in memory in canonical form, NReq=3429288.
 Defaulting to unpruned grid for atomic number  53.
 Defaulting to unpruned grid for atomic number  53.
 Defaulting to unpruned grid for atomic number  53.
 Defaulting to unpruned grid for atomic number  53.
 Error on total polarization charges =  0.07503
 SCF Done:  E(RM062X) =  -163.005510493     A.U. after   10 cycles
             Convg  =    0.9201D-08             -V/T =  2.0584
 SMD-CDS (non-electrostatic) energy             (kcal/mol) =       1.05
 (included in total energy above)
   1 Symmetry operations used in ECPInt.
 ECPInt:  NShTT=     171 NPrTT=    1054 LenC2=     172 LenP2D=     908.
 LDataN:  DoStor=T MaxTD1= 5 Len=  102
 D1PCM: PCM CHGder 1st derivatives, ID1Alg=3 FixD1E=F DoIter=F DoCFld=F I1PDM=0.
 Calling FoFJK, ICntrl=      2127 FMM=F ISym2X=0 I1Cent= 0 IOpClX= 0 NMat=1 NMatS=1 NMatT=0.
 Defaulting to unpruned grid for atomic number  53.
 Defaulting to unpruned grid for atomic number  53.
 Defaulting to unpruned grid for atomic number  53.
 Defaulting to unpruned grid for atomic number  53.
 ***** Axes restored to original set *****
 -------------------------------------------------------------------
 Center     Atomic                   Forces (Hartrees/Bohr)
 Number     Number              X              Y              Z
 -------------------------------------------------------------------
      1        8          -0.005399478   -0.000426773    0.004554526
      2        1           0.015839909   -0.002760450    0.007441778
      3        8          -0.008823250    0.000594677   -0.009146001
      4        1           0.001004572    0.001906322    0.001067179
      5       53          -0.002621753    0.000686223   -0.003917482
 -------------------------------------------------------------------
 Cartesian Forces:  Max     0.015839909 RMS     0.006078975

 GradGradGradGradGradGradGradGradGradGradGradGradGradGradGradGradGradGrad
 Berny optimization.
 Internal  Forces:  Max     0.026550290 RMS     0.010663357
 Search for a saddle point.
 Step number   3 out of a maximum of   20
 All quantities printed in internal units (Hartrees-Bohrs-Radians)
 Swaping is turned off.
 Update second derivatives using D2CorX and points    1    2    3
 The second derivative matrix:
                          R1        R2        R3        R4        A1
           R1           0.26630
           R2           0.04562   0.18523
           R3           0.07808   0.02470   0.03044
           R4          -0.00124  -0.00425  -0.00810   0.59504
           A1           0.04002   0.03284   0.01537  -0.00917   0.07815
           A2           0.08307   0.07608   0.07171   0.00148   0.03467
           A3           0.01689   0.00564   0.01787   0.01367  -0.00329
           D1           0.00213   0.00245   0.00435  -0.00276   0.00151
           D2          -0.02605  -0.00387  -0.01040   0.00713  -0.00197
                          A2        A3        D1        D2
           A2           0.19335
           A3          -0.00647   0.09726
           D1          -0.00206  -0.00196   0.01375
           D2          -0.02191   0.02370  -0.00252   0.01461
     Eigenvalues ---   -0.00914   0.00366   0.01505   0.06438   0.09714
     Eigenvalues ---    0.12005   0.18113   0.40592   0.59594
 Eigenvectors required to have negative eigenvalues:
                          R3        A2        D1        A3        R1
   1                    0.90420  -0.26132  -0.18246  -0.18225  -0.15737
                          D2        R2        R4        A1
   1                    0.14645   0.03429   0.01432   0.00491
 RFO step:  Lambda0=1.096914978D-02 Lambda=-9.45674651D-03.
 Linear search not attempted -- option 19 set.
 Maximum step size (   0.030) exceeded in Quadratic search.
    -- Step size scaled by   0.033
 Iteration  1 RMS(Cart)=  0.00807312 RMS(Int)=  0.00006796
 Iteration  2 RMS(Cart)=  0.00006934 RMS(Int)=  0.00000000
 Iteration  3 RMS(Cart)=  0.00000000 RMS(Int)=  0.00000000
 Variable       Old X    -DE/DX   Delta X   Delta X   Delta X     New X
                                 (Linear)    (Quad)   (Total)
    R1        1.93672   0.00529   0.00000  -0.00231  -0.00231   1.93441
    R2        3.81840   0.00307   0.00000   0.00049   0.00049   3.81889
    R3        3.17873  -0.00763   0.00000   0.02096   0.02096   3.19969
    R4        1.85133   0.00223   0.00000   0.00024   0.00024   1.85157
    A1        2.13117  -0.01465   0.00000  -0.00803  -0.00803   2.12314
    A2        2.25608   0.02655   0.00000  -0.00004  -0.00004   2.25605
    A3        1.75957   0.00105   0.00000  -0.00795  -0.00795   1.75162
    D1        3.12203   0.00109   0.00000  -0.00432  -0.00432   3.11771
    D2       -1.53071   0.00098   0.00000   0.01757   0.01757  -1.51313
         Item               Value     Threshold  Converged?
 Maximum Force            0.026550     0.000450     NO 
 RMS     Force            0.010663     0.000300     NO 
 Maximum Displacement     0.012472     0.001800     NO 
 RMS     Displacement     0.008072     0.001200     NO 
 Predicted change in Energy= 5.026250D-05
 GradGradGradGradGradGradGradGradGradGradGradGradGradGradGradGradGradGrad

                          Input orientation:                          
 ---------------------------------------------------------------------
 Center     Atomic      Atomic             Coordinates (Angstroms)
 Number     Number       Type             X           Y           Z
 ---------------------------------------------------------------------
      1          8           0       -1.424798    0.584730    0.612331
      2          1           0       -0.794678    0.759045   -0.175335
      3          8           0        0.897718    0.732020   -0.220038
      4          1           0        1.095911    1.651895    0.053054
      5         53           0       -3.431495    0.718968    0.414703
 ---------------------------------------------------------------------
                    Distance matrix (angstroms):
                    1          2          3          4          5
     1  O    0.000000
     2  H    1.023647   0.000000
     3  O    2.471561   1.693203   0.000000
     4  H    2.793851   2.103252   0.979811   0.000000
     5  I    2.020868   2.702323   4.375518   4.636653   0.000000
 Stoichiometry    H2IO2(1-)
 Framework group  C1[X(H2IO2)]
 Deg. of freedom     9
 Full point group                 C1      NOp   1
 Largest Abelian subgroup         C1      NOp   1
 Largest concise Abelian subgroup C1      NOp   1
                         Standard orientation:                         
 ---------------------------------------------------------------------
 Center     Atomic      Atomic             Coordinates (Angstroms)
 Number     Number       Type             X           Y           Z
 ---------------------------------------------------------------------
      1          8           0       -1.152260    0.422547    0.011248
      2          1           0       -1.870519   -0.295965   -0.114045
      3          8           0       -3.556373   -0.138540   -0.107220
      4          1           0       -3.737309   -0.222548    0.852068
      5         53           0        0.816545   -0.033086    0.000561
 ---------------------------------------------------------------------
 Rotational constants (GHZ):    116.8031403      1.5622800      1.5500471
 Standard basis: LANL2DZ (5D, 7F)
 There are    30 symmetry adapted basis functions of A   symmetry.
 Integral buffers will be    262144 words long.
 Raffenetti 2 integral format.
 Two-electron integral symmetry is turned on.
    30 basis functions,    70 primitive gaussians,    30 cartesian basis functions
    13 alpha electrons       13 beta electrons
       nuclear repulsion energy        50.0324739918 Hartrees.
 NAtoms=    5 NActive=    5 NUniq=    5 SFac= 7.50D-01 NAtFMM=   80 NAOKFM=F Big=F
 ------------------------------------------------------------------------------
 Polarizable Continuum Model (PCM)
 =================================
 Model                : PCM.
 Atomic radii         : SMD-Coulomb.
 Polarization charges : Total charges.
 Charge compensation  : None.
 Solution method      : Matrix inversion.
 Cavity type          : VdW (van der Waals Surface) (Alpha=1.000).
 Cavity algorithm     : GePol (No added spheres)
                        Default sphere list used, NSphG=    5.
                        Lebedev-Laikov grids with approx.  5.0 points / Ang**2.
                        Smoothing algorithm: Karplus/York (Gamma=1.0000).
                        Polarization charges: spherical gaussians, with
                                              point-specific exponents (IZeta= 3).
                        Self-potential: point-specific (ISelfS= 7).
                        Self-field    : sphere-specific E.n sum rule (ISelfD= 2).
 1st derivatives      : Analytical E(r).r(x)/FMM algorithm (CHGder, D1EAlg=3).
                        Cavity 1st derivative terms included.
 Solvent              : Water, Eps=  78.355300 Eps(inf)=   1.777849
 ------------------------------------------------------------------------------
 Spheres list:
 ISph  on   Nord    Re0     Alpha      Xe            Ye            Ze
    1   O      1    1.520   1.000     -1.152260      0.422547      0.011248
    2   H      2    1.200   1.000     -1.870519     -0.295965     -0.114045
    3   O      3    1.520   1.000     -3.556373     -0.138540     -0.107220
    4   H      4    1.200   1.000     -3.737309     -0.222548      0.852068
    5   I      5    1.980   1.000      0.816545     -0.033086      0.000561
 ------------------------------------------------------------------------------
 ------------------------------------------------------------------------------
 Atomic radii for non-electrostatic terms: SMD-CDS.
 ------------------------------------------------------------------------------
 Nuclear repulsion after PCM non-electrostatic terms =       50.0341432547 Hartrees.
 One-electron integrals computed using PRISM.
   1 Symmetry operations used in ECPInt.
 ECPInt:  NShTT=     171 NPrTT=    1054 LenC2=     172 LenP2D=     908.
 LDataN:  DoStor=T MaxTD1= 4 Len=   56
 NBasis=    30 RedAO= T  NBF=    30
 NBsUse=    30 1.00D-06 NBFU=    30
 Defaulting to unpruned grid for atomic number  53.
 Initial guess read from the read-write file.
 B after Tr=     0.000000    0.000000    0.000000
         Rot=    1.000000    0.000000    0.000000    0.000000 Ang=   0.00 deg.
 Initial guess orbital symmetries:
       Occupied  (A) (A) (A) (A) (A) (A) (A) (A) (A) (A) (A) (A)
                 (A)
       Virtual   (A) (A) (A) (A) (A) (A) (A) (A) (A) (A) (A) (A)
                 (A) (A) (A) (A) (A)
 Requested convergence on RMS density matrix=1.00D-08 within 128 cycles.
 Requested convergence on MAX density matrix=1.00D-06.
 Requested convergence on             energy=1.00D-06.
 No special actions if energy rises.
 Keep R1 ints in memory in canonical form, NReq=3427999.
 Defaulting to unpruned grid for atomic number  53.
 Defaulting to unpruned grid for atomic number  53.
 Defaulting to unpruned grid for atomic number  53.
 Defaulting to unpruned grid for atomic number  53.
 Error on total polarization charges =  0.07496
 SCF Done:  E(RM062X) =  -163.005462073     A.U. after   10 cycles
             Convg  =    0.9402D-08             -V/T =  2.0584
 SMD-CDS (non-electrostatic) energy             (kcal/mol) =       1.05
 (included in total energy above)
   1 Symmetry operations used in ECPInt.
 ECPInt:  NShTT=     171 NPrTT=    1054 LenC2=     172 LenP2D=     908.
 LDataN:  DoStor=T MaxTD1= 5 Len=  102
 D1PCM: PCM CHGder 1st derivatives, ID1Alg=3 FixD1E=F DoIter=F DoCFld=F I1PDM=0.
 Calling FoFJK, ICntrl=      2127 FMM=F ISym2X=0 I1Cent= 0 IOpClX= 0 NMat=1 NMatS=1 NMatT=0.
 Defaulting to unpruned grid for atomic number  53.
 Defaulting to unpruned grid for atomic number  53.
 Defaulting to unpruned grid for atomic number  53.
 Defaulting to unpruned grid for atomic number  53.
 ***** Axes restored to original set *****
 -------------------------------------------------------------------
 Center     Atomic                   Forces (Hartrees/Bohr)
 Number     Number              X              Y              Z
 -------------------------------------------------------------------
      1        8          -0.005077886   -0.000397672    0.004037710
      2        1           0.015501506   -0.002616922    0.007511139
      3        8          -0.008762187    0.000475694   -0.008865992
      4        1           0.000955398    0.001864204    0.001065843
      5       53          -0.002616831    0.000674697   -0.003748700
 -------------------------------------------------------------------
 Cartesian Forces:  Max     0.015501506 RMS     0.005934623

 GradGradGradGradGradGradGradGradGradGradGradGradGradGradGradGradGradGrad
 Berny optimization.
 Internal  Forces:  Max     0.025872699 RMS     0.010347304
 Search for a saddle point.
 Step number   4 out of a maximum of   20
 All quantities printed in internal units (Hartrees-Bohrs-Radians)
 Swaping is turned off.
 Update second derivatives using D2CorX and points    1    2    3    4
 The second derivative matrix:
                          R1        R2        R3        R4        A1
           R1           0.26390
           R2           0.04614   0.18509
           R3           0.08722   0.02218   0.02795
           R4          -0.00102  -0.00430  -0.00892   0.59502
           A1           0.03739   0.03359   0.01068  -0.00894   0.08187
           A2           0.08309   0.07601   0.07020   0.00148   0.03522
           A3           0.01346   0.00657   0.01922   0.01397  -0.00172
           D1          -0.00072   0.00317   0.00764  -0.00251   0.00181
           D2          -0.01880  -0.00580  -0.00922   0.00649  -0.00696
                          A2        A3        D1        D2
           A2           0.19322
           A3          -0.00593   0.09661
           D1          -0.00173  -0.00328   0.01218
           D2          -0.02300   0.02362  -0.00064   0.01806
     Eigenvalues ---   -0.01660   0.00859   0.01459   0.06816   0.09699
     Eigenvalues ---    0.11952   0.18075   0.40596   0.59593
 Eigenvectors required to have negative eigenvalues:
                          R3        D1        A2        R1        A3
   1                    0.88377  -0.27827  -0.23667  -0.20630  -0.16864
                          D2        A1        R2        R4
   1                    0.09242   0.06305   0.04155   0.01605
 RFO step:  Lambda0=8.750204701D-03 Lambda=-7.45613476D-03.
 Linear search not attempted -- option 19 set.
 Maximum step size (   0.030) exceeded in Quadratic search.
    -- Step size scaled by   0.043
 Iteration  1 RMS(Cart)=  0.00991614 RMS(Int)=  0.00006915
 Iteration  2 RMS(Cart)=  0.00006325 RMS(Int)=  0.00000000
 Iteration  3 RMS(Cart)=  0.00000000 RMS(Int)=  0.00000000
 Variable       Old X    -DE/DX   Delta X   Delta X   Delta X     New X
                                 (Linear)    (Quad)   (Total)
    R1        1.93441   0.00479   0.00000  -0.00493  -0.00493   1.92948
    R2        3.81889   0.00306   0.00000   0.00086   0.00086   3.81975
    R3        3.19969  -0.00759   0.00000   0.02142   0.02142   3.22111
    R4        1.85157   0.00218   0.00000   0.00035   0.00035   1.85192
    A1        2.12314  -0.01403   0.00000  -0.00667  -0.00667   2.11647
    A2        2.25605   0.02587   0.00000   0.00158   0.00158   2.25763
    A3        1.75162   0.00100   0.00000  -0.00703  -0.00703   1.74459
    D1        3.11771   0.00098   0.00000  -0.01222  -0.01222   3.10549
    D2       -1.51313   0.00094   0.00000   0.01305   0.01305  -1.50008
         Item               Value     Threshold  Converged?
 Maximum Force            0.025873     0.000450     NO 
 RMS     Force            0.010347     0.000300     NO 
 Maximum Displacement     0.013862     0.001800     NO 
 RMS     Displacement     0.009928     0.001200     NO 
 Predicted change in Energy= 5.556618D-05
 GradGradGradGradGradGradGradGradGradGradGradGradGradGradGradGradGradGrad

                          Input orientation:                          
 ---------------------------------------------------------------------
 Center     Atomic      Atomic             Coordinates (Angstroms)
 Number     Number       Type             X           Y           Z
 ---------------------------------------------------------------------
      1          8           0       -1.424782    0.580142    0.615065
      2          1           0       -0.798825    0.751709   -0.173137
      3          8           0        0.904863    0.734349   -0.224028
      4          1           0        1.092098    1.655170    0.054221
      5         53           0       -3.430695    0.725286    0.412593
 ---------------------------------------------------------------------
                    Distance matrix (angstroms):
                    1          2          3          4          5
     1  O    0.000000
     2  H    1.021039   0.000000
     3  O    2.480948   1.704537   0.000000
     4  H    2.793728   2.107967   0.979995   0.000000
     5  I    2.021323   2.696389   4.382058   4.631282   0.000000
 Stoichiometry    H2IO2(1-)
 Framework group  C1[X(H2IO2)]
 Deg. of freedom     9
 Full point group                 C1      NOp   1
 Largest Abelian subgroup         C1      NOp   1
 Largest concise Abelian subgroup C1      NOp   1
                         Standard orientation:                         
 ---------------------------------------------------------------------
 Center     Atomic      Atomic             Coordinates (Angstroms)
 Number     Number       Type             X           Y           Z
 ---------------------------------------------------------------------
      1          8           0       -1.150638    0.428934    0.013766
      2          1           0       -1.864455   -0.287630   -0.125955
      3          8           0       -3.562470   -0.139849   -0.107290
      4          1           0       -3.730533   -0.237683    0.853217
      5         53           0        0.816978   -0.033724    0.000395
 ---------------------------------------------------------------------
 Rotational constants (GHZ):    113.9976508      1.5591127      1.5464786
 Standard basis: LANL2DZ (5D, 7F)
 There are    30 symmetry adapted basis functions of A   symmetry.
 Integral buffers will be    262144 words long.
 Raffenetti 2 integral format.
 Two-electron integral symmetry is turned on.
    30 basis functions,    70 primitive gaussians,    30 cartesian basis functions
    13 alpha electrons       13 beta electrons
       nuclear repulsion energy        49.9637985741 Hartrees.
 NAtoms=    5 NActive=    5 NUniq=    5 SFac= 7.50D-01 NAtFMM=   80 NAOKFM=F Big=F
 ------------------------------------------------------------------------------
 Polarizable Continuum Model (PCM)
 =================================
 Model                : PCM.
 Atomic radii         : SMD-Coulomb.
 Polarization charges : Total charges.
 Charge compensation  : None.
 Solution method      : Matrix inversion.
 Cavity type          : VdW (van der Waals Surface) (Alpha=1.000).
 Cavity algorithm     : GePol (No added spheres)
                        Default sphere list used, NSphG=    5.
                        Lebedev-Laikov grids with approx.  5.0 points / Ang**2.
                        Smoothing algorithm: Karplus/York (Gamma=1.0000).
                        Polarization charges: spherical gaussians, with
                                              point-specific exponents (IZeta= 3).
                        Self-potential: point-specific (ISelfS= 7).
                        Self-field    : sphere-specific E.n sum rule (ISelfD= 2).
 1st derivatives      : Analytical E(r).r(x)/FMM algorithm (CHGder, D1EAlg=3).
                        Cavity 1st derivative terms included.
 Solvent              : Water, Eps=  78.355300 Eps(inf)=   1.777849
 ------------------------------------------------------------------------------
 Spheres list:
 ISph  on   Nord    Re0     Alpha      Xe            Ye            Ze
    1   O      1    1.520   1.000     -1.150638      0.428934      0.013766
    2   H      2    1.200   1.000     -1.864455     -0.287630     -0.125955
    3   O      3    1.520   1.000     -3.562470     -0.139849     -0.107290
    4   H      4    1.200   1.000     -3.730533     -0.237683      0.853217
    5   I      5    1.980   1.000      0.816978     -0.033724      0.000395
 ------------------------------------------------------------------------------
 ------------------------------------------------------------------------------
 Atomic radii for non-electrostatic terms: SMD-CDS.
 ------------------------------------------------------------------------------
 Nuclear repulsion after PCM non-electrostatic terms =       49.9654669867 Hartrees.
 One-electron integrals computed using PRISM.
   1 Symmetry operations used in ECPInt.
 ECPInt:  NShTT=     171 NPrTT=    1054 LenC2=     172 LenP2D=     908.
 LDataN:  DoStor=T MaxTD1= 4 Len=   56
 NBasis=    30 RedAO= T  NBF=    30
 NBsUse=    30 1.00D-06 NBFU=    30
 Defaulting to unpruned grid for atomic number  53.
 Initial guess read from the read-write file.
 B after Tr=     0.000000    0.000000    0.000000
         Rot=    1.000000    0.000000    0.000000    0.000000 Ang=   0.00 deg.
 Initial guess orbital symmetries:
       Occupied  (A) (A) (A) (A) (A) (A) (A) (A) (A) (A) (A) (A)
                 (A)
       Virtual   (A) (A) (A) (A) (A) (A) (A) (A) (A) (A) (A) (A)
                 (A) (A) (A) (A) (A)
 Requested convergence on RMS density matrix=1.00D-08 within 128 cycles.
 Requested convergence on MAX density matrix=1.00D-06.
 Requested convergence on             energy=1.00D-06.
 No special actions if energy rises.
 Keep R1 ints in memory in canonical form, NReq=3430550.
 Defaulting to unpruned grid for atomic number  53.
 Defaulting to unpruned grid for atomic number  53.
 Defaulting to unpruned grid for atomic number  53.
 Defaulting to unpruned grid for atomic number  53.
 Error on total polarization charges =  0.07492
 SCF Done:  E(RM062X) =  -163.005404221     A.U. after   11 cycles
             Convg  =    0.2429D-08             -V/T =  2.0584
 SMD-CDS (non-electrostatic) energy             (kcal/mol) =       1.05
 (included in total energy above)
   1 Symmetry operations used in ECPInt.
 ECPInt:  NShTT=     171 NPrTT=    1054 LenC2=     172 LenP2D=     908.
 LDataN:  DoStor=T MaxTD1= 5 Len=  102
 D1PCM: PCM CHGder 1st derivatives, ID1Alg=3 FixD1E=F DoIter=F DoCFld=F I1PDM=0.
 Calling FoFJK, ICntrl=      2127 FMM=F ISym2X=0 I1Cent= 0 IOpClX= 0 NMat=1 NMatS=1 NMatT=0.
 Defaulting to unpruned grid for atomic number  53.
 Defaulting to unpruned grid for atomic number  53.
 Defaulting to unpruned grid for atomic number  53.
 Defaulting to unpruned grid for atomic number  53.
 ***** Axes restored to original set *****
 -------------------------------------------------------------------
 Center     Atomic                   Forces (Hartrees/Bohr)
 Number     Number              X              Y              Z
 -------------------------------------------------------------------
      1        8          -0.005375521   -0.000534010    0.004406178
      2        1           0.015592657   -0.002169512    0.006815208
      3        8          -0.008629094    0.000392518   -0.008621906
      4        1           0.000888071    0.001736040    0.001071042
      5       53          -0.002476113    0.000574964   -0.003670523
 -------------------------------------------------------------------
 Cartesian Forces:  Max     0.015592657 RMS     0.005869226

 GradGradGradGradGradGradGradGradGradGradGradGradGradGradGradGradGradGrad
 Berny optimization.
 Internal  Forces:  Max     0.025207974 RMS     0.010124219
 Search for a saddle point.
 Step number   5 out of a maximum of   20
 All quantities printed in internal units (Hartrees-Bohrs-Radians)
 Swaping is turned off.
 Update second derivatives using D2CorX and points    1    2    3    4    5
 The second derivative matrix:
                          R1        R2        R3        R4        A1
           R1           0.27169
           R2           0.04536   0.18510
           R3           0.07285   0.02208   0.02659
           R4          -0.00165  -0.00423  -0.00772   0.59507
           A1           0.04010   0.03392   0.01568  -0.00917   0.07929
           A2           0.08450   0.07558   0.06222   0.00137   0.03769
           A3           0.01831   0.00661   0.01981   0.01357  -0.00346
           D1           0.00796   0.00291   0.00295  -0.00323   0.00075
           D2          -0.02758  -0.00596  -0.01147   0.00722  -0.00341
                          A2        A3        D1        D2
           A2           0.19237
           A3          -0.00320   0.09637
           D1           0.00199  -0.00174   0.01726
           D2          -0.02815   0.02447  -0.00292   0.01569
     Eigenvalues ---   -0.00639   0.00403   0.01712   0.06452   0.09669
     Eigenvalues ---    0.11888   0.18277   0.40583   0.59598
 Eigenvectors required to have negative eigenvalues:
                          R3        D2        A3        A2        R1
   1                    0.88897   0.31768  -0.23458  -0.18682  -0.12860
                          D1        A1        R2        R4
   1                   -0.03042  -0.02547   0.02493   0.01259
 RFO step:  Lambda0=8.774300425D-03 Lambda=-1.15698849D-02.
 Linear search not attempted -- option 19 set.
 Maximum step size (   0.030) exceeded in Quadratic search.
    -- Step size scaled by   0.030
 Iteration  1 RMS(Cart)=  0.00916327 RMS(Int)=  0.00009779
 Iteration  2 RMS(Cart)=  0.00012342 RMS(Int)=  0.00000001
 Iteration  3 RMS(Cart)=  0.00000001 RMS(Int)=  0.00000000
 Variable       Old X    -DE/DX   Delta X   Delta X   Delta X     New X
                                 (Linear)    (Quad)   (Total)
    R1        1.92948   0.00525   0.00000  -0.00080  -0.00080   1.92868
    R2        3.81975   0.00292   0.00000  -0.00001  -0.00001   3.81974
    R3        3.22111  -0.00748   0.00000   0.01559   0.01559   3.23670
    R4        1.85192   0.00204   0.00000   0.00011   0.00011   1.85204
    A1        2.11647  -0.01369   0.00000  -0.00780  -0.00780   2.10867
    A2        2.25763   0.02521   0.00000   0.00325   0.00325   2.26088
    A3        1.74459   0.00098   0.00000  -0.00872  -0.00872   1.73587
    D1        3.10549   0.00119   0.00000   0.00112   0.00112   3.10661
    D2       -1.50008   0.00100   0.00000   0.02253   0.02253  -1.47755
         Item               Value     Threshold  Converged?
 Maximum Force            0.025208     0.000450     NO 
 RMS     Force            0.010124     0.000300     NO 
 Maximum Displacement     0.015687     0.001800     NO 
 RMS     Displacement     0.009178     0.001200     NO 
 Predicted change in Energy=-8.222302D-05
 GradGradGradGradGradGradGradGradGradGradGradGradGradGradGradGradGradGrad

                          Input orientation:                          
 ---------------------------------------------------------------------
 Center     Atomic      Atomic             Coordinates (Angstroms)
 Number     Number       Type             X           Y           Z
 ---------------------------------------------------------------------
      1          8           0       -1.424590    0.583612    0.621229
      2          1           0       -0.801787    0.748854   -0.170266
      3          8           0        0.909819    0.735068   -0.232329
      4          1           0        1.088893    1.653931    0.057723
      5         53           0       -3.429677    0.725191    0.408358
 ---------------------------------------------------------------------
                    Distance matrix (angstroms):
                    1          2          3          4          5
     1  O    0.000000
     2  H    1.020613   0.000000
     3  O    2.490173   1.712787   0.000000
     4  H    2.789394   2.108511   0.980055   0.000000
     5  I    2.021320   2.690942   4.386548   4.626336   0.000000
 Stoichiometry    H2IO2(1-)
 Framework group  C1[X(H2IO2)]
 Deg. of freedom     9
 Full point group                 C1      NOp   1
 Largest Abelian subgroup         C1      NOp   1
 Largest concise Abelian subgroup C1      NOp   1
                         Standard orientation:                         
 ---------------------------------------------------------------------
 Center     Atomic      Atomic             Coordinates (Angstroms)
 Number     Number       Type             X           Y           Z
 ---------------------------------------------------------------------
      1          8           0       -1.148564    0.436592    0.005278
      2          1           0       -1.859481   -0.285341   -0.117446
      3          8           0       -3.566689   -0.147786   -0.104886
      4          1           0       -3.725548   -0.202291    0.860672
      5         53           0        0.817114   -0.034393    0.001012
 ---------------------------------------------------------------------
 Rotational constants (GHZ):    110.7027932      1.5572812      1.5440836
 Standard basis: LANL2DZ (5D, 7F)
 There are    30 symmetry adapted basis functions of A   symmetry.
 Integral buffers will be    262144 words long.
 Raffenetti 2 integral format.
 Two-electron integral symmetry is turned on.
    30 basis functions,    70 primitive gaussians,    30 cartesian basis functions
    13 alpha electrons       13 beta electrons
       nuclear repulsion energy        49.9017521595 Hartrees.
 NAtoms=    5 NActive=    5 NUniq=    5 SFac= 7.50D-01 NAtFMM=   80 NAOKFM=F Big=F
 ------------------------------------------------------------------------------
 Polarizable Continuum Model (PCM)
 =================================
 Model                : PCM.
 Atomic radii         : SMD-Coulomb.
 Polarization charges : Total charges.
 Charge compensation  : None.
 Solution method      : Matrix inversion.
 Cavity type          : VdW (van der Waals Surface) (Alpha=1.000).
 Cavity algorithm     : GePol (No added spheres)
                        Default sphere list used, NSphG=    5.
                        Lebedev-Laikov grids with approx.  5.0 points / Ang**2.
                        Smoothing algorithm: Karplus/York (Gamma=1.0000).
                        Polarization charges: spherical gaussians, with
                                              point-specific exponents (IZeta= 3).
                        Self-potential: point-specific (ISelfS= 7).
                        Self-field    : sphere-specific E.n sum rule (ISelfD= 2).
 1st derivatives      : Analytical E(r).r(x)/FMM algorithm (CHGder, D1EAlg=3).
                        Cavity 1st derivative terms included.
 Solvent              : Water, Eps=  78.355300 Eps(inf)=   1.777849
 ------------------------------------------------------------------------------
 Spheres list:
 ISph  on   Nord    Re0     Alpha      Xe            Ye            Ze
    1   O      1    1.520   1.000     -1.148564      0.436592      0.005278
    2   H      2    1.200   1.000     -1.859481     -0.285341     -0.117446
    3   O      3    1.520   1.000     -3.566689     -0.147786     -0.104886
    4   H      4    1.200   1.000     -3.725548     -0.202291      0.860672
    5   I      5    1.980   1.000      0.817114     -0.034393      0.001012
 ------------------------------------------------------------------------------
 ------------------------------------------------------------------------------
 Atomic radii for non-electrostatic terms: SMD-CDS.
 ------------------------------------------------------------------------------
 Nuclear repulsion after PCM non-electrostatic terms =       49.9034139349 Hartrees.
 One-electron integrals computed using PRISM.
   1 Symmetry operations used in ECPInt.
 ECPInt:  NShTT=     171 NPrTT=    1054 LenC2=     172 LenP2D=     906.
 LDataN:  DoStor=T MaxTD1= 4 Len=   56
 NBasis=    30 RedAO= T  NBF=    30
 NBsUse=    30 1.00D-06 NBFU=    30
 Defaulting to unpruned grid for atomic number  53.
 Initial guess read from the read-write file.
 B after Tr=     0.000000    0.000000    0.000000
         Rot=    1.000000    0.000000    0.000000    0.000000 Ang=   0.00 deg.
 Initial guess orbital symmetries:
       Occupied  (A) (A) (A) (A) (A) (A) (A) (A) (A) (A) (A) (A)
                 (A)
       Virtual   (A) (A) (A) (A) (A) (A) (A) (A) (A) (A) (A) (A)
                 (A) (A) (A) (A) (A)
 Requested convergence on RMS density matrix=1.00D-08 within 128 cycles.
 Requested convergence on MAX density matrix=1.00D-06.
 Requested convergence on             energy=1.00D-06.
 No special actions if energy rises.
 Keep R1 ints in memory in canonical form, NReq=3429228.
 Defaulting to unpruned grid for atomic number  53.
 Defaulting to unpruned grid for atomic number  53.
 Defaulting to unpruned grid for atomic number  53.
 Defaulting to unpruned grid for atomic number  53.
 Error on total polarization charges =  0.07484
 SCF Done:  E(RM062X) =  -163.005489667     A.U. after   11 cycles
             Convg  =    0.3417D-08             -V/T =  2.0584
 SMD-CDS (non-electrostatic) energy             (kcal/mol) =       1.04
 (included in total energy above)
   1 Symmetry operations used in ECPInt.
 ECPInt:  NShTT=     171 NPrTT=    1054 LenC2=     172 LenP2D=     906.
 LDataN:  DoStor=T MaxTD1= 5 Len=  102
 D1PCM: PCM CHGder 1st derivatives, ID1Alg=3 FixD1E=F DoIter=F DoCFld=F I1PDM=0.
 Calling FoFJK, ICntrl=      2127 FMM=F ISym2X=0 I1Cent= 0 IOpClX= 0 NMat=1 NMatS=1 NMatT=0.
 Defaulting to unpruned grid for atomic number  53.
 Defaulting to unpruned grid for atomic number  53.
 Defaulting to unpruned grid for atomic number  53.
 Defaulting to unpruned grid for atomic number  53.
 ***** Axes restored to original set *****
 -------------------------------------------------------------------
 Center     Atomic                   Forces (Hartrees/Bohr)
 Number     Number              X              Y              Z
 -------------------------------------------------------------------
      1        8          -0.004929211   -0.000524313    0.003733985
      2        1           0.015273463   -0.002189465    0.007027083
      3        8          -0.008649317    0.000298422   -0.008345951
      4        1           0.000863621    0.001761288    0.001053977
      5       53          -0.002558556    0.000654067   -0.003469094
 -------------------------------------------------------------------
 Cartesian Forces:  Max     0.015273463 RMS     0.005741597

 GradGradGradGradGradGradGradGradGradGradGradGradGradGradGradGradGradGrad
 Berny optimization.
 Internal  Forces:  Max     0.024630085 RMS     0.009831130
 Search for a saddle point.
 Step number   6 out of a maximum of   20
 All quantities printed in internal units (Hartrees-Bohrs-Radians)
 Swaping is turned off.
 Update second derivatives using D2CorX and points    1    2    3    4    5
                                                      6
 The second derivative matrix:
                          R1        R2        R3        R4        A1
           R1           0.27012
           R2           0.04571   0.18495
           R3           0.08413   0.01827   0.02371
           R4          -0.00147  -0.00428  -0.00984   0.59505
           A1           0.03570   0.03548   0.01053  -0.00828   0.08428
           A2           0.08576   0.07481   0.06089   0.00105   0.03737
           A3           0.01320   0.00843   0.02185   0.01455  -0.00139
           D1           0.00605   0.00344   0.01118  -0.00293  -0.00207
           D2          -0.01543  -0.01020  -0.01037   0.00487  -0.01107
                          A2        A3        D1        D2
           A2           0.19107
           A3          -0.00229   0.09509
           D1           0.00317  -0.00561   0.01532
           D2          -0.02909   0.02471   0.00583   0.02193
     Eigenvalues ---   -0.01744   0.00859   0.02072   0.06975   0.09657
     Eigenvalues ---    0.11822   0.18328   0.40584   0.59599
 Eigenvectors required to have negative eigenvalues:
                          R3        D1        D2        A3        R1
   1                    0.85196  -0.32306   0.24099  -0.22117  -0.18327
                          A2        R2        A1        R4
   1                   -0.15998   0.04424   0.03742   0.01613
 RFO step:  Lambda0=5.901457181D-03 Lambda=-9.30924454D-03.
 Linear search not attempted -- option 19 set.
 Maximum step size (   0.030) exceeded in Quadratic search.
    -- Step size scaled by   0.041
 Iteration  1 RMS(Cart)=  0.01259639 RMS(Int)=  0.00010536
 Iteration  2 RMS(Cart)=  0.00011442 RMS(Int)=  0.00000001
 Iteration  3 RMS(Cart)=  0.00000001 RMS(Int)=  0.00000000
 Variable       Old X    -DE/DX   Delta X   Delta X   Delta X     New X
                                 (Linear)    (Quad)   (Total)
    R1        1.92868   0.00461   0.00000  -0.00253  -0.00253   1.92615
    R2        3.81974   0.00301   0.00000   0.00067   0.00067   3.82041
    R3        3.23670  -0.00749   0.00000   0.01209   0.01209   3.24879
    R4        1.85204   0.00207   0.00000   0.00020   0.00020   1.85224
    A1        2.10867  -0.01305   0.00000  -0.00698  -0.00698   2.10169
    A2        2.26088   0.02463   0.00000   0.00621   0.00621   2.26709
    A3        1.73587   0.00092   0.00000  -0.00787  -0.00787   1.72799
    D1        3.10661   0.00080   0.00000  -0.01542  -0.01542   3.09119
    D2       -1.47755   0.00088   0.00000   0.01897   0.01897  -1.45858
         Item               Value     Threshold  Converged?
 Maximum Force            0.024630     0.000450     NO 
 RMS     Force            0.009831     0.000300     NO 
 Maximum Displacement     0.017846     0.001800     NO 
 RMS     Displacement     0.012610     0.001200     NO 
 Predicted change in Energy=-1.391963D-04
 GradGradGradGradGradGradGradGradGradGradGradGradGradGradGradGradGradGrad

                          Input orientation:                          
 ---------------------------------------------------------------------
 Center     Atomic      Atomic             Coordinates (Angstroms)
 Number     Number       Type             X           Y           Z
 ---------------------------------------------------------------------
      1          8           0       -1.423731    0.578037    0.625904
      2          1           0       -0.802812    0.739411   -0.166141
      3          8           0        0.914837    0.738444   -0.238777
      4          1           0        1.081548    1.657124    0.059472
      5         53           0       -3.427185    0.733641    0.404257
 ---------------------------------------------------------------------
                    Distance matrix (angstroms):
                    1          2          3          4          5
     1  O    0.000000
     2  H    1.019272   0.000000
     3  O    2.498460   1.719184   0.000000
     4  H    2.785982   2.108058   0.980162   0.000000
     5  I    2.021675   2.685651   4.389382   4.615232   0.000000
 Stoichiometry    H2IO2(1-)
 Framework group  C1[X(H2IO2)]
 Deg. of freedom     9
 Full point group                 C1      NOp   1
 Largest Abelian subgroup         C1      NOp   1
 Largest concise Abelian subgroup C1      NOp   1
                         Standard orientation:                         
 ---------------------------------------------------------------------
 Center     Atomic      Atomic             Coordinates (Angstroms)
 Number     Number       Type             X           Y           Z
 ---------------------------------------------------------------------
      1          8           0       -1.146405    0.446770    0.007336
      2          1           0       -1.854975   -0.272822   -0.130627
      3          8           0       -3.569658   -0.151225   -0.104703
      4          1           0       -3.713518   -0.216623    0.862636
      5         53           0        0.816924   -0.035376    0.000886
 ---------------------------------------------------------------------
 Rotational constants (GHZ):    106.6251991      1.5566801      1.5427308
 Standard basis: LANL2DZ (5D, 7F)
 There are    30 symmetry adapted basis functions of A   symmetry.
 Integral buffers will be    262144 words long.
 Raffenetti 2 integral format.
 Two-electron integral symmetry is turned on.
    30 basis functions,    70 primitive gaussians,    30 cartesian basis functions
    13 alpha electrons       13 beta electrons
       nuclear repulsion energy        49.8520456451 Hartrees.
 NAtoms=    5 NActive=    5 NUniq=    5 SFac= 7.50D-01 NAtFMM=   80 NAOKFM=F Big=F
 ------------------------------------------------------------------------------
 Polarizable Continuum Model (PCM)
 =================================
 Model                : PCM.
 Atomic radii         : SMD-Coulomb.
 Polarization charges : Total charges.
 Charge compensation  : None.
 Solution method      : Matrix inversion.
 Cavity type          : VdW (van der Waals Surface) (Alpha=1.000).
 Cavity algorithm     : GePol (No added spheres)
                        Default sphere list used, NSphG=    5.
                        Lebedev-Laikov grids with approx.  5.0 points / Ang**2.
                        Smoothing algorithm: Karplus/York (Gamma=1.0000).
                        Polarization charges: spherical gaussians, with
                                              point-specific exponents (IZeta= 3).
                        Self-potential: point-specific (ISelfS= 7).
                        Self-field    : sphere-specific E.n sum rule (ISelfD= 2).
 1st derivatives      : Analytical E(r).r(x)/FMM algorithm (CHGder, D1EAlg=3).
                        Cavity 1st derivative terms included.
 Solvent              : Water, Eps=  78.355300 Eps(inf)=   1.777849
 ------------------------------------------------------------------------------
 Spheres list:
 ISph  on   Nord    Re0     Alpha      Xe            Ye            Ze
    1   O      1    1.520   1.000     -1.146405      0.446770      0.007336
    2   H      2    1.200   1.000     -1.854975     -0.272822     -0.130627
    3   O      3    1.520   1.000     -3.569658     -0.151225     -0.104703
    4   H      4    1.200   1.000     -3.713518     -0.216623      0.862636
[...]
   1                    0.03057   0.02031   0.01105   0.00588
 RFO step:  Lambda0=1.004913099D-02 Lambda=-2.57027926D-03.
 Linear search not attempted -- option 19 set.
 Maximum step size (   0.030) exceeded in Quadratic search.
    -- Step size scaled by   0.037
 Iteration  1 RMS(Cart)=  0.00689217 RMS(Int)=  0.00003702
 Iteration  2 RMS(Cart)=  0.00002813 RMS(Int)=  0.00000000
 Iteration  3 RMS(Cart)=  0.00000000 RMS(Int)=  0.00000000
 Variable       Old X    -DE/DX   Delta X   Delta X   Delta X     New X
                                 (Linear)    (Quad)   (Total)
    R1        1.89366   0.00385   0.00000  -0.00235  -0.00235   1.89131
    R2        3.83250   0.00167   0.00000   0.00098   0.00098   3.83349
    R3        3.55447  -0.00761   0.00000   0.02709   0.02709   3.58157
    R4        1.85489   0.00099   0.00000   0.00016   0.00016   1.85505
    A1        2.03082  -0.00843   0.00000  -0.00422  -0.00422   2.02660
    A2        2.25113   0.01642   0.00000  -0.00551  -0.00551   2.24563
    A3        1.61868   0.00077   0.00000  -0.01054  -0.01054   1.60815
    D1        3.04618   0.00074   0.00000  -0.00046  -0.00046   3.04572
    D2       -1.36984   0.00087   0.00000   0.00019   0.00019  -1.36965
         Item               Value     Threshold  Converged?
 Maximum Force            0.016422     0.000450     NO 
 RMS     Force            0.006825     0.000300     NO 
 Maximum Displacement     0.017229     0.001800     NO 
 RMS     Displacement     0.006891     0.001200     NO 
 Predicted change in Energy= 2.756799D-04
 GradGradGradGradGradGradGradGradGradGradGradGradGradGradGradGradGradGrad

                          Input orientation:                          
 ---------------------------------------------------------------------
 Center     Atomic      Atomic             Coordinates (Angstroms)
 Number     Number       Type             X           Y           Z
 ---------------------------------------------------------------------
      1          8           0       -1.436628    0.563313    0.657979
      2          1           0       -0.867305    0.705511   -0.152776
      3          8           0        1.023226    0.750932   -0.278975
      4          1           0        1.061183    1.667993    0.069155
      5         53           0       -3.437818    0.758907    0.389331
 ---------------------------------------------------------------------
                    Distance matrix (angstroms):
                    1          2          3          4          5
     1  O    0.000000
     2  H    1.000836   0.000000
     3  O    2.638933   1.895283   0.000000
     4  H    2.793939   2.166724   0.981650   0.000000
     5  I    2.028593   2.627598   4.510833   4.601083   0.000000
 Stoichiometry    H2IO2(1-)
 Framework group  C1[X(H2IO2)]
 Deg. of freedom     9
 Full point group                 C1      NOp   1
 Largest Abelian subgroup         C1      NOp   1
 Largest concise Abelian subgroup C1      NOp   1
                         Standard orientation:                         
 ---------------------------------------------------------------------
 Center     Atomic      Atomic             Coordinates (Angstroms)
 Number     Number       Type             X           Y           Z
 ---------------------------------------------------------------------
      1          8           0       -1.127763    0.495453    0.003384
      2          1           0       -1.786081   -0.239634   -0.163765
      3          8           0       -3.679045   -0.171088   -0.099835
      4          1           0       -3.684121   -0.212387    0.880933
      5         53           0        0.828767   -0.040432    0.001027
 ---------------------------------------------------------------------
 Rotational constants (GHZ):     89.7251004      1.4923672      1.4759386
 Standard basis: LANL2DZ (5D, 7F)
 There are    30 symmetry adapted basis functions of A   symmetry.
 Integral buffers will be    262144 words long.
 Raffenetti 2 integral format.
 Two-electron integral symmetry is turned on.
    30 basis functions,    70 primitive gaussians,    30 cartesian basis functions
    13 alpha electrons       13 beta electrons
       nuclear repulsion energy        48.7617043242 Hartrees.
 NAtoms=    5 NActive=    5 NUniq=    5 SFac= 7.50D-01 NAtFMM=   80 NAOKFM=F Big=F
 ------------------------------------------------------------------------------
 Polarizable Continuum Model (PCM)
 =================================
 Model                : PCM.
 Atomic radii         : SMD-Coulomb.
 Polarization charges : Total charges.
 Charge compensation  : None.
 Solution method      : Matrix inversion.
 Cavity type          : VdW (van der Waals Surface) (Alpha=1.000).
 Cavity algorithm     : GePol (No added spheres)
                        Default sphere list used, NSphG=    5.
                        Lebedev-Laikov grids with approx.  5.0 points / Ang**2.
                        Smoothing algorithm: Karplus/York (Gamma=1.0000).
                        Polarization charges: spherical gaussians, with
                                              point-specific exponents (IZeta= 3).
                        Self-potential: point-specific (ISelfS= 7).
                        Self-field    : sphere-specific E.n sum rule (ISelfD= 2).
 1st derivatives      : Analytical E(r).r(x)/FMM algorithm (CHGder, D1EAlg=3).
                        Cavity 1st derivative terms included.
 Solvent              : Water, Eps=  78.355300 Eps(inf)=   1.777849
 ------------------------------------------------------------------------------
 Spheres list:
 ISph  on   Nord    Re0     Alpha      Xe            Ye            Ze
    1   O      1    1.520   1.000     -1.127763      0.495453      0.003384
    2   H      2    1.200   1.000     -1.786081     -0.239634     -0.163765
    3   O      3    1.520   1.000     -3.679045     -0.171088     -0.099835
    4   H      4    1.200   1.000     -3.684121     -0.212387      0.880933
    5   I      5    1.980   1.000      0.828767     -0.040432      0.001027
 ------------------------------------------------------------------------------
 ------------------------------------------------------------------------------
 Atomic radii for non-electrostatic terms: SMD-CDS.
 ------------------------------------------------------------------------------
 Nuclear repulsion after PCM non-electrostatic terms =       48.7633481010 Hartrees.
 One-electron integrals computed using PRISM.
   1 Symmetry operations used in ECPInt.
 ECPInt:  NShTT=     171 NPrTT=    1054 LenC2=     172 LenP2D=     895.
 LDataN:  DoStor=T MaxTD1= 4 Len=   56
 NBasis=    30 RedAO= T  NBF=    30
 NBsUse=    30 1.00D-06 NBFU=    30
 Defaulting to unpruned grid for atomic number  53.
 Initial guess read from the read-write file.
 B after Tr=     0.000000    0.000000    0.000000
         Rot=    1.000000    0.000000    0.000000    0.000000 Ang=   0.00 deg.
 Initial guess orbital symmetries:
       Occupied  (A) (A) (A) (A) (A) (A) (A) (A) (A) (A) (A) (A)
                 (A)
       Virtual   (A) (A) (A) (A) (A) (A) (A) (A) (A) (A) (A) (A)
                 (A) (A) (A) (A) (A)
 Requested convergence on RMS density matrix=1.00D-08 within 128 cycles.
 Requested convergence on MAX density matrix=1.00D-06.
 Requested convergence on             energy=1.00D-06.
 No special actions if energy rises.
 Keep R1 ints in memory in canonical form, NReq=3453917.
 Defaulting to unpruned grid for atomic number  53.
 Defaulting to unpruned grid for atomic number  53.
 Defaulting to unpruned grid for atomic number  53.
 Defaulting to unpruned grid for atomic number  53.
 Error on total polarization charges =  0.07415
 SCF Done:  E(RM062X) =  -163.003394530     A.U. after   10 cycles
             Convg  =    0.2567D-08             -V/T =  2.0585
 SMD-CDS (non-electrostatic) energy             (kcal/mol) =       1.03
 (included in total energy above)
   1 Symmetry operations used in ECPInt.
 ECPInt:  NShTT=     171 NPrTT=    1054 LenC2=     172 LenP2D=     895.
 LDataN:  DoStor=T MaxTD1= 5 Len=  102
 D1PCM: PCM CHGder 1st derivatives, ID1Alg=3 FixD1E=F DoIter=F DoCFld=F I1PDM=0.
 Calling FoFJK, ICntrl=      2127 FMM=F ISym2X=0 I1Cent= 0 IOpClX= 0 NMat=1 NMatS=1 NMatT=0.
 Defaulting to unpruned grid for atomic number  53.
 Defaulting to unpruned grid for atomic number  53.
 Defaulting to unpruned grid for atomic number  53.
 Defaulting to unpruned grid for atomic number  53.
 ***** Axes restored to original set *****
 -------------------------------------------------------------------
 Center     Atomic                   Forces (Hartrees/Bohr)
 Number     Number              X              Y              Z
 -------------------------------------------------------------------
      1        8          -0.004338084   -0.000660006    0.003121155
      2        1           0.013484024   -0.000484801    0.002895480
      3        8          -0.008386400    0.000102347   -0.004622745
      4        1           0.000485382    0.000744359    0.000894953
      5       53          -0.001244921    0.000298100   -0.002288844
 -------------------------------------------------------------------
 Cartesian Forces:  Max     0.013484024 RMS     0.004616016

 GradGradGradGradGradGradGradGradGradGradGradGradGradGradGradGradGradGrad
 Berny optimization.
 Internal  Forces:  Max     0.015915817 RMS     0.006651107
 Search for a saddle point.
 Step number  20 out of a maximum of   20
 All quantities printed in internal units (Hartrees-Bohrs-Radians)
 Swaping is turned off.
 Update second derivatives using D2CorX and points   11   12   13   14   15
                                                     16   17   18   19   20
 The second derivative matrix:
                          R1        R2        R3        R4        A1
           R1           0.30587
           R2           0.04121   0.18544
           R3           0.05424   0.02358   0.03070
           R4          -0.00344  -0.00397   0.00021   0.59458
           A1           0.03157   0.03710   0.01158  -0.00946   0.08850
           A2           0.08515   0.07155   0.06409  -0.00064   0.03948
           A3           0.02301   0.00736   0.03243   0.01011  -0.00373
           D1           0.00943   0.00437   0.00311  -0.00405  -0.00021
           D2          -0.02368  -0.01240  -0.00388   0.00592  -0.01108
                          A2        A3        D1        D2
           A2           0.17676
           A3          -0.00485   0.08511
           D1           0.00876  -0.00155   0.02522
           D2          -0.03793   0.02078   0.00211   0.02504
     Eigenvalues ---   -0.00602   0.00956   0.02580   0.07107   0.09561
     Eigenvalues ---    0.11616   0.19884   0.41094   0.59524
 Eigenvectors required to have negative eigenvalues:
                          R3        A2        A3        D2        R1
   1                    0.88491  -0.33302  -0.29043  -0.13153  -0.05682
                          R2        D1        A1        R4
   1                    0.02772   0.01381   0.01253   0.00568
 RFO step:  Lambda0=9.976314612D-03 Lambda=-2.50922252D-03.
 Linear search not attempted -- option 19 set.
 Maximum step size (   0.030) exceeded in Quadratic search.
    -- Step size scaled by   0.036
 Iteration  1 RMS(Cart)=  0.00697367 RMS(Int)=  0.00004273
 Iteration  2 RMS(Cart)=  0.00003240 RMS(Int)=  0.00000000
 Iteration  3 RMS(Cart)=  0.00000000 RMS(Int)=  0.00000000
 Variable       Old X    -DE/DX   Delta X   Delta X   Delta X     New X
                                 (Linear)    (Quad)   (Total)
    R1        1.89131   0.00391   0.00000  -0.00145  -0.00145   1.88985
    R2        3.83349   0.00158   0.00000   0.00089   0.00089   3.83437
    R3        3.58157  -0.00759   0.00000   0.02677   0.02677   3.60833
    R4        1.85505   0.00095   0.00000   0.00015   0.00015   1.85520
    A1        2.02660  -0.00816   0.00000  -0.00428  -0.00428   2.02232
    A2        2.24563   0.01592   0.00000  -0.00573  -0.00573   2.23989
    A3        1.60815   0.00079   0.00000  -0.01129  -0.01129   1.59685
    D1        3.04572   0.00072   0.00000  -0.00046  -0.00046   3.04526
    D2       -1.36965   0.00089   0.00000   0.00129   0.00129  -1.36836
         Item               Value     Threshold  Converged?
 Maximum Force            0.015916     0.000450     NO 
 RMS     Force            0.006651     0.000300     NO 
 Maximum Displacement     0.017472     0.001800     NO 
 RMS     Displacement     0.006973     0.001200     NO 
 Predicted change in Energy= 2.709629D-04
 Optimization stopped.
    -- Number of steps exceeded,  NStep=  20
    -- Flag reset to prevent archiving.
                           ----------------------------
                           ! Non-Optimized Parameters !
                           ! (Angstroms and Degrees)  !
 --------------------------                            --------------------------
 ! Name  Definition              Value          Derivative Info.                !
 --------------------------------------------------------------------------------
 ! R1    R(1,2)                  1.0001         -DE/DX =    0.0039              !
 ! R2    R(1,5)                  2.0291         -DE/DX =    0.0016              !
 ! R3    R(2,3)                  1.9094         -DE/DX =   -0.0076              !
 ! R4    R(3,4)                  0.9817         -DE/DX =    0.0009              !
 ! A1    A(2,1,5)              115.8704         -DE/DX =   -0.0082              !
 ! A2    A(1,2,3)              128.3365         -DE/DX =    0.0159              !
 ! A3    A(2,3,4)               91.493          -DE/DX =    0.0008              !
 ! D1    D(5,1,2,3)            174.4804         -DE/DX =    0.0007              !
 ! D2    D(1,2,3,4)            -78.4013         -DE/DX =    0.0009              !
 --------------------------------------------------------------------------------
 GradGradGradGradGradGradGradGradGradGradGradGradGradGradGradGradGradGrad

                          Input orientation:                          
 ---------------------------------------------------------------------
 Center     Atomic      Atomic             Coordinates (Angstroms)
 Number     Number       Type             X           Y           Z
 ---------------------------------------------------------------------
      1          8           0       -1.436628    0.563313    0.657979
      2          1           0       -0.867305    0.705511   -0.152776
      3          8           0        1.023226    0.750932   -0.278975
      4          1           0        1.061183    1.667993    0.069155
      5         53           0       -3.437818    0.758907    0.389331
 ---------------------------------------------------------------------
                    Distance matrix (angstroms):
                    1          2          3          4          5
     1  O    0.000000
     2  H    1.000836   0.000000
     3  O    2.638933   1.895283   0.000000
     4  H    2.793939   2.166724   0.981650   0.000000
     5  I    2.028593   2.627598   4.510833   4.601083   0.000000
 Stoichiometry    H2IO2(1-)
 Framework group  C1[X(H2IO2)]
 Deg. of freedom     9
 Full point group                 C1      NOp   1
 Largest Abelian subgroup         C1      NOp   1
 Largest concise Abelian subgroup C1      NOp   1
                         Standard orientation:                         
 ---------------------------------------------------------------------
 Center     Atomic      Atomic             Coordinates (Angstroms)
 Number     Number       Type             X           Y           Z
 ---------------------------------------------------------------------
      1          8           0       -1.127763    0.495453    0.003384
      2          1           0       -1.786081   -0.239634   -0.163765
      3          8           0       -3.679045   -0.171088   -0.099835
      4          1           0       -3.684121   -0.212387    0.880933
      5         53           0        0.828767   -0.040432    0.001027
 ---------------------------------------------------------------------
 Rotational constants (GHZ):     89.7251004      1.4923672      1.4759386

 **********************************************************************

            Population analysis using the SCF density.

 **********************************************************************

 Orbital symmetries:
       Occupied  (A) (A) (A) (A) (A) (A) (A) (A) (A) (A) (A) (A)
                 (A)
       Virtual   (A) (A) (A) (A) (A) (A) (A) (A) (A) (A) (A) (A)
                 (A) (A) (A) (A) (A)
 The electronic state is 1-A.
 Alpha  occ. eigenvalues --  -19.64036 -19.52001  -1.09588  -0.96236  -0.73372
 Alpha  occ. eigenvalues --   -0.53079  -0.42183  -0.41896  -0.40568  -0.30580
 Alpha  occ. eigenvalues --   -0.29250  -0.28382  -0.27857
 Alpha virt. eigenvalues --   -0.03852   0.19179   0.25908   0.42163   0.42686
 Alpha virt. eigenvalues --    0.43553   0.68670   0.69954   0.75460   0.79440
 Alpha virt. eigenvalues --    0.82345   0.91798   1.02513   1.11926   1.43628
 Alpha virt. eigenvalues --    1.57271   9.33791
          Condensed to atoms (all electrons):
              1          2          3          4          5
     1  O    8.712679   0.208680  -0.035572   0.002543   0.021664
     2  H    0.208680   0.293910   0.076692  -0.007060  -0.014223
     3  O   -0.035572   0.076692   8.886171   0.270678   0.003624
     4  H    0.002543  -0.007060   0.270678   0.408651  -0.000063
     5  I    0.021664  -0.014223   0.003624  -0.000063   6.644664
 Mulliken atomic charges:
              1
     1  O   -0.909993
     2  H    0.442001
     3  O   -1.201593
     4  H    0.325251
     5  I    0.344335
 Sum of Mulliken atomic charges =  -1.00000
 Mulliken charges with hydrogens summed into heavy atoms:
              1
     1  O   -0.467993
     3  O   -0.876342
     5  I    0.344335
 Sum of Mulliken charges with hydrogens summed into heavy atoms =  -1.00000
 Electronic spatial extent (au):  <R**2>=            629.2313
 Charge=             -1.0000 electrons
 Dipole moment (field-independent basis, Debye):
    X=             16.6285    Y=             -2.0506    Z=              2.0933  Tot=             16.8847
 Quadrupole moment (field-independent basis, Debye-Ang):
   XX=            -87.8791   YY=            -36.6694   ZZ=            -33.8587
   XY=              0.3897   XZ=             -8.5467   YZ=             -0.4176
 Traceless Quadrupole moment (field-independent basis, Debye-Ang):
   XX=            -35.0767   YY=             16.1330   ZZ=             18.9437
   XY=              0.3897   XZ=             -8.5467   YZ=             -0.4176
 Octapole moment (field-independent basis, Debye-Ang**2):
  XXX=            279.0017  YYY=             -3.1198  ZZZ=              2.1667  XYY=             22.5996
  XXY=              1.0212  XXZ=             33.6357  XZZ=             13.1331  YZZ=             -1.3074
  YYZ=              0.5944  XYZ=              1.8073
 Hexadecapole moment (field-independent basis, Debye-Ang**3):
 XXXX=          -1587.5444 YYYY=            -61.4043 ZZZZ=            -50.9188 XXXY=            -34.2327
 XXXZ=           -130.0487 YYYX=             -3.4166 YYYZ=             -0.2195 ZZZX=             -8.1383
 ZZZY=             -0.4529 XXYY=           -153.5844 XXZZ=           -122.7935 YYZZ=            -18.8732
 XXYZ=             -7.0341 YYXZ=             -2.1361 ZZXY=              0.1813
 N-N= 4.876334810101D+01 E-N=-4.849067137543D+02  KE= 1.539901840952D+02


 ... A MOLECULAR SYSTEM ... (PASSES) ... FROM ONE STATE OF EQUILIBRIUM 
 TO ANOTHER ... BY MEANS OF ALL POSSIBLE INTERMEDIATE PATHS, 
 BUT THE PATH MOST ECONOMICAL OF ENERGY WILL BE THE MORE OFTEN TRAVELED.

                      -- HENRY EYRING, 1945
 Error termination request processed by link 9999.
 Error termination via Lnk1e in C:\G09W\l9999.exe at Tue Feb 02 03:40:32 2021.
 Job cpu time:  0 days  0 hours  1 minutes 52.0 seconds.
 File lengths (MBytes):  RWF=     18 Int=      0 D2E=      0 Chk=      2 Scr=      1
