 Entering Link 1 = C:\G09W\l1.exe PID=      5208.
  
 Copyright (c) 1988,1990,1992,1993,1995,1998,2003,2009, Gaussian, Inc.
                  All Rights Reserved.
  
 This is part of the Gaussian(R) 09 program.  It is based on
 the Gaussian(R) 03 system (copyright 2003, Gaussian, Inc.),
 the Gaussian(R) 98 system (copyright 1998, Gaussian, Inc.),
 the Gaussian(R) 94 system (copyright 1995, Gaussian, Inc.),
 the Gaussian 92(TM) system (copyright 1992, Gaussian, Inc.),
 the Gaussian 90(TM) system (copyright 1990, Gaussian, Inc.),
 the Gaussian 88(TM) system (copyright 1988, Gaussian, Inc.),
 the Gaussian 86(TM) system (copyright 1986, Carnegie Mellon
 University), and the Gaussian 82(TM) system (copyright 1983,
 Carnegie Mellon University). Gaussian is a federally registered
 trademark of Gaussian, Inc.
  
 This software contains proprietary and confidential information,
 including trade secrets, belonging to Gaussian, Inc.
  
 This software is provided under written license and may be
 used, copied, transmitted, or stored only in accord with that
 written license.
  
 The following legend is applicable only to US Government
 contracts under FAR:
  
                    RESTRICTED RIGHTS LEGEND
  
 Use, reproduction and disclosure by the US Government is
 subject to restrictions as set forth in subparagraphs (a)
 and (c) of the Commercial Computer Software - Restricted
 Rights clause in FAR 52.227-19.
  
 Gaussian, Inc.
 340 Quinnipiac St., Bldg. 40, Wallingford CT 06492
  
  
 ---------------------------------------------------------------
 Warning -- This program may not be used in any manner that
 competes with the business of Gaussian, Inc. or will provide
 assistance to any competitor of Gaussian, Inc.  The licensee
 of this program is prohibited from giving any competitor of
 Gaussian, Inc. access to this program.  By using this program,
 the user acknowledges that Gaussian, Inc. is engaged in the
 business of creating and licensing software in the field of
 computational chemistry and represents and warrants to the
 licensee that it is not a competitor of Gaussian, Inc. and that
 it will not use this program in any manner prohibited above.
 ---------------------------------------------------------------
  

 Cite this work as:
 Gaussian 09, Revision A.02,
 M. J. Frisch, G. W. Trucks, H. B. Schlegel, G. E. Scuseria, 
 M. A. Robb, J. R. Cheeseman, G. Scalmani, V. Barone, B. Mennucci, 
 G. A. Petersson, H. Nakatsuji, M. Caricato, X. Li, H. P. Hratchian, 
 A. F. Izmaylov, J. Bloino, G. Zheng, J. L. Sonnenberg, M. Hada, 
 M. Ehara, K. Toyota, R. Fukuda, J. Hasegawa, M. Ishida, T. Nakajima, 
 Y. Honda, O. Kitao, H. Nakai, T. Vreven, J. A. Montgomery, Jr., 
 J. E. Peralta, F. Ogliaro, M. Bearpark, J. J. Heyd, E. Brothers, 
 K. N. Kudin, V. N. Staroverov, R. Kobayashi, J. Normand, 
 K. Raghavachari, A. Rendell, J. C. Burant, S. S. Iyengar, J. Tomasi, 
 M. Cossi, N. Rega, J. M. Millam, M. Klene, J. E. Knox, J. B. Cross, 
 V. Bakken, C. Adamo, J. Jaramillo, R. Gomperts, R. E. Stratmann, 
 O. Yazyev, A. J. Austin, R. Cammi, C. Pomelli, J. W. Ochterski, 
 R. L. Martin, K. Morokuma, V. G. Zakrzewski, G. A. Voth, 
 P. Salvador, J. J. Dannenberg, S. Dapprich, A. D. Daniels, 
 O. Farkas, J. B. Foresman, J. V. Ortiz, J. Cioslowski, 
 and D. J. Fox, Gaussian, Inc., Wallingford CT, 2009.
 
 ******************************************
 Gaussian 09:  IA32W-G09RevA.02 11-Jun-2009
                02-Feb-2021 
 ******************************************
 %chk=D:\Documents\rayGit\FQ\quimicaComputacional\proyecto\decompositionHydrogenP
 eroxide\decompositionCatalyzedByIodine\step1\ts\ts.chk
 %mem=1500MB
 %nprocshared=4
 Will use up to    4 processors via shared memory.
 ----------------------------------------------------------------------
 # opt=(readfc,ts,noeigen) geom=check guess=check freq=noraman lanl2dz 
 scrf=smd iop(1/8=3) m062x
 ----------------------------------------------------------------------
 1/5=1,8=3,10=3,11=1,14=-1,18=20,26=3,29=2,38=1/1,3;
 2/9=110,12=2,40=1/2;
 3/5=6,6=3,11=2,14=-4,16=1,25=1,30=1,70=32201,71=1,72=1,74=-55,116=-2/1,2,3;
 4/5=1/1;
 5/5=2,38=6/2;
 6/7=2,8=2,9=2,10=2,28=1/1;
 7//1,2,3,16;
 1/5=1,8=3,11=1,14=-1,18=20/3(2);
 2/9=110/2;
 99//99;
 2/9=110/2;
 3/5=6,6=3,11=2,14=-2,16=1,25=1,30=1,70=32205,71=1,74=-55/1,2,3;
 4/5=5,16=3/1;
 5/5=2,38=5/2;
 7//1,2,3,16;
 1/5=1,8=3,11=1,14=-1,18=20/3(-5);
 2/9=110/2;
 6/7=2,8=2,9=2,10=2,19=2,28=1/1;
 99/9=1/99;
 -------------------------------
 Hydrogen peroxide with iodine 5
 -------------------------------
 Redundant internal coordinates taken from checkpoint file:
 D:\Documents\rayGit\FQ\quimicaComputacional\proyecto\decompositionHydrogenPeroxide\decompositionCatalyzedByIodine\step1\ts\ts.chk
 Charge = -1 Multiplicity = 1
 O,0,-1.4366282518,0.5633129949,0.6579792373
 H,0,-0.8673048748,0.7055113137,-0.1527756257
 O,0,1.0232261084,0.7509319113,-0.2789746129
 H,0,1.0611833608,1.667993434,0.0691549899
 I,0,-3.4378183426,0.7589070761,0.3893308614
 Recover connectivity data from disk.

 GradGradGradGradGradGradGradGradGradGradGradGradGradGradGradGradGradGrad
 Berny optimization.
 Initialization pass.
 Force constant matrix read from checkpoint file:
 D:\Documents\rayGit\FQ\quimicaComputacional\proyecto\decompositionHydrogenPeroxi
 de\decompositionCatalyzedByIodine\step1\ts\ts.chk
                           ----------------------------
                           !    Initial Parameters    !
                           ! (Angstroms and Degrees)  !
 --------------------------                            --------------------------
 ! Name  Definition              Value          Derivative Info.                !
 --------------------------------------------------------------------------------
 ! R1    R(1,2)                  1.0008         D2E/DX2 =    0.3059             !
 ! R2    R(1,5)                  2.0286         D2E/DX2 =    0.1854             !
 ! R3    R(2,3)                  1.8953         D2E/DX2 =    0.0307             !
 ! R4    R(3,4)                  0.9817         D2E/DX2 =    0.5946             !
 ! A1    A(2,1,5)              116.1157         D2E/DX2 =    0.0885             !
 ! A2    A(1,2,3)              128.665          D2E/DX2 =    0.1768             !
 ! A3    A(2,3,4)               92.1402         D2E/DX2 =    0.0851             !
 ! D1    D(5,1,2,3)            174.5068         D2E/DX2 =    0.0252             !
 ! D2    D(1,2,3,4)            -78.4754         D2E/DX2 =    0.025              !
 --------------------------------------------------------------------------------
 Trust Radius=3.00D-02 FncErr=1.00D-07 GrdErr=1.00D-06
 Number of steps in this run=  20 maximum allowed number of steps= 100.
 Search for a saddle point of order  1.
 GradGradGradGradGradGradGradGradGradGradGradGradGradGradGradGradGradGrad

                          Input orientation:                          
 ---------------------------------------------------------------------
 Center     Atomic      Atomic             Coordinates (Angstroms)
 Number     Number       Type             X           Y           Z
 ---------------------------------------------------------------------
      1          8           0       -1.436628    0.563313    0.657979
      2          1           0       -0.867305    0.705511   -0.152776
      3          8           0        1.023226    0.750932   -0.278975
      4          1           0        1.061183    1.667993    0.069155
      5         53           0       -3.437818    0.758907    0.389331
 ---------------------------------------------------------------------
                    Distance matrix (angstroms):
                    1          2          3          4          5
     1  O    0.000000
     2  H    1.000836   0.000000
     3  O    2.638933   1.895283   0.000000
     4  H    2.793939   2.166724   0.981650   0.000000
     5  I    2.028593   2.627598   4.510833   4.601083   0.000000
 Stoichiometry    H2IO2(1-)
 Framework group  C1[X(H2IO2)]
 Deg. of freedom     9
 Full point group                 C1      NOp   1
 Largest Abelian subgroup         C1      NOp   1
 Largest concise Abelian subgroup C1      NOp   1
                         Standard orientation:                         
 ---------------------------------------------------------------------
 Center     Atomic      Atomic             Coordinates (Angstroms)
 Number     Number       Type             X           Y           Z
 ---------------------------------------------------------------------
      1          8           0       -1.127763    0.495453    0.003384
      2          1           0       -1.786081   -0.239634   -0.163765
      3          8           0       -3.679045   -0.171088   -0.099835
      4          1           0       -3.684121   -0.212387    0.880933
      5         53           0        0.828767   -0.040432    0.001027
 ---------------------------------------------------------------------
 Rotational constants (GHZ):     89.7251004      1.4923672      1.4759386
 Standard basis: LANL2DZ (5D, 7F)
 There are    30 symmetry adapted basis functions of A   symmetry.
 Integral buffers will be    262144 words long.
 Raffenetti 2 integral format.
 Two-electron integral symmetry is turned on.
    30 basis functions,    70 primitive gaussians,    30 cartesian basis functions
    13 alpha electrons       13 beta electrons
       nuclear repulsion energy        48.7617043242 Hartrees.
 NAtoms=    5 NActive=    5 NUniq=    5 SFac= 7.50D-01 NAtFMM=   80 NAOKFM=F Big=F
 ------------------------------------------------------------------------------
 Polarizable Continuum Model (PCM)
 =================================
 Model                : PCM.
 Atomic radii         : SMD-Coulomb.
 Polarization charges : Total charges.
 Charge compensation  : None.
 Solution method      : Matrix inversion.
 Cavity type          : VdW (van der Waals Surface) (Alpha=1.000).
 Cavity algorithm     : GePol (No added spheres)
                        Default sphere list used, NSphG=    5.
                        Lebedev-Laikov grids with approx.  5.0 points / Ang**2.
                        Smoothing algorithm: Karplus/York (Gamma=1.0000).
                        Polarization charges: spherical gaussians, with
                                              point-specific exponents (IZeta= 3).
                        Self-potential: point-specific (ISelfS= 7).
                        Self-field    : sphere-specific E.n sum rule (ISelfD= 2).
 1st derivatives      : Analytical E(r).r(x)/FMM algorithm (CHGder, D1EAlg=3).
                        Cavity 1st derivative terms included.
 Solvent              : Water, Eps=  78.355300 Eps(inf)=   1.777849
 ------------------------------------------------------------------------------
 Spheres list:
 ISph  on   Nord    Re0     Alpha      Xe            Ye            Ze
    1   O      1    1.520   1.000     -1.127763      0.495453      0.003384
    2   H      2    1.200   1.000     -1.786081     -0.239634     -0.163765
    3   O      3    1.520   1.000     -3.679045     -0.171088     -0.099835
    4   H      4    1.200   1.000     -3.684121     -0.212387      0.880933
    5   I      5    1.980   1.000      0.828767     -0.040432      0.001027
 ------------------------------------------------------------------------------
 ------------------------------------------------------------------------------
 Atomic radii for non-electrostatic terms: SMD-CDS.
 ------------------------------------------------------------------------------
 Nuclear repulsion after PCM non-electrostatic terms =       48.7633481010 Hartrees.
 One-electron integrals computed using PRISM.
   1 Symmetry operations used in ECPInt.
 ECPInt:  NShTT=     171 NPrTT=    1054 LenC2=     172 LenP2D=     895.
 LDataN:  DoStor=T MaxTD1= 4 Len=   56
 NBasis=    30 RedAO= T  NBF=    30
 NBsUse=    30 1.00D-06 NBFU=    30
 Defaulting to unpruned grid for atomic number  53.
 Initial guess read from the checkpoint file:  D:\Documents\rayGit\FQ\quimicaComp
 utacional\proyecto\decompositionHydrogenPeroxide\decompositionCatalyzedByIodine\
 step1\ts\ts.chk
 B after Tr=     0.000000    0.000000    0.000000
         Rot=    1.000000    0.000000    0.000000    0.000000 Ang=   0.00 deg.
 Initial guess orbital symmetries:
       Occupied  (A) (A) (A) (A) (A) (A) (A) (A) (A) (A) (A) (A)
                 (A)
       Virtual   (A) (A) (A) (A) (A) (A) (A) (A) (A) (A) (A) (A)
                 (A) (A) (A) (A) (A)
 Requested convergence on RMS density matrix=1.00D-08 within 128 cycles.
 Requested convergence on MAX density matrix=1.00D-06.
 Requested convergence on             energy=1.00D-06.
 No special actions if energy rises.
 Keep R1 ints in memory in canonical form, NReq=3453917.
 Defaulting to unpruned grid for atomic number  53.
 Defaulting to unpruned grid for atomic number  53.
 Defaulting to unpruned grid for atomic number  53.
 Defaulting to unpruned grid for atomic number  53.
 Error on total polarization charges =  0.07415
 SCF Done:  E(RM062X) =  -163.003394530     A.U. after    1 cycles
             Convg  =    0.3943D-09             -V/T =  2.0585
 SMD-CDS (non-electrostatic) energy             (kcal/mol) =       1.03
 (included in total energy above)

 **********************************************************************

            Population analysis using the SCF density.

 **********************************************************************

 Orbital symmetries:
       Occupied  (A) (A) (A) (A) (A) (A) (A) (A) (A) (A) (A) (A)
                 (A)
       Virtual   (A) (A) (A) (A) (A) (A) (A) (A) (A) (A) (A) (A)
                 (A) (A) (A) (A) (A)
 The electronic state is 1-A.
 Alpha  occ. eigenvalues --  -19.64036 -19.52001  -1.09588  -0.96236  -0.73372
 Alpha  occ. eigenvalues --   -0.53079  -0.42183  -0.41896  -0.40568  -0.30580
 Alpha  occ. eigenvalues --   -0.29250  -0.28382  -0.27857
 Alpha virt. eigenvalues --   -0.03852   0.19179   0.25908   0.42163   0.42686
 Alpha virt. eigenvalues --    0.43553   0.68670   0.69954   0.75460   0.79440
 Alpha virt. eigenvalues --    0.82345   0.91798   1.02513   1.11926   1.43628
 Alpha virt. eigenvalues --    1.57271   9.33791
          Condensed to atoms (all electrons):
              1          2          3          4          5
     1  O    8.712679   0.208680  -0.035572   0.002543   0.021664
     2  H    0.208680   0.293910   0.076692  -0.007060  -0.014223
     3  O   -0.035572   0.076692   8.886171   0.270678   0.003624
     4  H    0.002543  -0.007060   0.270678   0.408651  -0.000063
     5  I    0.021664  -0.014223   0.003624  -0.000063   6.644664
 Mulliken atomic charges:
              1
     1  O   -0.909993
     2  H    0.442001
     3  O   -1.201593
     4  H    0.325251
     5  I    0.344335
 Sum of Mulliken atomic charges =  -1.00000
 Mulliken charges with hydrogens summed into heavy atoms:
              1
     1  O   -0.467993
     3  O   -0.876342
     5  I    0.344335
 Sum of Mulliken charges with hydrogens summed into heavy atoms =  -1.00000
 Electronic spatial extent (au):  <R**2>=            629.2313
 Charge=             -1.0000 electrons
 Dipole moment (field-independent basis, Debye):
    X=             16.6285    Y=             -2.0506    Z=              2.0933  Tot=             16.8847
 Quadrupole moment (field-independent basis, Debye-Ang):
   XX=            -87.8791   YY=            -36.6694   ZZ=            -33.8587
   XY=              0.3897   XZ=             -8.5467   YZ=             -0.4176
 Traceless Quadrupole moment (field-independent basis, Debye-Ang):
   XX=            -35.0767   YY=             16.1330   ZZ=             18.9437
   XY=              0.3897   XZ=             -8.5467   YZ=             -0.4176
 Octapole moment (field-independent basis, Debye-Ang**2):
  XXX=            279.0017  YYY=             -3.1198  ZZZ=              2.1667  XYY=             22.5996
  XXY=              1.0212  XXZ=             33.6357  XZZ=             13.1331  YZZ=             -1.3074
  YYZ=              0.5944  XYZ=              1.8073
 Hexadecapole moment (field-independent basis, Debye-Ang**3):
 XXXX=          -1587.5444 YYYY=            -61.4043 ZZZZ=            -50.9188 XXXY=            -34.2327
 XXXZ=           -130.0487 YYYX=             -3.4166 YYYZ=             -0.2195 ZZZX=             -8.1383
 ZZZY=             -0.4529 XXYY=           -153.5844 XXZZ=           -122.7935 YYZZ=            -18.8732
 XXYZ=             -7.0341 YYXZ=             -2.1361 ZZXY=              0.1813
 N-N= 4.876334810101D+01 E-N=-4.849067137874D+02  KE= 1.539901841116D+02
   1 Symmetry operations used in ECPInt.
 ECPInt:  NShTT=     171 NPrTT=    1054 LenC2=     172 LenP2D=     895.
 LDataN:  DoStor=T MaxTD1= 5 Len=  102
 D1PCM: PCM CHGder 1st derivatives, ID1Alg=3 FixD1E=F DoIter=F DoCFld=F I1PDM=0.
 Calling FoFJK, ICntrl=      2127 FMM=F ISym2X=0 I1Cent= 0 IOpClX= 0 NMat=1 NMatS=1 NMatT=0.
 Defaulting to unpruned grid for atomic number  53.
 Defaulting to unpruned grid for atomic number  53.
 Defaulting to unpruned grid for atomic number  53.
 Defaulting to unpruned grid for atomic number  53.
 ***** Axes restored to original set *****
 -------------------------------------------------------------------
 Center     Atomic                   Forces (Hartrees/Bohr)
 Number     Number              X              Y              Z
 -------------------------------------------------------------------
      1        8          -0.004338084   -0.000660006    0.003121155
      2        1           0.013484024   -0.000484801    0.002895480
      3        8          -0.008386400    0.000102348   -0.004622745
      4        1           0.000485382    0.000744359    0.000894953
      5       53          -0.001244921    0.000298100   -0.002288844
 -------------------------------------------------------------------
 Cartesian Forces:  Max     0.013484024 RMS     0.004616016

 GradGradGradGradGradGradGradGradGradGradGradGradGradGradGradGradGradGrad
 Berny optimization.
 Internal  Forces:  Max     0.015915817 RMS     0.006651107
 Search for a saddle point.
 Step number   1 out of a maximum of   20
 All quantities printed in internal units (Hartrees-Bohrs-Radians)
 Swaping is turned off.
 Second derivative matrix not updated -- first step.
 The second derivative matrix:
                          R1        R2        R3        R4        A1
           R1           0.30587
           R2           0.04121   0.18544
           R3           0.05424   0.02358   0.03070
           R4          -0.00344  -0.00397   0.00021   0.59458
           A1           0.03157   0.03710   0.01158  -0.00946   0.08850
           A2           0.08515   0.07155   0.06409  -0.00064   0.03948
           A3           0.02301   0.00736   0.03243   0.01011  -0.00373
           D1           0.00943   0.00437   0.00311  -0.00405  -0.00021
           D2          -0.02368  -0.01240  -0.00388   0.00592  -0.01108
                          A2        A3        D1        D2
           A2           0.17676
           A3          -0.00485   0.08511
           D1           0.00876  -0.00155   0.02522
           D2          -0.03793   0.02078   0.00211   0.02504
     Eigenvalues ---   -0.00602   0.00956   0.02580   0.07107   0.09561
     Eigenvalues ---    0.11616   0.19884   0.41094   0.59524
 Eigenvectors required to have negative eigenvalues:
                          R3        A2        A3        D2        R1
   1                    0.88491  -0.33302  -0.29043  -0.13153  -0.05682
                          R2        D1        A1        R4
   1                    0.02772   0.01381   0.01253   0.00568
 RFO step:  Lambda0=9.976314685D-03 Lambda=-2.50922257D-03.
 Linear search not attempted -- option 19 set.
 Maximum step size (   0.030) exceeded in Quadratic search.
    -- Step size scaled by   0.036
 Iteration  1 RMS(Cart)=  0.00697367 RMS(Int)=  0.00004273
 Iteration  2 RMS(Cart)=  0.00003240 RMS(Int)=  0.00000000
 Iteration  3 RMS(Cart)=  0.00000000 RMS(Int)=  0.00000000
 Variable       Old X    -DE/DX   Delta X   Delta X   Delta X     New X
                                 (Linear)    (Quad)   (Total)
    R1        1.89131   0.00391   0.00000  -0.00145  -0.00145   1.88985
    R2        3.83349   0.00158   0.00000   0.00089   0.00089   3.83437
    R3        3.58157  -0.00759   0.00000   0.02677   0.02677   3.60833
    R4        1.85505   0.00095   0.00000   0.00015   0.00015   1.85520
    A1        2.02660  -0.00816   0.00000  -0.00428  -0.00428   2.02232
    A2        2.24563   0.01592   0.00000  -0.00573  -0.00573   2.23989
    A3        1.60815   0.00079   0.00000  -0.01129  -0.01129   1.59685
    D1        3.04572   0.00072   0.00000  -0.00046  -0.00046   3.04526
    D2       -1.36965   0.00089   0.00000   0.00129   0.00129  -1.36836
         Item               Value     Threshold  Converged?
 Maximum Force            0.015916     0.000450     NO 
 RMS     Force            0.006651     0.000300     NO 
 Maximum Displacement     0.017472     0.001800     NO 
 RMS     Displacement     0.006973     0.001200     NO 
 Predicted change in Energy= 2.709629D-04
 GradGradGradGradGradGradGradGradGradGradGradGradGradGradGradGradGradGrad

                          Input orientation:                          
 ---------------------------------------------------------------------
 Center     Atomic      Atomic             Coordinates (Angstroms)
 Number     Number       Type             X           Y           Z
 ---------------------------------------------------------------------
      1          8           0       -1.437396    0.563497    0.658515
      2          1           0       -0.872327    0.705052   -0.154379
      3          8           0        1.032472    0.750773   -0.279431
      4          1           0        1.059014    1.667969    0.069625
      5         53           0       -3.439105    0.759365    0.390385
 ---------------------------------------------------------------------
                    Distance matrix (angstroms):
                    1          2          3          4          5
     1  O    0.000000
     2  H    1.000068   0.000000
     3  O    2.648596   1.909447   0.000000
     4  H    2.792617   2.169669   0.981730   0.000000
     5  I    2.029063   2.624513   4.521474   4.600166   0.000000
 Stoichiometry    H2IO2(1-)
 Framework group  C1[X(H2IO2)]
 Deg. of freedom     9
 Full point group                 C1      NOp   1
 Largest Abelian subgroup         C1      NOp   1
 Largest concise Abelian subgroup C1      NOp   1
                         Standard orientation:                         
 ---------------------------------------------------------------------
 Center     Atomic      Atomic             Coordinates (Angstroms)
 Number     Number       Type             X           Y           Z
 ---------------------------------------------------------------------
      1          8           0       -1.127073    0.495355    0.003403
      2          1           0       -1.781530   -0.241799   -0.165199
      3          8           0       -3.688518   -0.170577   -0.099538
      4          1           0       -3.681918   -0.212323    0.881281
      5         53           0        0.829966   -0.040455    0.001000
 ---------------------------------------------------------------------
 Rotational constants (GHZ):     89.7691913      1.4866343      1.4703459
 Standard basis: LANL2DZ (5D, 7F)
 There are    30 symmetry adapted basis functions of A   symmetry.
 Integral buffers will be    262144 words long.
 Raffenetti 2 integral format.
 Two-electron integral symmetry is turned on.
    30 basis functions,    70 primitive gaussians,    30 cartesian basis functions
    13 alpha electrons       13 beta electrons
       nuclear repulsion energy        48.6845677067 Hartrees.
 NAtoms=    5 NActive=    5 NUniq=    5 SFac= 7.50D-01 NAtFMM=   80 NAOKFM=F Big=F
 ------------------------------------------------------------------------------
 Polarizable Continuum Model (PCM)
 =================================
 Model                : PCM.
 Atomic radii         : SMD-Coulomb.
 Polarization charges : Total charges.
 Charge compensation  : None.
 Solution method      : Matrix inversion.
 Cavity type          : VdW (van der Waals Surface) (Alpha=1.000).
 Cavity algorithm     : GePol (No added spheres)
                        Default sphere list used, NSphG=    5.
                        Lebedev-Laikov grids with approx.  5.0 points / Ang**2.
                        Smoothing algorithm: Karplus/York (Gamma=1.0000).
                        Polarization charges: spherical gaussians, with
                                              point-specific exponents (IZeta= 3).
                        Self-potential: point-specific (ISelfS= 7).
                        Self-field    : sphere-specific E.n sum rule (ISelfD= 2).
 1st derivatives      : Analytical E(r).r(x)/FMM algorithm (CHGder, D1EAlg=3).
                        Cavity 1st derivative terms included.
 Solvent              : Water, Eps=  78.355300 Eps(inf)=   1.777849
 ------------------------------------------------------------------------------
 Spheres list:
 ISph  on   Nord    Re0     Alpha      Xe            Ye            Ze
    1   O      1    1.520   1.000     -1.127073      0.495355      0.003403
    2   H      2    1.200   1.000     -1.781530     -0.241799     -0.165199
    3   O      3    1.520   1.000     -3.688518     -0.170577     -0.099538
    4   H      4    1.200   1.000     -3.681918     -0.212323      0.881281
    5   I      5    1.980   1.000      0.829966     -0.040455      0.001000
 ------------------------------------------------------------------------------
 ------------------------------------------------------------------------------
 Atomic radii for non-electrostatic terms: SMD-CDS.
 ------------------------------------------------------------------------------
 Nuclear repulsion after PCM non-electrostatic terms =       48.6862134610 Hartrees.
 One-electron integrals computed using PRISM.
   1 Symmetry operations used in ECPInt.
 ECPInt:  NShTT=     171 NPrTT=    1054 LenC2=     172 LenP2D=     895.
 LDataN:  DoStor=T MaxTD1= 4 Len=   56
 NBasis=    30 RedAO= T  NBF=    30
 NBsUse=    30 1.00D-06 NBFU=    30
 Defaulting to unpruned grid for atomic number  53.
 Initial guess read from the read-write file.
 B after Tr=     0.000000    0.000000    0.000000
         Rot=    1.000000    0.000000    0.000000    0.000000 Ang=   0.00 deg.
 Initial guess orbital symmetries:
       Occupied  (A) (A) (A) (A) (A) (A) (A) (A) (A) (A) (A) (A)
                 (A)
       Virtual   (A) (A) (A) (A) (A) (A) (A) (A) (A) (A) (A) (A)
                 (A) (A) (A) (A) (A)
 Requested convergence on RMS density matrix=1.00D-08 within 128 cycles.
 Requested convergence on MAX density matrix=1.00D-06.
 Requested convergence on             energy=1.00D-06.
 No special actions if energy rises.
 Keep R1 ints in memory in canonical form, NReq=3453917.
 Defaulting to unpruned grid for atomic number  53.
 Defaulting to unpruned grid for atomic number  53.
 Defaulting to unpruned grid for atomic number  53.
 Defaulting to unpruned grid for atomic number  53.
 Error on total polarization charges =  0.07413
 SCF Done:  E(RM062X) =  -163.003123737     A.U. after    9 cycles
             Convg  =    0.7372D-08             -V/T =  2.0585
 SMD-CDS (non-electrostatic) energy             (kcal/mol) =       1.03
 (included in total energy above)
   1 Symmetry operations used in ECPInt.
 ECPInt:  NShTT=     171 NPrTT=    1054 LenC2=     172 LenP2D=     895.
 LDataN:  DoStor=T MaxTD1= 5 Len=  102
 D1PCM: PCM CHGder 1st derivatives, ID1Alg=3 FixD1E=F DoIter=F DoCFld=F I1PDM=0.
 Calling FoFJK, ICntrl=      2127 FMM=F ISym2X=0 I1Cent= 0 IOpClX= 0 NMat=1 NMatS=1 NMatT=0.
 Defaulting to unpruned grid for atomic number  53.
 Defaulting to unpruned grid for atomic number  53.
 Defaulting to unpruned grid for atomic number  53.
 Defaulting to unpruned grid for atomic number  53.
 ***** Axes restored to original set *****
 -------------------------------------------------------------------
 Center     Atomic                   Forces (Hartrees/Bohr)
 Number     Number              X              Y              Z
 -------------------------------------------------------------------
      1        8          -0.004151872   -0.000591668    0.002898691
      2        1           0.013229871   -0.000522560    0.002871878
      3        8          -0.008367651    0.000127748   -0.004459191
      4        1           0.000483611    0.000712812    0.000886490
      5       53          -0.001193959    0.000273668   -0.002197867
 -------------------------------------------------------------------
 Cartesian Forces:  Max     0.013229871 RMS     0.004526352

 GradGradGradGradGradGradGradGradGradGradGradGradGradGradGradGradGradGrad
 Berny optimization.
 Internal  Forces:  Max     0.015430418 RMS     0.006461446
 Search for a saddle point.
 Step number   2 out of a maximum of   20
 All quantities printed in internal units (Hartrees-Bohrs-Radians)
 Swaping is turned off.
 Update second derivatives using D2CorX and points    1    2
 The second derivative matrix:
                          R1        R2        R3        R4        A1
           R1           0.30554
           R2           0.04136   0.18543
           R3           0.05855   0.02354   0.03190
           R4          -0.00342  -0.00397   0.00035   0.59458
           A1           0.03089   0.03709   0.01092  -0.00949   0.08868
           A2           0.08422   0.07157   0.06431  -0.00067   0.03955
           A3           0.02118   0.00741   0.03291   0.01005  -0.00362
           D1           0.00936   0.00436   0.00300  -0.00406  -0.00019
           D2          -0.02347  -0.01240  -0.00379   0.00593  -0.01111
                          A2        A3        D1        D2
           A2           0.17661
           A3          -0.00515   0.08449
           D1           0.00878  -0.00152   0.02523
           D2          -0.03793   0.02079   0.00211   0.02504
     Eigenvalues ---   -0.00624   0.00963   0.02580   0.07131   0.09561
     Eigenvalues ---    0.11606   0.19885   0.41124   0.59524
 Eigenvectors required to have negative eigenvalues:
                          R3        A2        A3        D2        R1
   1                    0.88276  -0.33043  -0.29180  -0.13839  -0.07369
                          R2        A1        D1        R4
   1                    0.02854   0.02221   0.02186   0.00563
 RFO step:  Lambda0=9.805506103D-03 Lambda=-2.28107222D-03.
 Linear search not attempted -- option 19 set.
 Maximum step size (   0.030) exceeded in Quadratic search.
    -- Step size scaled by   0.037
 Iteration  1 RMS(Cart)=  0.00698173 RMS(Int)=  0.00004170
 Iteration  2 RMS(Cart)=  0.00003193 RMS(Int)=  0.00000000
 Iteration  3 RMS(Cart)=  0.00000000 RMS(Int)=  0.00000000
 Variable       Old X    -DE/DX   Delta X   Delta X   Delta X     New X
                                 (Linear)    (Quad)   (Total)
    R1        1.88985   0.00364   0.00000  -0.00206  -0.00206   1.88779
    R2        3.83437   0.00151   0.00000   0.00091   0.00091   3.83528
    R3        3.60833  -0.00759   0.00000   0.02681   0.02681   3.63515
    R4        1.85520   0.00091   0.00000   0.00015   0.00015   1.85535
    A1        2.02232  -0.00785   0.00000  -0.00381  -0.00381   2.01851
    A2        2.23989   0.01543   0.00000  -0.00582  -0.00582   2.23408
    A3        1.59685   0.00081   0.00000  -0.01127  -0.01127   1.58558
    D1        3.04526   0.00069   0.00000   0.00000   0.00000   3.04526
    D2       -1.36836   0.00091   0.00000   0.00074   0.00074  -1.36762
         Item               Value     Threshold  Converged?
 Maximum Force            0.015430     0.000450     NO 
 RMS     Force            0.006461     0.000300     NO 
 Maximum Displacement     0.017463     0.001800     NO 
 RMS     Displacement     0.006982     0.001200     NO 
 Predicted change in Energy= 2.767676D-04
 GradGradGradGradGradGradGradGradGradGradGradGradGradGradGradGradGradGrad

                          Input orientation:                          
 ---------------------------------------------------------------------
 Center     Atomic      Atomic             Coordinates (Angstroms)
 Number     Number       Type             X           Y           Z
 ---------------------------------------------------------------------
      1          8           0       -1.438119    0.563922    0.658637
      2          1           0       -0.877407    0.704874   -0.156035
      3          8           0        1.041713    0.750501   -0.279612
      4          1           0        1.056971    1.667815    0.070038
      5         53           0       -3.440499    0.759545    0.391687
 ---------------------------------------------------------------------
                    Distance matrix (angstroms):
                    1          2          3          4          5
     1  O    0.000000
     2  H    0.998977   0.000000
     3  O    2.657949   1.923636   0.000000
     4  H    2.791147   2.172598   0.981811   0.000000
     5  I    2.029545   2.621531   4.532212   4.599527   0.000000
 Stoichiometry    H2IO2(1-)
 Framework group  C1[X(H2IO2)]
 Deg. of freedom     9
 Full point group                 C1      NOp   1
 Largest Abelian subgroup         C1      NOp   1
 Largest concise Abelian subgroup C1      NOp   1
                         Standard orientation:                         
 ---------------------------------------------------------------------
 Center     Atomic      Atomic             Coordinates (Angstroms)
 Number     Number       Type             X           Y           Z
 ---------------------------------------------------------------------
      1          8           0       -1.126543    0.494631    0.003421
      2          1           0       -1.777029   -0.244296   -0.166312
      3          8           0       -3.698052   -0.169815   -0.099253
      4          1           0       -3.679992   -0.212058    0.881482
      5         53           0        0.831203   -0.040418    0.000971
 ---------------------------------------------------------------------
 Rotational constants (GHZ):     90.0071905      1.4808311      1.4647323
 Standard basis: LANL2DZ (5D, 7F)
 There are    30 symmetry adapted basis functions of A   symmetry.
 Integral buffers will be    262144 words long.
 Raffenetti 2 integral format.
 Two-electron integral symmetry is turned on.
    30 basis functions,    70 primitive gaussians,    30 cartesian basis functions
    13 alpha electrons       13 beta electrons
       nuclear repulsion energy        48.6106796926 Hartrees.
 NAtoms=    5 NActive=    5 NUniq=    5 SFac= 7.50D-01 NAtFMM=   80 NAOKFM=F Big=F
 ------------------------------------------------------------------------------
 Polarizable Continuum Model (PCM)
 =================================
 Model                : PCM.
 Atomic radii         : SMD-Coulomb.
 Polarization charges : Total charges.
 Charge compensation  : None.
 Solution method      : Matrix inversion.
 Cavity type          : VdW (van der Waals Surface) (Alpha=1.000).
 Cavity algorithm     : GePol (No added spheres)
                        Default sphere list used, NSphG=    5.
                        Lebedev-Laikov grids with approx.  5.0 points / Ang**2.
                        Smoothing algorithm: Karplus/York (Gamma=1.0000).
                        Polarization charges: spherical gaussians, with
                                              point-specific exponents (IZeta= 3).
                        Self-potential: point-specific (ISelfS= 7).
                        Self-field    : sphere-specific E.n sum rule (ISelfD= 2).
 1st derivatives      : Analytical E(r).r(x)/FMM algorithm (CHGder, D1EAlg=3).
                        Cavity 1st derivative terms included.
 Solvent              : Water, Eps=  78.355300 Eps(inf)=   1.777849
 ------------------------------------------------------------------------------
 Spheres list:
 ISph  on   Nord    Re0     Alpha      Xe            Ye            Ze
    1   O      1    1.520   1.000     -1.126543      0.494631      0.003421
    2   H      2    1.200   1.000     -1.777029     -0.244296     -0.166312
    3   O      3    1.520   1.000     -3.698052     -0.169815     -0.099253
    4   H      4    1.200   1.000     -3.679992     -0.212058      0.881482
    5   I      5    1.980   1.000      0.831203     -0.040418      0.000971
 ------------------------------------------------------------------------------
 ------------------------------------------------------------------------------
 Atomic radii for non-electrostatic terms: SMD-CDS.
 ------------------------------------------------------------------------------
 Nuclear repulsion after PCM non-electrostatic terms =       48.6123278611 Hartrees.
 One-electron integrals computed using PRISM.
   1 Symmetry operations used in ECPInt.
 ECPInt:  NShTT=     171 NPrTT=    1054 LenC2=     172 LenP2D=     894.
 LDataN:  DoStor=T MaxTD1= 4 Len=   56
 NBasis=    30 RedAO= T  NBF=    30
 NBsUse=    30 1.00D-06 NBFU=    30
 Defaulting to unpruned grid for atomic number  53.
 Initial guess read from the read-write file.
 B after Tr=     0.000000    0.000000    0.000000
         Rot=    1.000000    0.000000    0.000000    0.000000 Ang=   0.00 deg.
 Initial guess orbital symmetries:
       Occupied  (A) (A) (A) (A) (A) (A) (A) (A) (A) (A) (A) (A)
                 (A)
       Virtual   (A) (A) (A) (A) (A) (A) (A) (A) (A) (A) (A) (A)
                 (A) (A) (A) (A) (A)
 Requested convergence on RMS density matrix=1.00D-08 within 128 cycles.
 Requested convergence on MAX density matrix=1.00D-06.
 Requested convergence on             energy=1.00D-06.
 No special actions if energy rises.
 Keep R1 ints in memory in canonical form, NReq=3455246.
 Defaulting to unpruned grid for atomic number  53.
 Defaulting to unpruned grid for atomic number  53.
 Defaulting to unpruned grid for atomic number  53.
 Defaulting to unpruned grid for atomic number  53.
 Error on total polarization charges =  0.07411
 SCF Done:  E(RM062X) =  -163.002847280     A.U. after    9 cycles
             Convg  =    0.6239D-08             -V/T =  2.0585
 SMD-CDS (non-electrostatic) energy             (kcal/mol) =       1.03
 (included in total energy above)
   1 Symmetry operations used in ECPInt.
 ECPInt:  NShTT=     171 NPrTT=    1054 LenC2=     172 LenP2D=     894.
 LDataN:  DoStor=T MaxTD1= 5 Len=  102
 D1PCM: PCM CHGder 1st derivatives, ID1Alg=3 FixD1E=F DoIter=F DoCFld=F I1PDM=0.
 Calling FoFJK, ICntrl=      2127 FMM=F ISym2X=0 I1Cent= 0 IOpClX= 0 NMat=1 NMatS=1 NMatT=0.
 Defaulting to unpruned grid for atomic number  53.
 Defaulting to unpruned grid for atomic number  53.
 Defaulting to unpruned grid for atomic number  53.
 Defaulting to unpruned grid for atomic number  53.
 ***** Axes restored to original set *****
 -------------------------------------------------------------------
 Center     Atomic                   Forces (Hartrees/Bohr)
 Number     Number              X              Y              Z
 -------------------------------------------------------------------
      1        8          -0.004142782   -0.000560955    0.002930041
      2        1           0.013098847   -0.000519246    0.002610250
      3        8          -0.008318301    0.000154883   -0.004305742
      4        1           0.000480671    0.000677677    0.000875244
      5       53          -0.001118435    0.000247641   -0.002109793
 -------------------------------------------------------------------
 Cartesian Forces:  Max     0.013098847 RMS     0.004469919

 GradGradGradGradGradGradGradGradGradGradGradGradGradGradGradGradGradGrad
 Berny optimization.
 Internal  Forces:  Max     0.014950323 RMS     0.006293368
 Search for a saddle point.
 Step number   3 out of a maximum of   20
 All quantities printed in internal units (Hartrees-Bohrs-Radians)
 Swaping is turned off.
 Update second derivatives using D2CorX and points    1    2    3
 The second derivative matrix:
                          R1        R2        R3        R4        A1
           R1           0.30596
           R2           0.04120   0.18547
           R3           0.05447   0.02423   0.03199
           R4          -0.00345  -0.00396   0.00061   0.59458
           A1           0.03148   0.03700   0.01120  -0.00952   0.08859
           A2           0.08509   0.07143   0.06465  -0.00072   0.03943
           A3           0.02286   0.00714   0.03368   0.00995  -0.00385
           D1           0.00939   0.00435   0.00261  -0.00406  -0.00013
           D2          -0.02360  -0.01238  -0.00383   0.00594  -0.01110
                          A2        A3        D1        D2
           A2           0.17646
           A3          -0.00547   0.08382
           D1           0.00886  -0.00136   0.02523
           D2          -0.03790   0.02083   0.00209   0.02504
     Eigenvalues ---   -0.00630   0.00951   0.02578   0.07111   0.09577
     Eigenvalues ---    0.11606   0.19890   0.41106   0.59525
 Eigenvectors required to have negative eigenvalues:
                          R3        A2        A3        D2        R1
   1                    0.87937  -0.33486  -0.30872  -0.12024  -0.05456
                          D1        R2        A1        R4
   1                    0.02953   0.02509   0.01759   0.00534
 RFO step:  Lambda0=9.539641720D-03 Lambda=-2.23299984D-03.
 Linear search not attempted -- option 19 set.
 Maximum step size (   0.030) exceeded in Quadratic search.
    -- Step size scaled by   0.037
 Iteration  1 RMS(Cart)=  0.00707487 RMS(Int)=  0.00004669
 Iteration  2 RMS(Cart)=  0.00003573 RMS(Int)=  0.00000000
 Iteration  3 RMS(Cart)=  0.00000000 RMS(Int)=  0.00000000
 Variable       Old X    -DE/DX   Delta X   Delta X   Delta X     New X
                                 (Linear)    (Quad)   (Total)
    R1        1.88779   0.00367   0.00000  -0.00135  -0.00135   1.88644
    R2        3.83528   0.00143   0.00000   0.00079   0.00079   3.83607
    R3        3.63515  -0.00756   0.00000   0.02647   0.02647   3.66162
    R4        1.85535   0.00086   0.00000   0.00014   0.00014   1.85549
    A1        2.01851  -0.00759   0.00000  -0.00384  -0.00384   2.01467
    A2        2.23408   0.01495   0.00000  -0.00589  -0.00589   2.22819
    A3        1.58558   0.00083   0.00000  -0.01197  -0.01197   1.57361
    D1        3.04526   0.00067   0.00000   0.00024   0.00024   3.04550
    D2       -1.36762   0.00092   0.00000   0.00202   0.00202  -1.36560
         Item               Value     Threshold  Converged?
 Maximum Force            0.014950     0.000450     NO 
 RMS     Force            0.006293     0.000300     NO 
 Maximum Displacement     0.017604     0.001800     NO 
 RMS     Displacement     0.007076     0.001200     NO 
 Predicted change in Energy= 2.694115D-04
 GradGradGradGradGradGradGradGradGradGradGradGradGradGradGradGradGradGrad

                          Input orientation:                          
 ---------------------------------------------------------------------
 Center     Atomic      Atomic             Coordinates (Angstroms)
 Number     Number       Type             X           Y           Z
 ---------------------------------------------------------------------
      1          8           0       -1.438737    0.564862    0.658926
      2          1           0       -0.882231    0.704716   -0.157941
      3          8           0        1.051028    0.750218   -0.280014
      4          1           0        1.054363    1.667309    0.070742
      5         53           0       -3.441766    0.759552    0.393001
 ---------------------------------------------------------------------
                    Distance matrix (angstroms):
                    1          2          3          4          5
     1  O    0.000000
     2  H    0.998263   0.000000
     3  O    2.667376   1.937644   0.000000
     4  H    2.788709   2.174691   0.981885   0.000000
     5  I    2.029962   2.618733   4.542932   4.598157   0.000000
 Stoichiometry    H2IO2(1-)
 Framework group  C1[X(H2IO2)]
 Deg. of freedom     9
 Full point group                 C1      NOp   1
 Largest Abelian subgroup         C1      NOp   1
 Largest concise Abelian subgroup C1      NOp   1
                         Standard orientation:                         
 ---------------------------------------------------------------------
 Center     Atomic      Atomic             Coordinates (Angstroms)
 Number     Number       Type             X           Y           Z
 ---------------------------------------------------------------------
      1          8           0       -1.125969    0.493887    0.002956
      2          1           0       -1.772710   -0.247312   -0.166984
      3          8           0       -3.707581   -0.169300   -0.098791
      4          1           0       -3.677409   -0.209437    0.881809
      5         53           0        0.832425   -0.040376    0.000978
 ---------------------------------------------------------------------
 Rotational constants (GHZ):     90.2493867      1.4751020      1.4591875
 Standard basis: LANL2DZ (5D, 7F)
 There are    30 symmetry adapted basis functions of A   symmetry.
 Integral buffers will be    262144 words long.
 Raffenetti 2 integral format.
 Two-electron integral symmetry is turned on.
    30 basis functions,    70 primitive gaussians,    30 cartesian basis functions
    13 alpha electrons       13 beta electrons
       nuclear repulsion energy        48.5368555709 Hartrees.
 NAtoms=    5 NActive=    5 NUniq=    5 SFac= 7.50D-01 NAtFMM=   80 NAOKFM=F Big=F
 ------------------------------------------------------------------------------
 Polarizable Continuum Model (PCM)
 =================================
 Model                : PCM.
 Atomic radii         : SMD-Coulomb.
 Polarization charges : Total charges.
 Charge compensation  : None.
 Solution method      : Matrix inversion.
 Cavity type          : VdW (van der Waals Surface) (Alpha=1.000).
 Cavity algorithm     : GePol (No added spheres)
                        Default sphere list used, NSphG=    5.
                        Lebedev-Laikov grids with approx.  5.0 points / Ang**2.
                        Smoothing algorithm: Karplus/York (Gamma=1.0000).
                        Polarization charges: spherical gaussians, with
                                              point-specific exponents (IZeta= 3).
                        Self-potential: point-specific (ISelfS= 7).
                        Self-field    : sphere-specific E.n sum rule (ISelfD= 2).
 1st derivatives      : Analytical E(r).r(x)/FMM algorithm (CHGder, D1EAlg=3).
                        Cavity 1st derivative terms included.
 Solvent              : Water, Eps=  78.355300 Eps(inf)=   1.777849
 ------------------------------------------------------------------------------
 Spheres list:
 ISph  on   Nord    Re0     Alpha      Xe            Ye            Ze
    1   O      1    1.520   1.000     -1.125969      0.493887      0.002956
    2   H      2    1.200   1.000     -1.772710     -0.247312     -0.166984
    3   O      3    1.520   1.000     -3.707581     -0.169300     -0.098791
    4   H      4    1.200   1.000     -3.677409     -0.209437      0.881809
    5   I      5    1.980   1.000      0.832425     -0.040376      0.000978
 ------------------------------------------------------------------------------
 ------------------------------------------------------------------------------
 Atomic radii for non-electrostatic terms: SMD-CDS.
 ------------------------------------------------------------------------------
 Nuclear repulsion after PCM non-electrostatic terms =       48.5385058031 Hartrees.
 One-electron integrals computed using PRISM.
   1 Symmetry operations used in ECPInt.
 ECPInt:  NShTT=     171 NPrTT=    1054 LenC2=     172 LenP2D=     894.
 LDataN:  DoStor=T MaxTD1= 4 Len=   56
 NBasis=    30 RedAO= T  NBF=    30
 NBsUse=    30 1.00D-06 NBFU=    30
 Defaulting to unpruned grid for atomic number  53.
 Initial guess read from the read-write file.
 B after Tr=     0.000000    0.000000    0.000000
         Rot=    1.000000    0.000000    0.000000    0.000000 Ang=   0.00 deg.
 Initial guess orbital symmetries:
       Occupied  (A) (A) (A) (A) (A) (A) (A) (A) (A) (A) (A) (A)
                 (A)
       Virtual   (A) (A) (A) (A) (A) (A) (A) (A) (A) (A) (A) (A)
                 (A) (A) (A) (A) (A)
 Requested convergence on RMS density matrix=1.00D-08 within 128 cycles.
 Requested convergence on MAX density matrix=1.00D-06.
 Requested convergence on             energy=1.00D-06.
 No special actions if energy rises.
 Keep R1 ints in memory in canonical form, NReq=3456578.
 Defaulting to unpruned grid for atomic number  53.
 Defaulting to unpruned grid for atomic number  53.
 Defaulting to unpruned grid for atomic number  53.
 Defaulting to unpruned grid for atomic number  53.
 Error on total polarization charges =  0.07410
 SCF Done:  E(RM062X) =  -163.002578990     A.U. after   10 cycles
             Convg  =    0.4535D-08             -V/T =  2.0585
 SMD-CDS (non-electrostatic) energy             (kcal/mol) =       1.04
 (included in total energy above)
   1 Symmetry operations used in ECPInt.
 ECPInt:  NShTT=     171 NPrTT=    1054 LenC2=     172 LenP2D=     894.
 LDataN:  DoStor=T MaxTD1= 5 Len=  102
 D1PCM: PCM CHGder 1st derivatives, ID1Alg=3 FixD1E=F DoIter=F DoCFld=F I1PDM=0.
 Calling FoFJK, ICntrl=      2127 FMM=F ISym2X=0 I1Cent= 0 IOpClX= 0 NMat=1 NMatS=1 NMatT=0.
 Defaulting to unpruned grid for atomic number  53.
 Defaulting to unpruned grid for atomic number  53.
 Defaulting to unpruned grid for atomic number  53.
 Defaulting to unpruned grid for atomic number  53.
 ***** Axes restored to original set *****
 -------------------------------------------------------------------
 Center     Atomic                   Forces (Hartrees/Bohr)
 Number     Number              X              Y              Z
 -------------------------------------------------------------------
      1        8          -0.003965763   -0.000502138    0.002734662
      2        1           0.012831364   -0.000552412    0.002582019
      3        8          -0.008276613    0.000176971   -0.004162408
      4        1           0.000482239    0.000648342    0.000863024
      5       53          -0.001071227    0.000229237   -0.002017296
 -------------------------------------------------------------------
 Cartesian Forces:  Max     0.012831364 RMS     0.004378738

 GradGradGradGradGradGradGradGradGradGradGradGradGradGradGradGradGradGrad
 Berny optimization.
 Internal  Forces:  Max     0.014491122 RMS     0.006114359
 Search for a saddle point.
 Step number   4 out of a maximum of   20
 All quantities printed in internal units (Hartrees-Bohrs-Radians)
 Swaping is turned off.
 Update second derivatives using D2CorX and points    1    2    3    4
 The second derivative matrix:
                          R1        R2        R3        R4        A1
           R1           0.30538
           R2           0.04134   0.18546
           R3           0.05812   0.02420   0.03272
           R4          -0.00343  -0.00396   0.00071   0.59458
           A1           0.03095   0.03700   0.01099  -0.00954   0.08864
           A2           0.08429   0.07144   0.06472  -0.00074   0.03944
           A3           0.02124   0.00716   0.03412   0.00990  -0.00387
           D1           0.00938   0.00436   0.00265  -0.00406  -0.00013
           D2          -0.02338  -0.01238  -0.00370   0.00594  -0.01112
                          A2        A3        D1        D2
           A2           0.17639
           A3          -0.00568   0.08326
           D1           0.00886  -0.00136   0.02522
           D2          -0.03792   0.02082   0.00210   0.02506
     Eigenvalues ---   -0.00664   0.00956   0.02578   0.07119   0.09572
     Eigenvalues ---    0.11596   0.19875   0.41115   0.59524
 Eigenvectors required to have negative eigenvalues:
                          R3        A2        A3        D2        R1
   1                    0.87847  -0.33072  -0.31013  -0.12580  -0.06903
                          D1        R2        A1        R4
   1                    0.03154   0.02596   0.02120   0.00523
 RFO step:  Lambda0=9.243595015D-03 Lambda=-2.06331963D-03.
 Linear search not attempted -- option 19 set.
 Maximum step size (   0.030) exceeded in Quadratic search.
    -- Step size scaled by   0.038
 Iteration  1 RMS(Cart)=  0.00706300 RMS(Int)=  0.00004633
 Iteration  2 RMS(Cart)=  0.00003545 RMS(Int)=  0.00000000
 Iteration  3 RMS(Cart)=  0.00000000 RMS(Int)=  0.00000000
 Variable       Old X    -DE/DX   Delta X   Delta X   Delta X     New X
                                 (Linear)    (Quad)   (Total)
    R1        1.88644   0.00342   0.00000  -0.00186  -0.00186   1.88458
    R2        3.83607   0.00137   0.00000   0.00081   0.00081   3.83689
    R3        3.66162  -0.00753   0.00000   0.02650   0.02650   3.68812
    R4        1.85549   0.00083   0.00000   0.00014   0.00014   1.85563
    A1        2.01467  -0.00732   0.00000  -0.00363  -0.00363   2.01104
    A2        2.22819   0.01449   0.00000  -0.00584  -0.00584   2.22235
    A3        1.57361   0.00086   0.00000  -0.01197  -0.01197   1.56164
    D1        3.04550   0.00063   0.00000   0.00037   0.00037   3.04586
    D2       -1.36560   0.00093   0.00000   0.00164   0.00164  -1.36396
         Item               Value     Threshold  Converged?
 Maximum Force            0.014491     0.000450     NO 
 RMS     Force            0.006114     0.000300     NO 
 Maximum Displacement     0.017559     0.001800     NO 
 RMS     Displacement     0.007064     0.001200     NO 
 Predicted change in Energy= 2.697827D-04
 GradGradGradGradGradGradGradGradGradGradGradGradGradGradGradGradGradGrad

                          Input orientation:                          
 ---------------------------------------------------------------------
 Center     Atomic      Atomic             Coordinates (Angstroms)
 Number     Number       Type             X           Y           Z
 ---------------------------------------------------------------------
      1          8           0       -1.439294    0.565825    0.658994
      2          1           0       -0.887098    0.704672   -0.159763
      3          8           0        1.060320    0.749933   -0.280275
      4          1           0        1.051763    1.666729    0.071370
      5         53           0       -3.443033    0.759498    0.394389
 ---------------------------------------------------------------------
                    Distance matrix (angstroms):
                    1          2          3          4          5
     1  O    0.000000
     2  H    0.997278   0.000000
     3  O    2.676601   1.951668   0.000000
     4  H    2.786154   2.176731   0.981958   0.000000
     5  I    2.030393   2.615893   4.553620   4.596803   0.000000
 Stoichiometry    H2IO2(1-)
 Framework group  C1[X(H2IO2)]
 Deg. of freedom     9
 Full point group                 C1      NOp   1
 Largest Abelian subgroup         C1      NOp   1
 Largest concise Abelian subgroup C1      NOp   1
                         Standard orientation:                         
 ---------------------------------------------------------------------
 Center     Atomic      Atomic             Coordinates (Angstroms)
 Number     Number       Type             X           Y           Z
 ---------------------------------------------------------------------
      1          8           0       -1.125478    0.492888    0.002565
      2          1           0       -1.768344   -0.250307   -0.167574
      3          8           0       -3.717074   -0.168654   -0.098348
      4          1           0       -3.674858   -0.207114    0.881947
      5         53           0        0.833653   -0.040310    0.000979
 ---------------------------------------------------------------------
 Rotational constants (GHZ):     90.5752477      1.4694042      1.4536905
 Standard basis: LANL2DZ (5D, 7F)
 There are    30 symmetry adapted basis functions of A   symmetry.
 Integral buffers will be    262144 words long.
 Raffenetti 2 integral format.
 Two-electron integral symmetry is turned on.
    30 basis functions,    70 primitive gaussians,    30 cartesian basis functions
    13 alpha electrons       13 beta electrons
       nuclear repulsion energy        48.4657963483 Hartrees.
 NAtoms=    5 NActive=    5 NUniq=    5 SFac= 7.50D-01 NAtFMM=   80 NAOKFM=F Big=F
 ------------------------------------------------------------------------------
 Polarizable Continuum Model (PCM)
 =================================
 Model                : PCM.
 Atomic radii         : SMD-Coulomb.
 Polarization charges : Total charges.
 Charge compensation  : None.
 Solution method      : Matrix inversion.
 Cavity type          : VdW (van der Waals Surface) (Alpha=1.000).
 Cavity algorithm     : GePol (No added spheres)
                        Default sphere list used, NSphG=    5.
                        Lebedev-Laikov grids with approx.  5.0 points / Ang**2.
                        Smoothing algorithm: Karplus/York (Gamma=1.0000).
                        Polarization charges: spherical gaussians, with
                                              point-specific exponents (IZeta= 3).
                        Self-potential: point-specific (ISelfS= 7).
                        Self-field    : sphere-specific E.n sum rule (ISelfD= 2).
 1st derivatives      : Analytical E(r).r(x)/FMM algorithm (CHGder, D1EAlg=3).
                        Cavity 1st derivative terms included.
 Solvent              : Water, Eps=  78.355300 Eps(inf)=   1.777849
 ------------------------------------------------------------------------------
 Spheres list:
 ISph  on   Nord    Re0     Alpha      Xe            Ye            Ze
    1   O      1    1.520   1.000     -1.125478      0.492888      0.002565
    2   H      2    1.200   1.000     -1.768344     -0.250307     -0.167574
    3   O      3    1.520   1.000     -3.717074     -0.168654     -0.098348
    4   H      4    1.200   1.000     -3.674858     -0.207114      0.881947
    5   I      5    1.980   1.000      0.833653     -0.040310      0.000979
 ------------------------------------------------------------------------------
 ------------------------------------------------------------------------------
 Atomic radii for non-electrostatic terms: SMD-CDS.
 ------------------------------------------------------------------------------
 Nuclear repulsion after PCM non-electrostatic terms =       48.4674489246 Hartrees.
 One-electron integrals computed using PRISM.
   1 Symmetry operations used in ECPInt.
 ECPInt:  NShTT=     171 NPrTT=    1054 LenC2=     172 LenP2D=     894.
 LDataN:  DoStor=T MaxTD1= 4 Len=   56
 NBasis=    30 RedAO= T  NBF=    30
 NBsUse=    30 1.00D-06 NBFU=    30
 Defaulting to unpruned grid for atomic number  53.
 Initial guess read from the read-write file.
 B after Tr=     0.000000    0.000000    0.000000
         Rot=    1.000000    0.000000    0.000000    0.000000 Ang=   0.00 deg.
 Initial guess orbital symmetries:
       Occupied  (A) (A) (A) (A) (A) (A) (A) (A) (A) (A) (A) (A)
                 (A)
       Virtual   (A) (A) (A) (A) (A) (A) (A) (A) (A) (A) (A) (A)
                 (A) (A) (A) (A) (A)
 Requested convergence on RMS density matrix=1.00D-08 within 128 cycles.
 Requested convergence on MAX density matrix=1.00D-06.
 Requested convergence on             energy=1.00D-06.
 No special actions if energy rises.
 Keep R1 ints in memory in canonical form, NReq=3456542.
 Defaulting to unpruned grid for atomic number  53.
 Defaulting to unpruned grid for atomic number  53.
 Defaulting to unpruned grid for atomic number  53.
 Defaulting to unpruned grid for atomic number  53.
 Error on total polarization charges =  0.07409
 SCF Done:  E(RM062X) =  -163.002310235     A.U. after   10 cycles
             Convg  =    0.4452D-08             -V/T =  2.0586
 SMD-CDS (non-electrostatic) energy             (kcal/mol) =       1.04
 (included in total energy above)
   1 Symmetry operations used in ECPInt.
 ECPInt:  NShTT=     171 NPrTT=    1054 LenC2=     172 LenP2D=     894.
 LDataN:  DoStor=T MaxTD1= 5 Len=  102
 D1PCM: PCM CHGder 1st derivatives, ID1Alg=3 FixD1E=F DoIter=F DoCFld=F I1PDM=0.
 Calling FoFJK, ICntrl=      2127 FMM=F ISym2X=0 I1Cent= 0 IOpClX= 0 NMat=1 NMatS=1 NMatT=0.
 Defaulting to unpruned grid for atomic number  53.
 Defaulting to unpruned grid for atomic number  53.
 Defaulting to unpruned grid for atomic number  53.
 Defaulting to unpruned grid for atomic number  53.
 ***** Axes restored to original set *****
 -------------------------------------------------------------------
 Center     Atomic                   Forces (Hartrees/Bohr)
 Number     Number              X              Y              Z
 -------------------------------------------------------------------
      1        8          -0.003939289   -0.000479782    0.002750636
      2        1           0.012671135   -0.000543887    0.002354866
      3        8          -0.008202155    0.000191749   -0.004032838
      4        1           0.000479513    0.000623238    0.000852290
      5       53          -0.001009204    0.000208682   -0.001924954
 -------------------------------------------------------------------
 Cartesian Forces:  Max     0.012671135 RMS     0.004315871

 GradGradGradGradGradGradGradGradGradGradGradGradGradGradGradGradGradGrad
 Berny optimization.
 Internal  Forces:  Max     0.014043062 RMS     0.005953435
 Search for a saddle point.
 Step number   5 out of a maximum of   20
 All quantities printed in internal units (Hartrees-Bohrs-Radians)
 Swaping is turned off.
 Update second derivatives using D2CorX and points    1    2    3    4    5
 The second derivative matrix:
                          R1        R2        R3        R4        A1
           R1           0.30553
           R2           0.04124   0.18548
           R3           0.05461   0.02459   0.03253
           R4          -0.00344  -0.00396   0.00068   0.59458
           A1           0.03145   0.03695   0.01134  -0.00954   0.08854
           A2           0.08508   0.07134   0.06460  -0.00074   0.03939
           A3           0.02279   0.00698   0.03491   0.00991  -0.00414
           D1           0.00935   0.00436   0.00241  -0.00405  -0.00009
           D2          -0.02358  -0.01235  -0.00364   0.00594  -0.01111
                          A2        A3        D1        D2
           A2           0.17645
           A3          -0.00580   0.08250
           D1           0.00891  -0.00123   0.02521
           D2          -0.03794   0.02083   0.00208   0.02506
     Eigenvalues ---   -0.00679   0.00943   0.02576   0.07095   0.09579
     Eigenvalues ---    0.11592   0.19869   0.41090   0.59524
 Eigenvectors required to have negative eigenvalues:
                          R3        A2        A3        D2        R1
   1                    0.87596  -0.33103  -0.32639  -0.10886  -0.05292
                          D1        R2        A1        R4
   1                    0.03381   0.02352   0.01466   0.00536
 RFO step:  Lambda0=8.886469714D-03 Lambda=-2.05059794D-03.
 Linear search not attempted -- option 19 set.
 Maximum step size (   0.030) exceeded in Quadratic search.
    -- Step size scaled by   0.038
 Iteration  1 RMS(Cart)=  0.00715208 RMS(Int)=  0.00005198
 Iteration  2 RMS(Cart)=  0.00003946 RMS(Int)=  0.00000000
 Iteration  3 RMS(Cart)=  0.00000000 RMS(Int)=  0.00000000
 Variable       Old X    -DE/DX   Delta X   Delta X   Delta X     New X
                                 (Linear)    (Quad)   (Total)
    R1        1.88458   0.00343   0.00000  -0.00125  -0.00125   1.88333
    R2        3.83689   0.00130   0.00000   0.00072   0.00072   3.83761
    R3        3.68812  -0.00746   0.00000   0.02613   0.02613   3.71425
    R4        1.85563   0.00079   0.00000   0.00014   0.00014   1.85577
    A1        2.01104  -0.00707   0.00000  -0.00377  -0.00377   2.00727
    A2        2.22235   0.01404   0.00000  -0.00571  -0.00571   2.21664
    A3        1.56164   0.00087   0.00000  -0.01264  -0.01264   1.54900
    D1        3.04586   0.00061   0.00000   0.00032   0.00032   3.04618
    D2       -1.36396   0.00094   0.00000   0.00293   0.00293  -1.36102
         Item               Value     Threshold  Converged?
 Maximum Force            0.014043     0.000450     NO 
 RMS     Force            0.005953     0.000300     NO 
 Maximum Displacement     0.017657     0.001800     NO 
 RMS     Displacement     0.007154     0.001200     NO 
 Predicted change in Energy= 2.585096D-04
 GradGradGradGradGradGradGradGradGradGradGradGradGradGradGradGradGradGrad

                          Input orientation:                          
 ---------------------------------------------------------------------
 Center     Atomic      Atomic             Coordinates (Angstroms)
 Number     Number       Type             X           Y           Z
 ---------------------------------------------------------------------
      1          8           0       -1.439740    0.567093    0.659315
      2          1           0       -0.891692    0.704511   -0.161664
      3          8           0        1.069664    0.749738   -0.280839
      4          1           0        1.048545    1.665856    0.072241
      5         53           0       -3.444119    0.759459    0.395661
 ---------------------------------------------------------------------
                    Distance matrix (angstroms):
                    1          2          3          4          5
     1  O    0.000000
     2  H    0.996617   0.000000
     3  O    2.685955   1.965494   0.000000
     4  H    2.782714   2.177939   0.982030   0.000000
     5  I    2.030777   2.613142   4.564206   4.594582   0.000000
 Stoichiometry    H2IO2(1-)
 Framework group  C1[X(H2IO2)]
 Deg. of freedom     9
 Full point group                 C1      NOp   1
 Largest Abelian subgroup         C1      NOp   1
 Largest concise Abelian subgroup C1      NOp   1
                         Standard orientation:                         
 ---------------------------------------------------------------------
 Center     Atomic      Atomic             Coordinates (Angstroms)
 Number     Number       Type             X           Y           Z
 ---------------------------------------------------------------------
      1          8           0       -1.124904    0.492121    0.001804
      2          1           0       -1.764101   -0.253438   -0.167944
      3          8           0       -3.726495   -0.168308   -0.097750
      4          1           0       -3.671518   -0.203072    0.882123
      5         53           0        0.834846   -0.040264    0.001007
 ---------------------------------------------------------------------
 Rotational constants (GHZ):     90.8306587      1.4638393      1.4483005
 Standard basis: LANL2DZ (5D, 7F)
 There are    30 symmetry adapted basis functions of A   symmetry.
 Integral buffers will be    262144 words long.
 Raffenetti 2 integral format.
 Two-electron integral symmetry is turned on.
    30 basis functions,    70 primitive gaussians,    30 cartesian basis functions
    13 alpha electrons       13 beta electrons
       nuclear repulsion energy        48.3947390037 Hartrees.
 NAtoms=    5 NActive=    5 NUniq=    5 SFac= 7.50D-01 NAtFMM=   80 NAOKFM=F Big=F
 ------------------------------------------------------------------------------
 Polarizable Continuum Model (PCM)
 =================================
 Model                : PCM.
 Atomic radii         : SMD-Coulomb.
 Polarization charges : Total charges.
 Charge compensation  : None.
 Solution method      : Matrix inversion.
 Cavity type          : VdW (van der Waals Surface) (Alpha=1.000).
 Cavity algorithm     : GePol (No added spheres)
                        Default sphere list used, NSphG=    5.
                        Lebedev-Laikov grids with approx.  5.0 points / Ang**2.
                        Smoothing algorithm: Karplus/York (Gamma=1.0000).
                        Polarization charges: spherical gaussians, with
                                              point-specific exponents (IZeta= 3).
                        Self-potential: point-specific (ISelfS= 7).
                        Self-field    : sphere-specific E.n sum rule (ISelfD= 2).
 1st derivatives      : Analytical E(r).r(x)/FMM algorithm (CHGder, D1EAlg=3).
                        Cavity 1st derivative terms included.
 Solvent              : Water, Eps=  78.355300 Eps(inf)=   1.777849
 ------------------------------------------------------------------------------
 Spheres list:
 ISph  on   Nord    Re0     Alpha      Xe            Ye            Ze
    1   O      1    1.520   1.000     -1.124904      0.492121      0.001804
    2   H      2    1.200   1.000     -1.764101     -0.253438     -0.167944
    3   O      3    1.520   1.000     -3.726495     -0.168308     -0.097750
    4   H      4    1.200   1.000     -3.671518     -0.203072      0.882123
    5   I      5    1.980   1.000      0.834846     -0.040264      0.001007
 ------------------------------------------------------------------------------
 ------------------------------------------------------------------------------
 Atomic radii for non-electrostatic terms: SMD-CDS.
 ------------------------------------------------------------------------------
 Nuclear repulsion after PCM non-electrostatic terms =       48.3963934040 Hartrees.
 One-electron integrals computed using PRISM.
   1 Symmetry operations used in ECPInt.
 ECPInt:  NShTT=     171 NPrTT=    1054 LenC2=     172 LenP2D=     894.
 LDataN:  DoStor=T MaxTD1= 4 Len=   56
 NBasis=    30 RedAO= T  NBF=    30
 NBsUse=    30 1.00D-06 NBFU=    30
 Defaulting to unpruned grid for atomic number  53.
 Initial guess read from the read-write file.
 B after Tr=     0.000000    0.000000    0.000000
         Rot=    1.000000    0.000000    0.000000    0.000000 Ang=   0.00 deg.
 Initial guess orbital symmetries:
       Occupied  (A) (A) (A) (A) (A) (A) (A) (A) (A) (A) (A) (A)
                 (A)
       Virtual   (A) (A) (A) (A) (A) (A) (A) (A) (A) (A) (A) (A)
                 (A) (A) (A) (A) (A)
 Requested convergence on RMS density matrix=1.00D-08 within 128 cycles.
 Requested convergence on MAX density matrix=1.00D-06.
 Requested convergence on             energy=1.00D-06.
 No special actions if energy rises.
 Keep R1 ints in memory in canonical form, NReq=3456494.
 Defaulting to unpruned grid for atomic number  53.
 Defaulting to unpruned grid for atomic number  53.
 Defaulting to unpruned grid for atomic number  53.
 Defaulting to unpruned grid for atomic number  53.
 Error on total polarization charges =  0.07408
 SCF Done:  E(RM062X) =  -163.002053367     A.U. after   10 cycles
             Convg  =    0.4856D-08             -V/T =  2.0586
 SMD-CDS (non-electrostatic) energy             (kcal/mol) =       1.04
 (included in total energy above)
   1 Symmetry operations used in ECPInt.
 ECPInt:  NShTT=     171 NPrTT=    1054 LenC2=     172 LenP2D=     894.
 LDataN:  DoStor=T MaxTD1= 5 Len=  102
 D1PCM: PCM CHGder 1st derivatives, ID1Alg=3 FixD1E=F DoIter=F DoCFld=F I1PDM=0.
 Calling FoFJK, ICntrl=      2127 FMM=F ISym2X=0 I1Cent= 0 IOpClX= 0 NMat=1 NMatS=1 NMatT=0.
 Defaulting to unpruned grid for atomic number  53.
 Defaulting to unpruned grid for atomic number  53.
 Defaulting to unpruned grid for atomic number  53.
 Defaulting to unpruned grid for atomic number  53.
 ***** Axes restored to original set *****
 -------------------------------------------------------------------
 Center     Atomic                   Forces (Hartrees/Bohr)
 Number     Number              X              Y              Z
 -------------------------------------------------------------------
      1        8          -0.003781355   -0.000435119    0.002566234
      2        1           0.012399820   -0.000556059    0.002329577
      3        8          -0.008119394    0.000191886   -0.003908044
      4        1           0.000473184    0.000604973    0.000840304
      5       53          -0.000972255    0.000194319   -0.001828072
 -------------------------------------------------------------------
 Cartesian Forces:  Max     0.012399820 RMS     0.004222324

 GradGradGradGradGradGradGradGradGradGradGradGradGradGradGradGradGradGrad
 Berny optimization.
 Internal  Forces:  Max     0.013609240 RMS     0.005778918
 Search for a saddle point.
 Step number   6 out of a maximum of   20
 All quantities printed in internal units (Hartrees-Bohrs-Radians)
 Swaping is turned off.
 Update second derivatives using D2CorX and points    1    2    3    4    5
                                                      6
 The second derivative matrix:
                          R1        R2        R3        R4        A1
           R1           0.30485
           R2           0.04136   0.18546
           R3           0.05743   0.02436   0.03276
           R4          -0.00341  -0.00397   0.00046   0.59458
           A1           0.03109   0.03697   0.01074  -0.00951   0.08871
           A2           0.08447   0.07139   0.06429  -0.00070   0.03955
           A3           0.02135   0.00709   0.03575   0.01002  -0.00397
           D1           0.00936   0.00437   0.00246  -0.00406  -0.00011
           D2          -0.02337  -0.01236  -0.00331   0.00593  -0.01121
                          A2        A3        D1        D2
           A2           0.17656
           A3          -0.00585   0.08144
           D1           0.00890  -0.00121   0.02521
           D2          -0.03803   0.02074   0.00209   0.02512
     Eigenvalues ---   -0.00751   0.00947   0.02575   0.07108   0.09570
     Eigenvalues ---    0.11570   0.19846   0.41079   0.59524
 Eigenvectors required to have negative eigenvalues:
                          R3        A3        A2        D2        R1
   1                    0.87465  -0.33230  -0.32495  -0.11204  -0.06489
                          D1        R2        A1        R4
   1                    0.03373   0.02396   0.02159   0.00594
 RFO step:  Lambda0=8.428698604D-03 Lambda=-1.90449438D-03.
 Linear search not attempted -- option 19 set.
 Maximum step size (   0.030) exceeded in Quadratic search.
    -- Step size scaled by   0.039
 Iteration  1 RMS(Cart)=  0.00717792 RMS(Int)=  0.00005367
 Iteration  2 RMS(Cart)=  0.00004056 RMS(Int)=  0.00000000
 Iteration  3 RMS(Cart)=  0.00000000 RMS(Int)=  0.00000000
 Variable       Old X    -DE/DX   Delta X   Delta X   Delta X     New X
                                 (Linear)    (Quad)   (Total)
    R1        1.88333   0.00322   0.00000  -0.00166  -0.00166   1.88167
    R2        3.83761   0.00125   0.00000   0.00073   0.00073   3.83834
    R3        3.71425  -0.00740   0.00000   0.02609   0.02609   3.74033
    R4        1.85577   0.00077   0.00000   0.00016   0.00016   1.85592
    A1        2.00727  -0.00679   0.00000  -0.00349  -0.00349   2.00378
    A2        2.21664   0.01361   0.00000  -0.00549  -0.00549   2.21115
    A3        1.54900   0.00088   0.00000  -0.01287  -0.01287   1.53613
    D1        3.04618   0.00057   0.00000   0.00031   0.00031   3.04649
    D2       -1.36102   0.00093   0.00000   0.00287   0.00287  -1.35816
         Item               Value     Threshold  Converged?
 Maximum Force            0.013609     0.000450     NO 
 RMS     Force            0.005779     0.000300     NO 
 Maximum Displacement     0.017728     0.001800     NO 
 RMS     Displacement     0.007181     0.001200     NO 
 Predicted change in Energy= 2.550668D-04
 GradGradGradGradGradGradGradGradGradGradGradGradGradGradGradGradGradGrad

                          Input orientation:                          
 ---------------------------------------------------------------------
 Center     Atomic      Atomic             Coordinates (Angstroms)
 Number     Number       Type             X           Y           Z
 ---------------------------------------------------------------------
      1          8           0       -1.440131    0.568387    0.659453
      2          1           0       -0.896220    0.704369   -0.163448
      3          8           0        1.079045    0.749583   -0.281356
      4          1           0        1.045146    1.664881    0.073084
      5         53           0       -3.445182    0.759436    0.396982
 ---------------------------------------------------------------------
                    Distance matrix (angstroms):
                    1          2          3          4          5
     1  O    0.000000
     2  H    0.995739   0.000000
     3  O    2.695219   1.979298   0.000000
     4  H    2.778980   2.178860   0.982113   0.000000
     5  I    2.031162   2.610426   4.574809   4.592144   0.000000
 Stoichiometry    H2IO2(1-)
 Framework group  C1[X(H2IO2)]
 Deg. of freedom     9
 Full point group                 C1      NOp   1
 Largest Abelian subgroup         C1      NOp   1
 Largest concise Abelian subgroup C1      NOp   1
                         Standard orientation:                         
 ---------------------------------------------------------------------
 Center     Atomic      Atomic             Coordinates (Angstroms)
 Number     Number       Type             X           Y           Z
 ---------------------------------------------------------------------
      1          8           0       -1.124378    0.491178    0.001093
      2          1           0       -1.759894   -0.256432   -0.168308
      3          8           0       -3.735929   -0.167881   -0.097148
      4          1           0       -3.667977   -0.199218    0.882110
      5         53           0        0.836044   -0.040202    0.001031
 ---------------------------------------------------------------------
 Rotational constants (GHZ):     91.1465850      1.4582914      1.4429379
 Standard basis: LANL2DZ (5D, 7F)
 There are    30 symmetry adapted basis functions of A   symmetry.
 Integral buffers will be    262144 words long.
 Raffenetti 2 integral format.
 Two-electron integral symmetry is turned on.
    30 basis functions,    70 primitive gaussians,    30 cartesian basis functions
    13 alpha electrons       13 beta electrons
       nuclear repulsion energy        48.3257882209 Hartrees.
 NAtoms=    5 NActive=    5 NUniq=    5 SFac= 7.50D-01 NAtFMM=   80 NAOKFM=F Big=F
 ------------------------------------------------------------------------------
 Polarizable Continuum Model (PCM)
 =================================
 Model                : PCM.
 Atomic radii         : SMD-Coulomb.
 Polarization charges : Total charges.
 Charge compensation  : None.
 Solution method      : Matrix inversion.
 Cavity type          : VdW (van der Waals Surface) (Alpha=1.000).
 Cavity algorithm     : GePol (No added spheres)
                        Default sphere list used, NSphG=    5.
                        Lebedev-Laikov grids with approx.  5.0 points / Ang**2.
                        Smoothing algorithm: Karplus/York (Gamma=1.0000).
                        Polarization charges: spherical gaussians, with
                                              point-specific exponents (IZeta= 3).
                        Self-potential: point-specific (ISelfS= 7).
                        Self-field    : sphere-specific E.n sum rule (ISelfD= 2).
 1st derivatives      : Analytical E(r).r(x)/FMM algorithm (CHGder, D1EAlg=3).
                        Cavity 1st derivative terms included.
 Solvent              : Water, Eps=  78.355300 Eps(inf)=   1.777849
 ------------------------------------------------------------------------------
 Spheres list:
 ISph  on   Nord    Re0     Alpha      Xe            Ye            Ze
    1   O      1    1.520   1.000     -1.124378      0.491178      0.001093
    2   H      2    1.200   1.000     -1.759894     -0.256432     -0.168308
    3   O      3    1.520   1.000     -3.735929     -0.167881     -0.097148
    4   H      4    1.200   1.000     -3.667977     -0.199218      0.882110
[...]
 Maximum step size (   0.030) exceeded in Quadratic search.
    -- Step size scaled by   0.043
 Iteration  1 RMS(Cart)=  0.00839835 RMS(Int)=  0.00004531
 Iteration  2 RMS(Cart)=  0.00004757 RMS(Int)=  0.00000000
 Iteration  3 RMS(Cart)=  0.00000000 RMS(Int)=  0.00000000
 Variable       Old X    -DE/DX   Delta X   Delta X   Delta X     New X
                                 (Linear)    (Quad)   (Total)
    R1        1.87001   0.00246   0.00000  -0.00037  -0.00037   1.86964
    R2        3.84333   0.00073   0.00000   0.00021   0.00021   3.84354
    R3        4.01999  -0.00594   0.00000   0.02538   0.02538   4.04537
    R4        1.85748   0.00032   0.00000   0.00005   0.00005   1.85753
    A1        1.97628  -0.00390   0.00000  -0.00129  -0.00129   1.97499
    A2        2.14217   0.00882   0.00000  -0.00781  -0.00781   2.13436
    A3        1.38177   0.00111   0.00000  -0.01021  -0.01021   1.37156
    D1        3.06496   0.00025   0.00000   0.00477   0.00477   3.06973
    D2       -1.35706   0.00081   0.00000  -0.00813  -0.00813  -1.36518
         Item               Value     Threshold  Converged?
 Maximum Force            0.008818     0.000450     NO 
 RMS     Force            0.003900     0.000300     NO 
 Maximum Displacement     0.016567     0.001800     NO 
 RMS     Displacement     0.008408     0.001200     NO 
 Predicted change in Energy= 2.297418D-04
 GradGradGradGradGradGradGradGradGradGradGradGradGradGradGradGradGradGrad

                          Input orientation:                          
 ---------------------------------------------------------------------
 Center     Atomic      Atomic             Coordinates (Angstroms)
 Number     Number       Type             X           Y           Z
 ---------------------------------------------------------------------
      1          8           0       -1.444494    0.588544    0.649844
      2          1           0       -0.946646    0.721371   -0.194761
      3          8           0        1.192640    0.743754   -0.269835
      4          1           0        1.000646    1.643958    0.075112
      5         53           0       -3.459488    0.749029    0.424355
 ---------------------------------------------------------------------
                    Distance matrix (angstroms):
                    1          2          3          4          5
     1  O    0.000000
     2  H    0.989370   0.000000
     3  O    2.797208   2.140719   0.000000
     4  H    2.724505   2.171622   0.982964   0.000000
     5  I    2.033913   2.588135   4.703638   4.562418   0.000000
 Stoichiometry    H2IO2(1-)
 Framework group  C1[X(H2IO2)]
 Deg. of freedom     9
 Full point group                 C1      NOp   1
 Largest Abelian subgroup         C1      NOp   1
 Largest concise Abelian subgroup C1      NOp   1
                         Standard orientation:                         
 ---------------------------------------------------------------------
 Center     Atomic      Atomic             Coordinates (Angstroms)
 Number     Number       Type             X           Y           Z
 ---------------------------------------------------------------------
      1          8           0       -1.121400    0.458178   -0.003486
      2          1           0       -1.716899   -0.316824   -0.157124
      3          8           0       -3.850136   -0.150696   -0.090923
      4          1           0       -3.626496   -0.167289    0.866118
      5         53           0        0.851239   -0.037278    0.000873
 ---------------------------------------------------------------------
 Rotational constants (GHZ):    103.0597951      1.3922753      1.3803404
 Standard basis: LANL2DZ (5D, 7F)
 There are    30 symmetry adapted basis functions of A   symmetry.
 Integral buffers will be    262144 words long.
 Raffenetti 2 integral format.
 Two-electron integral symmetry is turned on.
    30 basis functions,    70 primitive gaussians,    30 cartesian basis functions
    13 alpha electrons       13 beta electrons
       nuclear repulsion energy        47.5815864302 Hartrees.
 NAtoms=    5 NActive=    5 NUniq=    5 SFac= 7.50D-01 NAtFMM=   80 NAOKFM=F Big=F
 ------------------------------------------------------------------------------
 Polarizable Continuum Model (PCM)
 =================================
 Model                : PCM.
 Atomic radii         : SMD-Coulomb.
 Polarization charges : Total charges.
 Charge compensation  : None.
 Solution method      : Matrix inversion.
 Cavity type          : VdW (van der Waals Surface) (Alpha=1.000).
 Cavity algorithm     : GePol (No added spheres)
                        Default sphere list used, NSphG=    5.
                        Lebedev-Laikov grids with approx.  5.0 points / Ang**2.
                        Smoothing algorithm: Karplus/York (Gamma=1.0000).
                        Polarization charges: spherical gaussians, with
                                              point-specific exponents (IZeta= 3).
                        Self-potential: point-specific (ISelfS= 7).
                        Self-field    : sphere-specific E.n sum rule (ISelfD= 2).
 1st derivatives      : Analytical E(r).r(x)/FMM algorithm (CHGder, D1EAlg=3).
                        Cavity 1st derivative terms included.
 Solvent              : Water, Eps=  78.355300 Eps(inf)=   1.777849
 ------------------------------------------------------------------------------
 Spheres list:
 ISph  on   Nord    Re0     Alpha      Xe            Ye            Ze
    1   O      1    1.520   1.000     -1.121400      0.458178     -0.003486
    2   H      2    1.200   1.000     -1.716899     -0.316824     -0.157124
    3   O      3    1.520   1.000     -3.850136     -0.150696     -0.090923
    4   H      4    1.200   1.000     -3.626496     -0.167289      0.866118
    5   I      5    1.980   1.000      0.851239     -0.037278      0.000873
 ------------------------------------------------------------------------------
 ------------------------------------------------------------------------------
 Atomic radii for non-electrostatic terms: SMD-CDS.
 ------------------------------------------------------------------------------
 Nuclear repulsion after PCM non-electrostatic terms =       47.5832371333 Hartrees.
 One-electron integrals computed using PRISM.
   1 Symmetry operations used in ECPInt.
 ECPInt:  NShTT=     171 NPrTT=    1054 LenC2=     172 LenP2D=     888.
 LDataN:  DoStor=T MaxTD1= 4 Len=   56
 NBasis=    30 RedAO= T  NBF=    30
 NBsUse=    30 1.00D-06 NBFU=    30
 Defaulting to unpruned grid for atomic number  53.
 Initial guess read from the read-write file.
 B after Tr=     0.000000    0.000000    0.000000
         Rot=    1.000000    0.000000    0.000000    0.000000 Ang=   0.00 deg.
 Initial guess orbital symmetries:
       Occupied  (A) (A) (A) (A) (A) (A) (A) (A) (A) (A) (A) (A)
                 (A)
       Virtual   (A) (A) (A) (A) (A) (A) (A) (A) (A) (A) (A) (A)
                 (A) (A) (A) (A) (A)
 Requested convergence on RMS density matrix=1.00D-08 within 128 cycles.
 Requested convergence on MAX density matrix=1.00D-06.
 Requested convergence on             energy=1.00D-06.
 No special actions if energy rises.
 Keep R1 ints in memory in canonical form, NReq=3465684.
 Defaulting to unpruned grid for atomic number  53.
 Defaulting to unpruned grid for atomic number  53.
 Defaulting to unpruned grid for atomic number  53.
 Defaulting to unpruned grid for atomic number  53.
 Error on total polarization charges =  0.07390
 SCF Done:  E(RM062X) =  -162.998989739     A.U. after   10 cycles
             Convg  =    0.5722D-08             -V/T =  2.0586
 SMD-CDS (non-electrostatic) energy             (kcal/mol) =       1.04
 (included in total energy above)
   1 Symmetry operations used in ECPInt.
 ECPInt:  NShTT=     171 NPrTT=    1054 LenC2=     172 LenP2D=     888.
 LDataN:  DoStor=T MaxTD1= 5 Len=  102
 D1PCM: PCM CHGder 1st derivatives, ID1Alg=3 FixD1E=F DoIter=F DoCFld=F I1PDM=0.
 Calling FoFJK, ICntrl=      2127 FMM=F ISym2X=0 I1Cent= 0 IOpClX= 0 NMat=1 NMatS=1 NMatT=0.
 Defaulting to unpruned grid for atomic number  53.
 Defaulting to unpruned grid for atomic number  53.
 Defaulting to unpruned grid for atomic number  53.
 Defaulting to unpruned grid for atomic number  53.
 ***** Axes restored to original set *****
 -------------------------------------------------------------------
 Center     Atomic                   Forces (Hartrees/Bohr)
 Number     Number              X              Y              Z
 -------------------------------------------------------------------
      1        8          -0.002673386   -0.000132211    0.001726470
      2        1           0.009173185   -0.000693256    0.000990845
      3        8          -0.006489032    0.000519379   -0.002584987
      4        1           0.000529708    0.000325042    0.000587061
      5       53          -0.000540475   -0.000018955   -0.000719389
 -------------------------------------------------------------------
 Cartesian Forces:  Max     0.009173185 RMS     0.003123622

 GradGradGradGradGradGradGradGradGradGradGradGradGradGradGradGradGradGrad
 Berny optimization.
 Internal  Forces:  Max     0.008485493 RMS     0.003760455
 Search for a saddle point.
 Step number  20 out of a maximum of   20
 All quantities printed in internal units (Hartrees-Bohrs-Radians)
 Swaping is turned off.
 Update second derivatives using D2CorX and points   11   12   13   14   15
                                                     16   17   18   19   20
 The second derivative matrix:
                          R1        R2        R3        R4        A1
           R1           0.30304
           R2           0.04154   0.18619
           R3           0.04655   0.02347   0.03031
           R4          -0.00299  -0.00429   0.00315   0.59456
           A1           0.03110   0.03742   0.00660  -0.00970   0.08935
           A2           0.09002   0.07377   0.06026  -0.00240   0.04194
           A3           0.02023   0.00449   0.03380   0.00994  -0.00340
           D1          -0.00011   0.00091  -0.00358  -0.00171  -0.00257
           D2          -0.01115  -0.00840   0.00581   0.00340  -0.00908
                          A2        A3        D1        D2
           A2           0.18581
           A3          -0.00776   0.07207
           D1           0.00151  -0.00289   0.02461
           D2          -0.02952   0.02481   0.00426   0.02186
     Eigenvalues ---   -0.00734   0.00713   0.02599   0.07128   0.09289
     Eigenvalues ---    0.11472   0.19891   0.40903   0.59519
 Eigenvectors required to have negative eigenvalues:
                          R3        A2        A3        D2        D1
   1                    0.85400  -0.31755  -0.30502  -0.24149   0.11946
                          A1        R1        R2        R4
   1                    0.05585  -0.03160   0.00955   0.00182
 RFO step:  Lambda0=5.540777274D-03 Lambda=-5.06370015D-04.
 Linear search not attempted -- option 19 set.
 Maximum step size (   0.030) exceeded in Quadratic search.
    -- Step size scaled by   0.045
 Iteration  1 RMS(Cart)=  0.00871503 RMS(Int)=  0.00004264
 Iteration  2 RMS(Cart)=  0.00004736 RMS(Int)=  0.00000000
 Iteration  3 RMS(Cart)=  0.00000000 RMS(Int)=  0.00000000
 Variable       Old X    -DE/DX   Delta X   Delta X   Delta X     New X
                                 (Linear)    (Quad)   (Total)
    R1        1.86964   0.00224   0.00000  -0.00093  -0.00093   1.86871
    R2        3.84354   0.00071   0.00000   0.00022   0.00022   3.84376
    R3        4.04537  -0.00581   0.00000   0.02547   0.02547   4.07084
    R4        1.85753   0.00032   0.00000   0.00006   0.00006   1.85760
    A1        1.97499  -0.00372   0.00000  -0.00086  -0.00086   1.97414
    A2        2.13436   0.00849   0.00000  -0.00769  -0.00769   2.12667
    A3        1.37156   0.00115   0.00000  -0.00944  -0.00944   1.36212
    D1        3.06973   0.00023   0.00000   0.00561   0.00561   3.07533
    D2       -1.36518   0.00082   0.00000  -0.00837  -0.00837  -1.37355
         Item               Value     Threshold  Converged?
 Maximum Force            0.008485     0.000450     NO 
 RMS     Force            0.003760     0.000300     NO 
 Maximum Displacement     0.016196     0.001800     NO 
 RMS     Displacement     0.008726     0.001200     NO 
 Predicted change in Energy= 2.255812D-04
 Optimization stopped.
    -- Number of steps exceeded,  NStep=  20
    -- Flag reset to prevent archiving.
                           ----------------------------
                           ! Non-Optimized Parameters !
                           ! (Angstroms and Degrees)  !
 --------------------------                            --------------------------
 ! Name  Definition              Value          Derivative Info.                !
 --------------------------------------------------------------------------------
 ! R1    R(1,2)                  0.9889         -DE/DX =    0.0022              !
 ! R2    R(1,5)                  2.034          -DE/DX =    0.0007              !
 ! R3    R(2,3)                  2.1542         -DE/DX =   -0.0058              !
 ! R4    R(3,4)                  0.983          -DE/DX =    0.0003              !
 ! A1    A(2,1,5)              113.1098         -DE/DX =   -0.0037              !
 ! A2    A(1,2,3)              121.8493         -DE/DX =    0.0085              !
 ! A3    A(2,3,4)               78.0438         -DE/DX =    0.0011              !
 ! D1    D(5,1,2,3)            176.2036         -DE/DX =    0.0002              !
 ! D2    D(1,2,3,4)            -78.6988         -DE/DX =    0.0008              !
 --------------------------------------------------------------------------------
 GradGradGradGradGradGradGradGradGradGradGradGradGradGradGradGradGradGrad

                          Input orientation:                          
 ---------------------------------------------------------------------
 Center     Atomic      Atomic             Coordinates (Angstroms)
 Number     Number       Type             X           Y           Z
 ---------------------------------------------------------------------
      1          8           0       -1.444494    0.588544    0.649844
      2          1           0       -0.946646    0.721371   -0.194761
      3          8           0        1.192640    0.743754   -0.269835
      4          1           0        1.000646    1.643958    0.075112
      5         53           0       -3.459488    0.749029    0.424355
 ---------------------------------------------------------------------
                    Distance matrix (angstroms):
                    1          2          3          4          5
     1  O    0.000000
     2  H    0.989370   0.000000
     3  O    2.797208   2.140719   0.000000
     4  H    2.724505   2.171622   0.982964   0.000000
     5  I    2.033913   2.588135   4.703638   4.562418   0.000000
 Stoichiometry    H2IO2(1-)
 Framework group  C1[X(H2IO2)]
 Deg. of freedom     9
 Full point group                 C1      NOp   1
 Largest Abelian subgroup         C1      NOp   1
 Largest concise Abelian subgroup C1      NOp   1
                         Standard orientation:                         
 ---------------------------------------------------------------------
 Center     Atomic      Atomic             Coordinates (Angstroms)
 Number     Number       Type             X           Y           Z
 ---------------------------------------------------------------------
      1          8           0       -1.121400    0.458178   -0.003486
      2          1           0       -1.716899   -0.316824   -0.157124
      3          8           0       -3.850136   -0.150696   -0.090923
      4          1           0       -3.626496   -0.167289    0.866118
      5         53           0        0.851239   -0.037278    0.000873
 ---------------------------------------------------------------------
 Rotational constants (GHZ):    103.0597951      1.3922753      1.3803404

 **********************************************************************

            Population analysis using the SCF density.

 **********************************************************************

 Orbital symmetries:
       Occupied  (A) (A) (A) (A) (A) (A) (A) (A) (A) (A) (A) (A)
                 (A)
       Virtual   (A) (A) (A) (A) (A) (A) (A) (A) (A) (A) (A) (A)
                 (A) (A) (A) (A) (A)
 The electronic state is 1-A.
 Alpha  occ. eigenvalues --  -19.64967 -19.51405  -1.10638  -0.95565  -0.73740
 Alpha  occ. eigenvalues --   -0.53671  -0.42813  -0.42251  -0.40220  -0.30808
 Alpha  occ. eigenvalues --   -0.29591  -0.27863  -0.27478
 Alpha virt. eigenvalues --   -0.04445   0.18453   0.24500   0.42026   0.42582
 Alpha virt. eigenvalues --    0.43370   0.69156   0.69999   0.74754   0.79318
 Alpha virt. eigenvalues --    0.80006   0.91673   1.01634   1.13364   1.41557
 Alpha virt. eigenvalues --    1.53743   9.33470
          Condensed to atoms (all electrons):
              1          2          3          4          5
     1  O    8.653840   0.225827  -0.016690   0.002430   0.028945
     2  H    0.225827   0.304181   0.051039  -0.003989  -0.016806
     3  O   -0.016690   0.051039   8.927479   0.270277   0.001964
     4  H    0.002430  -0.003989   0.270277   0.412851  -0.000028
     5  I    0.028945  -0.016806   0.001964  -0.000028   6.615709
 Mulliken atomic charges:
              1
     1  O   -0.894352
     2  H    0.439747
     3  O   -1.234069
     4  H    0.318459
     5  I    0.370215
 Sum of Mulliken atomic charges =  -1.00000
 Mulliken charges with hydrogens summed into heavy atoms:
              1
     1  O   -0.454606
     3  O   -0.915610
     5  I    0.370215
 Sum of Mulliken charges with hydrogens summed into heavy atoms =  -1.00000
 Electronic spatial extent (au):  <R**2>=            671.1131
 Charge=             -1.0000 electrons
 Dipole moment (field-independent basis, Debye):
    X=             18.6987    Y=             -2.0850    Z=              2.0457  Tot=             18.9255
 Quadrupole moment (field-independent basis, Debye-Ang):
   XX=            -99.2542   YY=            -36.2902   ZZ=            -33.8666
   XY=              0.3788   XZ=             -8.1649   YZ=             -0.2496
 Traceless Quadrupole moment (field-independent basis, Debye-Ang):
   XX=            -42.7839   YY=             20.1801   ZZ=             22.6038
   XY=              0.3788   XZ=             -8.1649   YZ=             -0.2496
 Octapole moment (field-independent basis, Debye-Ang**2):
  XXX=            343.0766  YYY=             -2.8543  ZZZ=              2.0537  XYY=             23.2265
  XXY=              2.1502  XXZ=             31.6423  XZZ=             14.4031  YZZ=             -1.1955
  YYZ=              0.5236  XYZ=              1.2707
 Hexadecapole moment (field-independent basis, Debye-Ang**3):
 XXXX=          -1939.2250 YYYY=            -59.2378 ZZZZ=            -50.6855 XXXY=            -40.8421
 XXXZ=           -120.3439 YYYX=             -3.3625 YYYZ=             -0.1015 ZZZX=             -7.5004
 ZZZY=             -0.2931 XXYY=           -164.1505 XXZZ=           -134.1099 YYZZ=            -18.5030
 XXYZ=             -5.1381 YYXZ=             -1.8690 ZZXY=             -0.0332
 N-N= 4.758323713332D+01 E-N=-4.823889654672D+02  KE= 1.539780704945D+02


 IF YOU WISH TO UNDERSTAND THE FRAGRANCE OF THE ROSE, 
 OR THE TENACITY OF THE OAK; 
 IF YOU ARE NOT SATISFIED UNTIL YOU KNOW THE SECRET PATHS 
 BY WHICH THE SUNSHINE AND THE AIR ACHIEVE THESE WONDERS; 
 IF YOU WISH TO SEE THE PATTERN WHICH UNDERLIES ONE LARGE FIELD OF 
 HUMAN EXPERIENCE AND HUMAN MEASUREMENT, THEN TAKE UP CHEMISTRY.

                                         -- C. A. COULSON, 1973.
 Error termination request processed by link 9999.
 Error termination via Lnk1e in C:\G09W\l9999.exe at Tue Feb 02 03:46:35 2021.
 Job cpu time:  0 days  0 hours  1 minutes 45.0 seconds.
 File lengths (MBytes):  RWF=     19 Int=      0 D2E=      0 Chk=      2 Scr=      1
