 Entering Link 1 = C:\G09W\l1.exe PID=     13684.
  
 Copyright (c) 1988,1990,1992,1993,1995,1998,2003,2009, Gaussian, Inc.
                  All Rights Reserved.
  
 This is part of the Gaussian(R) 09 program.  It is based on
 the Gaussian(R) 03 system (copyright 2003, Gaussian, Inc.),
 the Gaussian(R) 98 system (copyright 1998, Gaussian, Inc.),
 the Gaussian(R) 94 system (copyright 1995, Gaussian, Inc.),
 the Gaussian 92(TM) system (copyright 1992, Gaussian, Inc.),
 the Gaussian 90(TM) system (copyright 1990, Gaussian, Inc.),
 the Gaussian 88(TM) system (copyright 1988, Gaussian, Inc.),
 the Gaussian 86(TM) system (copyright 1986, Carnegie Mellon
 University), and the Gaussian 82(TM) system (copyright 1983,
 Carnegie Mellon University). Gaussian is a federally registered
 trademark of Gaussian, Inc.
  
 This software contains proprietary and confidential information,
 including trade secrets, belonging to Gaussian, Inc.
  
 This software is provided under written license and may be
 used, copied, transmitted, or stored only in accord with that
 written license.
  
 The following legend is applicable only to US Government
 contracts under FAR:
  
                    RESTRICTED RIGHTS LEGEND
  
 Use, reproduction and disclosure by the US Government is
 subject to restrictions as set forth in subparagraphs (a)
 and (c) of the Commercial Computer Software - Restricted
 Rights clause in FAR 52.227-19.
  
 Gaussian, Inc.
 340 Quinnipiac St., Bldg. 40, Wallingford CT 06492
  
  
 ---------------------------------------------------------------
 Warning -- This program may not be used in any manner that
 competes with the business of Gaussian, Inc. or will provide
 assistance to any competitor of Gaussian, Inc.  The licensee
 of this program is prohibited from giving any competitor of
 Gaussian, Inc. access to this program.  By using this program,
 the user acknowledges that Gaussian, Inc. is engaged in the
 business of creating and licensing software in the field of
 computational chemistry and represents and warrants to the
 licensee that it is not a competitor of Gaussian, Inc. and that
 it will not use this program in any manner prohibited above.
 ---------------------------------------------------------------
  

 Cite this work as:
 Gaussian 09, Revision A.02,
 M. J. Frisch, G. W. Trucks, H. B. Schlegel, G. E. Scuseria, 
 M. A. Robb, J. R. Cheeseman, G. Scalmani, V. Barone, B. Mennucci, 
 G. A. Petersson, H. Nakatsuji, M. Caricato, X. Li, H. P. Hratchian, 
 A. F. Izmaylov, J. Bloino, G. Zheng, J. L. Sonnenberg, M. Hada, 
 M. Ehara, K. Toyota, R. Fukuda, J. Hasegawa, M. Ishida, T. Nakajima, 
 Y. Honda, O. Kitao, H. Nakai, T. Vreven, J. A. Montgomery, Jr., 
 J. E. Peralta, F. Ogliaro, M. Bearpark, J. J. Heyd, E. Brothers, 
 K. N. Kudin, V. N. Staroverov, R. Kobayashi, J. Normand, 
 K. Raghavachari, A. Rendell, J. C. Burant, S. S. Iyengar, J. Tomasi, 
 M. Cossi, N. Rega, J. M. Millam, M. Klene, J. E. Knox, J. B. Cross, 
 V. Bakken, C. Adamo, J. Jaramillo, R. Gomperts, R. E. Stratmann, 
 O. Yazyev, A. J. Austin, R. Cammi, C. Pomelli, J. W. Ochterski, 
 R. L. Martin, K. Morokuma, V. G. Zakrzewski, G. A. Voth, 
 P. Salvador, J. J. Dannenberg, S. Dapprich, A. D. Daniels, 
 O. Farkas, J. B. Foresman, J. V. Ortiz, J. Cioslowski, 
 and D. J. Fox, Gaussian, Inc., Wallingford CT, 2009.
 
 ******************************************
 Gaussian 09:  IA32W-G09RevA.02 11-Jun-2009
                02-Feb-2021 
 ******************************************
 %chk=D:\Documents\rayGit\FQ\quimicaComputacional\proyecto\decompositionHydrogenP
 eroxide\decompositionCatalyzedByIodine\step1\ts\ts.chk
 %mem=1500MB
 %nprocshared=4
 Will use up to    4 processors via shared memory.
 ----------------------------------------------------------------------
 # opt=(readfc,ts,noeigen) geom=check guess=check freq=noraman lanl2dz 
 scrf=smd iop(1/8=3) m062x
 ----------------------------------------------------------------------
 1/5=1,8=3,10=3,11=1,14=-1,18=20,26=3,29=2,38=1/1,3;
 2/9=110,12=2,40=1/2;
 3/5=6,6=3,11=2,14=-4,16=1,25=1,30=1,70=32201,71=1,72=1,74=-55,116=-2/1,2,3;
 4/5=1/1;
 5/5=2,38=6/2;
 6/7=2,8=2,9=2,10=2,28=1/1;
 7//1,2,3,16;
 1/5=1,8=3,11=1,14=-1,18=20/3(2);
 2/9=110/2;
 99//99;
 2/9=110/2;
 3/5=6,6=3,11=2,14=-2,16=1,25=1,30=1,70=32205,71=1,74=-55/1,2,3;
 4/5=5,16=3/1;
 5/5=2,38=5/2;
 7//1,2,3,16;
 1/5=1,8=3,11=1,14=-1,18=20/3(-5);
 2/9=110/2;
 6/7=2,8=2,9=2,10=2,19=2,28=1/1;
 99/9=1/99;
 -------------------------------
 Hydrogen peroxide with iodine 6
 -------------------------------
 Redundant internal coordinates taken from checkpoint file:
 D:\Documents\rayGit\FQ\quimicaComputacional\proyecto\decompositionHydrogenPeroxide\decompositionCatalyzedByIodine\step1\ts\ts.chk
 Charge = -1 Multiplicity = 1
 O,0,-1.4444937715,0.5885437922,0.649843879
 H,0,-0.9466460051,0.7213712019,-0.1947606824
 O,0,1.1926395285,0.7437542374,-0.2698349422
 H,0,1.0006459312,1.6439583879,0.0751119335
 I,0,-3.4594876831,0.7490291106,0.4243546622
 Recover connectivity data from disk.

 GradGradGradGradGradGradGradGradGradGradGradGradGradGradGradGradGradGrad
 Berny optimization.
 Initialization pass.
 Force constant matrix read from checkpoint file:
 D:\Documents\rayGit\FQ\quimicaComputacional\proyecto\decompositionHydrogenPeroxi
 de\decompositionCatalyzedByIodine\step1\ts\ts.chk
                           ----------------------------
                           !    Initial Parameters    !
                           ! (Angstroms and Degrees)  !
 --------------------------                            --------------------------
 ! Name  Definition              Value          Derivative Info.                !
 --------------------------------------------------------------------------------
 ! R1    R(1,2)                  0.9894         D2E/DX2 =    0.303              !
 ! R2    R(1,5)                  2.0339         D2E/DX2 =    0.1862             !
 ! R3    R(2,3)                  2.1407         D2E/DX2 =    0.0303             !
 ! R4    R(3,4)                  0.983          D2E/DX2 =    0.5946             !
 ! A1    A(2,1,5)              113.1587         D2E/DX2 =    0.0894             !
 ! A2    A(1,2,3)              122.2898         D2E/DX2 =    0.1858             !
 ! A3    A(2,3,4)               78.5846         D2E/DX2 =    0.0721             !
 ! D1    D(5,1,2,3)            175.8823         D2E/DX2 =    0.0246             !
 ! D2    D(1,2,3,4)            -78.2191         D2E/DX2 =    0.0219             !
 --------------------------------------------------------------------------------
 Trust Radius=3.00D-02 FncErr=1.00D-07 GrdErr=1.00D-06
 Number of steps in this run=  20 maximum allowed number of steps= 100.
 Search for a saddle point of order  1.
 GradGradGradGradGradGradGradGradGradGradGradGradGradGradGradGradGradGrad

                          Input orientation:                          
 ---------------------------------------------------------------------
 Center     Atomic      Atomic             Coordinates (Angstroms)
 Number     Number       Type             X           Y           Z
 ---------------------------------------------------------------------
      1          8           0       -1.444494    0.588544    0.649844
      2          1           0       -0.946646    0.721371   -0.194761
      3          8           0        1.192640    0.743754   -0.269835
      4          1           0        1.000646    1.643958    0.075112
      5         53           0       -3.459488    0.749029    0.424355
 ---------------------------------------------------------------------
                    Distance matrix (angstroms):
                    1          2          3          4          5
     1  O    0.000000
     2  H    0.989370   0.000000
     3  O    2.797208   2.140719   0.000000
     4  H    2.724505   2.171622   0.982964   0.000000
     5  I    2.033913   2.588135   4.703638   4.562418   0.000000
 Stoichiometry    H2IO2(1-)
 Framework group  C1[X(H2IO2)]
 Deg. of freedom     9
 Full point group                 C1      NOp   1
 Largest Abelian subgroup         C1      NOp   1
 Largest concise Abelian subgroup C1      NOp   1
                         Standard orientation:                         
 ---------------------------------------------------------------------
 Center     Atomic      Atomic             Coordinates (Angstroms)
 Number     Number       Type             X           Y           Z
 ---------------------------------------------------------------------
      1          8           0       -1.121400    0.458178   -0.003486
      2          1           0       -1.716899   -0.316824   -0.157124
      3          8           0       -3.850136   -0.150696   -0.090923
      4          1           0       -3.626496   -0.167289    0.866118
      5         53           0        0.851239   -0.037278    0.000873
 ---------------------------------------------------------------------
 Rotational constants (GHZ):    103.0597951      1.3922753      1.3803404
 Standard basis: LANL2DZ (5D, 7F)
 There are    30 symmetry adapted basis functions of A   symmetry.
 Integral buffers will be    262144 words long.
 Raffenetti 2 integral format.
 Two-electron integral symmetry is turned on.
    30 basis functions,    70 primitive gaussians,    30 cartesian basis functions
    13 alpha electrons       13 beta electrons
       nuclear repulsion energy        47.5815864302 Hartrees.
 NAtoms=    5 NActive=    5 NUniq=    5 SFac= 7.50D-01 NAtFMM=   80 NAOKFM=F Big=F
 ------------------------------------------------------------------------------
 Polarizable Continuum Model (PCM)
 =================================
 Model                : PCM.
 Atomic radii         : SMD-Coulomb.
 Polarization charges : Total charges.
 Charge compensation  : None.
 Solution method      : Matrix inversion.
 Cavity type          : VdW (van der Waals Surface) (Alpha=1.000).
 Cavity algorithm     : GePol (No added spheres)
                        Default sphere list used, NSphG=    5.
                        Lebedev-Laikov grids with approx.  5.0 points / Ang**2.
                        Smoothing algorithm: Karplus/York (Gamma=1.0000).
                        Polarization charges: spherical gaussians, with
                                              point-specific exponents (IZeta= 3).
                        Self-potential: point-specific (ISelfS= 7).
                        Self-field    : sphere-specific E.n sum rule (ISelfD= 2).
 1st derivatives      : Analytical E(r).r(x)/FMM algorithm (CHGder, D1EAlg=3).
                        Cavity 1st derivative terms included.
 Solvent              : Water, Eps=  78.355300 Eps(inf)=   1.777849
 ------------------------------------------------------------------------------
 Spheres list:
 ISph  on   Nord    Re0     Alpha      Xe            Ye            Ze
    1   O      1    1.520   1.000     -1.121400      0.458178     -0.003486
    2   H      2    1.200   1.000     -1.716899     -0.316824     -0.157124
    3   O      3    1.520   1.000     -3.850136     -0.150696     -0.090923
    4   H      4    1.200   1.000     -3.626496     -0.167289      0.866118
    5   I      5    1.980   1.000      0.851239     -0.037278      0.000873
 ------------------------------------------------------------------------------
 ------------------------------------------------------------------------------
 Atomic radii for non-electrostatic terms: SMD-CDS.
 ------------------------------------------------------------------------------
 Nuclear repulsion after PCM non-electrostatic terms =       47.5832371333 Hartrees.
 One-electron integrals computed using PRISM.
   1 Symmetry operations used in ECPInt.
 ECPInt:  NShTT=     171 NPrTT=    1054 LenC2=     172 LenP2D=     888.
 LDataN:  DoStor=T MaxTD1= 4 Len=   56
 NBasis=    30 RedAO= T  NBF=    30
 NBsUse=    30 1.00D-06 NBFU=    30
 Defaulting to unpruned grid for atomic number  53.
 Initial guess read from the checkpoint file:  D:\Documents\rayGit\FQ\quimicaComp
 utacional\proyecto\decompositionHydrogenPeroxide\decompositionCatalyzedByIodine\
 step1\ts\ts.chk
 B after Tr=     0.000000    0.000000    0.000000
         Rot=    1.000000    0.000000    0.000000    0.000000 Ang=   0.00 deg.
 Initial guess orbital symmetries:
       Occupied  (A) (A) (A) (A) (A) (A) (A) (A) (A) (A) (A) (A)
                 (A)
       Virtual   (A) (A) (A) (A) (A) (A) (A) (A) (A) (A) (A) (A)
                 (A) (A) (A) (A) (A)
 Requested convergence on RMS density matrix=1.00D-08 within 128 cycles.
 Requested convergence on MAX density matrix=1.00D-06.
 Requested convergence on             energy=1.00D-06.
 No special actions if energy rises.
 Keep R1 ints in memory in canonical form, NReq=3465684.
 Defaulting to unpruned grid for atomic number  53.
 Defaulting to unpruned grid for atomic number  53.
 Defaulting to unpruned grid for atomic number  53.
 Defaulting to unpruned grid for atomic number  53.
 Error on total polarization charges =  0.07390
 SCF Done:  E(RM062X) =  -162.998989739     A.U. after    1 cycles
             Convg  =    0.8755D-09             -V/T =  2.0586
 SMD-CDS (non-electrostatic) energy             (kcal/mol) =       1.04
 (included in total energy above)

 **********************************************************************

            Population analysis using the SCF density.

 **********************************************************************

 Orbital symmetries:
       Occupied  (A) (A) (A) (A) (A) (A) (A) (A) (A) (A) (A) (A)
                 (A)
       Virtual   (A) (A) (A) (A) (A) (A) (A) (A) (A) (A) (A) (A)
                 (A) (A) (A) (A) (A)
 The electronic state is 1-A.
 Alpha  occ. eigenvalues --  -19.64967 -19.51405  -1.10638  -0.95565  -0.73740
 Alpha  occ. eigenvalues --   -0.53671  -0.42813  -0.42251  -0.40220  -0.30808
 Alpha  occ. eigenvalues --   -0.29591  -0.27863  -0.27478
 Alpha virt. eigenvalues --   -0.04445   0.18453   0.24500   0.42026   0.42582
 Alpha virt. eigenvalues --    0.43370   0.69156   0.69999   0.74754   0.79318
 Alpha virt. eigenvalues --    0.80006   0.91673   1.01634   1.13364   1.41557
 Alpha virt. eigenvalues --    1.53743   9.33470
          Condensed to atoms (all electrons):
              1          2          3          4          5
     1  O    8.653840   0.225827  -0.016690   0.002430   0.028945
     2  H    0.225827   0.304181   0.051039  -0.003989  -0.016806
     3  O   -0.016690   0.051039   8.927479   0.270277   0.001964
     4  H    0.002430  -0.003989   0.270277   0.412851  -0.000028
     5  I    0.028945  -0.016806   0.001964  -0.000028   6.615709
 Mulliken atomic charges:
              1
     1  O   -0.894352
     2  H    0.439747
     3  O   -1.234069
     4  H    0.318459
     5  I    0.370215
 Sum of Mulliken atomic charges =  -1.00000
 Mulliken charges with hydrogens summed into heavy atoms:
              1
     1  O   -0.454606
     3  O   -0.915610
     5  I    0.370215
 Sum of Mulliken charges with hydrogens summed into heavy atoms =  -1.00000
 Electronic spatial extent (au):  <R**2>=            671.1131
 Charge=             -1.0000 electrons
 Dipole moment (field-independent basis, Debye):
    X=             18.6987    Y=             -2.0850    Z=              2.0457  Tot=             18.9255
 Quadrupole moment (field-independent basis, Debye-Ang):
   XX=            -99.2542   YY=            -36.2902   ZZ=            -33.8666
   XY=              0.3788   XZ=             -8.1649   YZ=             -0.2496
 Traceless Quadrupole moment (field-independent basis, Debye-Ang):
   XX=            -42.7839   YY=             20.1801   ZZ=             22.6038
   XY=              0.3788   XZ=             -8.1649   YZ=             -0.2496
 Octapole moment (field-independent basis, Debye-Ang**2):
  XXX=            343.0766  YYY=             -2.8543  ZZZ=              2.0537  XYY=             23.2265
  XXY=              2.1502  XXZ=             31.6423  XZZ=             14.4031  YZZ=             -1.1955
  YYZ=              0.5236  XYZ=              1.2707
 Hexadecapole moment (field-independent basis, Debye-Ang**3):
 XXXX=          -1939.2250 YYYY=            -59.2378 ZZZZ=            -50.6855 XXXY=            -40.8421
 XXXZ=           -120.3439 YYYX=             -3.3625 YYYZ=             -0.1015 ZZZX=             -7.5004
 ZZZY=             -0.2931 XXYY=           -164.1505 XXZZ=           -134.1099 YYZZ=            -18.5030
 XXYZ=             -5.1381 YYXZ=             -1.8690 ZZXY=             -0.0332
 N-N= 4.758323713332D+01 E-N=-4.823889654149D+02  KE= 1.539780704658D+02
   1 Symmetry operations used in ECPInt.
 ECPInt:  NShTT=     171 NPrTT=    1054 LenC2=     172 LenP2D=     888.
 LDataN:  DoStor=T MaxTD1= 5 Len=  102
 D1PCM: PCM CHGder 1st derivatives, ID1Alg=3 FixD1E=F DoIter=F DoCFld=F I1PDM=0.
 Calling FoFJK, ICntrl=      2127 FMM=F ISym2X=0 I1Cent= 0 IOpClX= 0 NMat=1 NMatS=1 NMatT=0.
 Defaulting to unpruned grid for atomic number  53.
 Defaulting to unpruned grid for atomic number  53.
 Defaulting to unpruned grid for atomic number  53.
 Defaulting to unpruned grid for atomic number  53.
 ***** Axes restored to original set *****
 -------------------------------------------------------------------
 Center     Atomic                   Forces (Hartrees/Bohr)
 Number     Number              X              Y              Z
 -------------------------------------------------------------------
      1        8          -0.002673385   -0.000132211    0.001726470
      2        1           0.009173185   -0.000693255    0.000990846
      3        8          -0.006489031    0.000519379   -0.002584987
      4        1           0.000529707    0.000325042    0.000587061
      5       53          -0.000540476   -0.000018954   -0.000719390
 -------------------------------------------------------------------
 Cartesian Forces:  Max     0.009173185 RMS     0.003123622

 GradGradGradGradGradGradGradGradGradGradGradGradGradGradGradGradGradGrad
 Berny optimization.
 Internal  Forces:  Max     0.008485494 RMS     0.003760455
 Search for a saddle point.
 Step number   1 out of a maximum of   20
 All quantities printed in internal units (Hartrees-Bohrs-Radians)
 Swaping is turned off.
 Second derivative matrix not updated -- first step.
 The second derivative matrix:
                          R1        R2        R3        R4        A1
           R1           0.30304
           R2           0.04154   0.18619
           R3           0.04655   0.02347   0.03031
           R4          -0.00299  -0.00429   0.00315   0.59456
           A1           0.03110   0.03742   0.00660  -0.00970   0.08935
           A2           0.09002   0.07377   0.06026  -0.00240   0.04194
           A3           0.02023   0.00449   0.03380   0.00994  -0.00340
           D1          -0.00011   0.00091  -0.00358  -0.00171  -0.00257
           D2          -0.01115  -0.00840   0.00581   0.00340  -0.00908
                          A2        A3        D1        D2
           A2           0.18581
           A3          -0.00776   0.07207
           D1           0.00151  -0.00289   0.02461
           D2          -0.02952   0.02481   0.00426   0.02186
     Eigenvalues ---   -0.00734   0.00713   0.02599   0.07128   0.09289
     Eigenvalues ---    0.11472   0.19891   0.40903   0.59519
 Eigenvectors required to have negative eigenvalues:
                          R3        A2        A3        D2        D1
   1                    0.85400  -0.31755  -0.30502  -0.24149   0.11946
                          A1        R1        R2        R4
   1                    0.05585  -0.03160   0.00955   0.00182
 RFO step:  Lambda0=5.540777578D-03 Lambda=-5.06370383D-04.
 Linear search not attempted -- option 19 set.
 Maximum step size (   0.030) exceeded in Quadratic search.
    -- Step size scaled by   0.045
 Iteration  1 RMS(Cart)=  0.00871503 RMS(Int)=  0.00004264
 Iteration  2 RMS(Cart)=  0.00004736 RMS(Int)=  0.00000000
 Iteration  3 RMS(Cart)=  0.00000000 RMS(Int)=  0.00000000
 Variable       Old X    -DE/DX   Delta X   Delta X   Delta X     New X
                                 (Linear)    (Quad)   (Total)
    R1        1.86964   0.00224   0.00000  -0.00093  -0.00093   1.86871
    R2        3.84354   0.00071   0.00000   0.00022   0.00022   3.84376
    R3        4.04537  -0.00581   0.00000   0.02547   0.02547   4.07084
    R4        1.85753   0.00032   0.00000   0.00006   0.00006   1.85760
    A1        1.97499  -0.00372   0.00000  -0.00086  -0.00086   1.97414
    A2        2.13436   0.00849   0.00000  -0.00769  -0.00769   2.12667
    A3        1.37156   0.00115   0.00000  -0.00944  -0.00944   1.36212
    D1        3.06973   0.00023   0.00000   0.00561   0.00561   3.07533
    D2       -1.36518   0.00082   0.00000  -0.00837  -0.00837  -1.37355
         Item               Value     Threshold  Converged?
 Maximum Force            0.008485     0.000450     NO 
 RMS     Force            0.003760     0.000300     NO 
 Maximum Displacement     0.016196     0.001800     NO 
 RMS     Displacement     0.008726     0.001200     NO 
 Predicted change in Energy= 2.255812D-04
 GradGradGradGradGradGradGradGradGradGradGradGradGradGradGradGradGradGrad

                          Input orientation:                          
 ---------------------------------------------------------------------
 Center     Atomic      Atomic             Coordinates (Angstroms)
 Number     Number       Type             X           Y           Z
 ---------------------------------------------------------------------
      1          8           0       -1.446025    0.590428    0.647658
      2          1           0       -0.951838    0.725914   -0.198099
      3          8           0        1.201210    0.742152   -0.266547
      4          1           0        1.001489    1.642465    0.073794
      5         53           0       -3.462178    0.745697    0.427908
 ---------------------------------------------------------------------
                    Distance matrix (angstroms):
                    1          2          3          4          5
     1  O    0.000000
     2  H    0.988879   0.000000
     3  O    2.804753   2.154197   0.000000
     4  H    2.725147   2.174736   0.982997   0.000000
     5  I    2.034029   2.587293   4.714814   4.566609   0.000000
 Stoichiometry    H2IO2(1-)
 Framework group  C1[X(H2IO2)]
 Deg. of freedom     9
 Full point group                 C1      NOp   1
 Largest Abelian subgroup         C1      NOp   1
 Largest concise Abelian subgroup C1      NOp   1
                         Standard orientation:                         
 ---------------------------------------------------------------------
 Center     Atomic      Atomic             Coordinates (Angstroms)
 Number     Number       Type             X           Y           Z
 ---------------------------------------------------------------------
      1          8           0       -1.121540    0.452639   -0.003244
      2          1           0       -1.713874   -0.324995   -0.152600
      3          8           0       -3.859881   -0.147715   -0.091026
      4          1           0       -3.629592   -0.166421    0.864432
      5         53           0        0.852733   -0.036754    0.000799
 ---------------------------------------------------------------------
 Rotational constants (GHZ):    105.1811074      1.3864362      1.3749395
 Standard basis: LANL2DZ (5D, 7F)
 There are    30 symmetry adapted basis functions of A   symmetry.
 Integral buffers will be    262144 words long.
 Raffenetti 2 integral format.
 Two-electron integral symmetry is turned on.
    30 basis functions,    70 primitive gaussians,    30 cartesian basis functions
    13 alpha electrons       13 beta electrons
       nuclear repulsion energy        47.5218586296 Hartrees.
 NAtoms=    5 NActive=    5 NUniq=    5 SFac= 7.50D-01 NAtFMM=   80 NAOKFM=F Big=F
 ------------------------------------------------------------------------------
 Polarizable Continuum Model (PCM)
 =================================
 Model                : PCM.
 Atomic radii         : SMD-Coulomb.
 Polarization charges : Total charges.
 Charge compensation  : None.
 Solution method      : Matrix inversion.
 Cavity type          : VdW (van der Waals Surface) (Alpha=1.000).
 Cavity algorithm     : GePol (No added spheres)
                        Default sphere list used, NSphG=    5.
                        Lebedev-Laikov grids with approx.  5.0 points / Ang**2.
                        Smoothing algorithm: Karplus/York (Gamma=1.0000).
                        Polarization charges: spherical gaussians, with
                                              point-specific exponents (IZeta= 3).
                        Self-potential: point-specific (ISelfS= 7).
                        Self-field    : sphere-specific E.n sum rule (ISelfD= 2).
 1st derivatives      : Analytical E(r).r(x)/FMM algorithm (CHGder, D1EAlg=3).
                        Cavity 1st derivative terms included.
 Solvent              : Water, Eps=  78.355300 Eps(inf)=   1.777849
 ------------------------------------------------------------------------------
 Spheres list:
 ISph  on   Nord    Re0     Alpha      Xe            Ye            Ze
    1   O      1    1.520   1.000     -1.121540      0.452639     -0.003244
    2   H      2    1.200   1.000     -1.713874     -0.324995     -0.152600
    3   O      3    1.520   1.000     -3.859881     -0.147715     -0.091026
    4   H      4    1.200   1.000     -3.629592     -0.166421      0.864432
    5   I      5    1.980   1.000      0.852733     -0.036754      0.000799
 ------------------------------------------------------------------------------
 ------------------------------------------------------------------------------
 Atomic radii for non-electrostatic terms: SMD-CDS.
 ------------------------------------------------------------------------------
 Nuclear repulsion after PCM non-electrostatic terms =       47.5235094908 Hartrees.
 One-electron integrals computed using PRISM.
   1 Symmetry operations used in ECPInt.
 ECPInt:  NShTT=     171 NPrTT=    1054 LenC2=     172 LenP2D=     888.
 LDataN:  DoStor=T MaxTD1= 4 Len=   56
 NBasis=    30 RedAO= T  NBF=    30
 NBsUse=    30 1.00D-06 NBFU=    30
 Defaulting to unpruned grid for atomic number  53.
 Initial guess read from the read-write file.
 B after Tr=     0.000000    0.000000    0.000000
         Rot=    1.000000    0.000000    0.000000    0.000000 Ang=   0.00 deg.
 Initial guess orbital symmetries:
       Occupied  (A) (A) (A) (A) (A) (A) (A) (A) (A) (A) (A) (A)
                 (A)
       Virtual   (A) (A) (A) (A) (A) (A) (A) (A) (A) (A) (A) (A)
                 (A) (A) (A) (A) (A)
 Requested convergence on RMS density matrix=1.00D-08 within 128 cycles.
 Requested convergence on MAX density matrix=1.00D-06.
 Requested convergence on             energy=1.00D-06.
 No special actions if energy rises.
 Keep R1 ints in memory in canonical form, NReq=3464339.
 Defaulting to unpruned grid for atomic number  53.
 Defaulting to unpruned grid for atomic number  53.
 Defaulting to unpruned grid for atomic number  53.
 Defaulting to unpruned grid for atomic number  53.
 Error on total polarization charges =  0.07390
 SCF Done:  E(RM062X) =  -162.998763479     A.U. after   10 cycles
             Convg  =    0.7282D-08             -V/T =  2.0586
 SMD-CDS (non-electrostatic) energy             (kcal/mol) =       1.04
 (included in total energy above)
   1 Symmetry operations used in ECPInt.
 ECPInt:  NShTT=     171 NPrTT=    1054 LenC2=     172 LenP2D=     888.
 LDataN:  DoStor=T MaxTD1= 5 Len=  102
 D1PCM: PCM CHGder 1st derivatives, ID1Alg=3 FixD1E=F DoIter=F DoCFld=F I1PDM=0.
 Calling FoFJK, ICntrl=      2127 FMM=F ISym2X=0 I1Cent= 0 IOpClX= 0 NMat=1 NMatS=1 NMatT=0.
 Defaulting to unpruned grid for atomic number  53.
 Defaulting to unpruned grid for atomic number  53.
 Defaulting to unpruned grid for atomic number  53.
 Defaulting to unpruned grid for atomic number  53.
 ***** Axes restored to original set *****
 -------------------------------------------------------------------
 Center     Atomic                   Forces (Hartrees/Bohr)
 Number     Number              X              Y              Z
 -------------------------------------------------------------------
      1        8          -0.002657442   -0.000118621    0.001812478
      2        1           0.008948439   -0.000700932    0.000796728
      3        8          -0.006315143    0.000525977   -0.002534660
      4        1           0.000526059    0.000327102    0.000588233
      5       53          -0.000501914   -0.000033526   -0.000662780
 -------------------------------------------------------------------
 Cartesian Forces:  Max     0.008948439 RMS     0.003050312

 GradGradGradGradGradGradGradGradGradGradGradGradGradGradGradGradGradGrad
 Berny optimization.
 Internal  Forces:  Max     0.008158831 RMS     0.003639146
 Search for a saddle point.
 Step number   2 out of a maximum of   20
 All quantities printed in internal units (Hartrees-Bohrs-Radians)
 Swaping is turned off.
 Update second derivatives using D2CorX and points    1    2
 The second derivative matrix:
                          R1        R2        R3        R4        A1
           R1           0.30243
           R2           0.04155   0.18619
           R3           0.04172   0.02379   0.02885
           R4          -0.00306  -0.00428   0.00280   0.59456
           A1           0.03131   0.03741   0.00693  -0.00969   0.08933
           A2           0.09140   0.07368   0.06022  -0.00231   0.04186
           A3           0.02193   0.00437   0.03381   0.01006  -0.00350
           D1          -0.00131   0.00099  -0.00472  -0.00180  -0.00246
           D2          -0.00964  -0.00850   0.00582   0.00351  -0.00917
                          A2        A3        D1        D2
           A2           0.18596
           A3          -0.00759   0.07225
           D1           0.00174  -0.00260   0.02415
           D2          -0.02937   0.02497   0.00451   0.02200
     Eigenvalues ---   -0.00832   0.00713   0.02587   0.07117   0.09291
     Eigenvalues ---    0.11477   0.19861   0.40841   0.59519
 Eigenvectors required to have negative eigenvalues:
                          R3        A2        A3        D2        D1
   1                    0.85143  -0.31986  -0.30663  -0.23051   0.15167
                          A1        R1        R2        R4
   1                    0.04930  -0.01085   0.00596   0.00252
 RFO step:  Lambda0=4.965342892D-03 Lambda=-4.95990026D-04.
 Linear search not attempted -- option 19 set.
 Maximum step size (   0.030) exceeded in Quadratic search.
    -- Step size scaled by   0.049
 Iteration  1 RMS(Cart)=  0.00901850 RMS(Int)=  0.00004282
 Iteration  2 RMS(Cart)=  0.00004877 RMS(Int)=  0.00000000
 Iteration  3 RMS(Cart)=  0.00000000 RMS(Int)=  0.00000000
 Variable       Old X    -DE/DX   Delta X   Delta X   Delta X     New X
                                 (Linear)    (Quad)   (Total)
    R1        1.86871   0.00232   0.00000  -0.00022  -0.00022   1.86849
    R2        3.84376   0.00066   0.00000   0.00009   0.00009   3.84385
    R3        4.07084  -0.00565   0.00000   0.02524   0.02524   4.09608
    R4        1.85760   0.00031   0.00000   0.00009   0.00009   1.85768
    A1        1.97414  -0.00357   0.00000  -0.00115  -0.00115   1.97299
    A2        2.12667   0.00816   0.00000  -0.00766  -0.00766   2.11901
    A3        1.36212   0.00115   0.00000  -0.00951  -0.00951   1.35261
    D1        3.07533   0.00024   0.00000   0.00716   0.00716   3.08249
    D2       -1.37355   0.00083   0.00000  -0.00782  -0.00782  -1.38137
         Item               Value     Threshold  Converged?
 Maximum Force            0.008159     0.000450     NO 
 RMS     Force            0.003639     0.000300     NO 
 Maximum Displacement     0.015854     0.001800     NO 
 RMS     Displacement     0.009030     0.001200     NO 
 Predicted change in Energy= 2.139574D-04
 GradGradGradGradGradGradGradGradGradGradGradGradGradGradGradGradGradGrad

                          Input orientation:                          
 ---------------------------------------------------------------------
 Center     Atomic      Atomic             Coordinates (Angstroms)
 Number     Number       Type             X           Y           Z
 ---------------------------------------------------------------------
      1          8           0       -1.447644    0.593217    0.645917
      2          1           0       -0.957041    0.731277   -0.201371
      3          8           0        1.209599    0.740235   -0.263636
      4          1           0        1.002663    1.640500    0.072630
      5         53           0       -3.464919    0.741427    0.431174
 ---------------------------------------------------------------------
                    Distance matrix (angstroms):
                    1          2          3          4          5
     1  O    0.000000
     2  H    0.988761   0.000000
     3  O    2.812445   2.167553   0.000000
     4  H    2.725704   2.177659   0.983043   0.000000
     5  I    2.034079   2.586439   4.725873   4.571233   0.000000
 Stoichiometry    H2IO2(1-)
 Framework group  C1[X(H2IO2)]
 Deg. of freedom     9
 Full point group                 C1      NOp   1
 Largest Abelian subgroup         C1      NOp   1
 Largest concise Abelian subgroup C1      NOp   1
                         Standard orientation:                         
 ---------------------------------------------------------------------
 Center     Atomic      Atomic             Coordinates (Angstroms)
 Number     Number       Type             X           Y           Z
 ---------------------------------------------------------------------
      1          8           0       -1.121580    0.447216   -0.004013
      2          1           0       -1.710878   -0.334111   -0.145097
      3          8           0       -3.869517   -0.145340   -0.090968
      4          1           0       -3.633235   -0.160320    0.863139
      5         53           0        0.854205   -0.036237    0.000789
 ---------------------------------------------------------------------
 Rotational constants (GHZ):    107.2903429      1.3806998      1.3696145
 Standard basis: LANL2DZ (5D, 7F)
 There are    30 symmetry adapted basis functions of A   symmetry.
 Integral buffers will be    262144 words long.
 Raffenetti 2 integral format.
 Two-electron integral symmetry is turned on.
    30 basis functions,    70 primitive gaussians,    30 cartesian basis functions
    13 alpha electrons       13 beta electrons
       nuclear repulsion energy        47.4609764399 Hartrees.
 NAtoms=    5 NActive=    5 NUniq=    5 SFac= 7.50D-01 NAtFMM=   80 NAOKFM=F Big=F
 ------------------------------------------------------------------------------
 Polarizable Continuum Model (PCM)
 =================================
 Model                : PCM.
 Atomic radii         : SMD-Coulomb.
 Polarization charges : Total charges.
 Charge compensation  : None.
 Solution method      : Matrix inversion.
 Cavity type          : VdW (van der Waals Surface) (Alpha=1.000).
 Cavity algorithm     : GePol (No added spheres)
                        Default sphere list used, NSphG=    5.
                        Lebedev-Laikov grids with approx.  5.0 points / Ang**2.
                        Smoothing algorithm: Karplus/York (Gamma=1.0000).
                        Polarization charges: spherical gaussians, with
                                              point-specific exponents (IZeta= 3).
                        Self-potential: point-specific (ISelfS= 7).
                        Self-field    : sphere-specific E.n sum rule (ISelfD= 2).
 1st derivatives      : Analytical E(r).r(x)/FMM algorithm (CHGder, D1EAlg=3).
                        Cavity 1st derivative terms included.
 Solvent              : Water, Eps=  78.355300 Eps(inf)=   1.777849
 ------------------------------------------------------------------------------
 Spheres list:
 ISph  on   Nord    Re0     Alpha      Xe            Ye            Ze
    1   O      1    1.520   1.000     -1.121580      0.447216     -0.004013
    2   H      2    1.200   1.000     -1.710878     -0.334111     -0.145097
    3   O      3    1.520   1.000     -3.869517     -0.145340     -0.090968
    4   H      4    1.200   1.000     -3.633235     -0.160320      0.863139
    5   I      5    1.980   1.000      0.854205     -0.036237      0.000789
 ------------------------------------------------------------------------------
 ------------------------------------------------------------------------------
 Atomic radii for non-electrostatic terms: SMD-CDS.
 ------------------------------------------------------------------------------
 Nuclear repulsion after PCM non-electrostatic terms =       47.4626267042 Hartrees.
 One-electron integrals computed using PRISM.
   1 Symmetry operations used in ECPInt.
 ECPInt:  NShTT=     171 NPrTT=    1054 LenC2=     172 LenP2D=     886.
 LDataN:  DoStor=T MaxTD1= 4 Len=   56
 NBasis=    30 RedAO= T  NBF=    30
 NBsUse=    30 1.00D-06 NBFU=    30
 Defaulting to unpruned grid for atomic number  53.
 Initial guess read from the read-write file.
 B after Tr=     0.000000    0.000000    0.000000
         Rot=    1.000000    0.000000    0.000000    0.000000 Ang=   0.00 deg.
 Initial guess orbital symmetries:
       Occupied  (A) (A) (A) (A) (A) (A) (A) (A) (A) (A) (A) (A)
                 (A)
       Virtual   (A) (A) (A) (A) (A) (A) (A) (A) (A) (A) (A) (A)
                 (A) (A) (A) (A) (A)
 Requested convergence on RMS density matrix=1.00D-08 within 128 cycles.
 Requested convergence on MAX density matrix=1.00D-06.
 Requested convergence on             energy=1.00D-06.
 No special actions if energy rises.
 Keep R1 ints in memory in canonical form, NReq=3462995.
 Defaulting to unpruned grid for atomic number  53.
 Defaulting to unpruned grid for atomic number  53.
 Defaulting to unpruned grid for atomic number  53.
 Defaulting to unpruned grid for atomic number  53.
 Error on total polarization charges =  0.07390
 SCF Done:  E(RM062X) =  -162.998549804     A.U. after   10 cycles
             Convg  =    0.9193D-08             -V/T =  2.0586
 SMD-CDS (non-electrostatic) energy             (kcal/mol) =       1.04
 (included in total energy above)
   1 Symmetry operations used in ECPInt.
 ECPInt:  NShTT=     171 NPrTT=    1054 LenC2=     172 LenP2D=     886.
 LDataN:  DoStor=T MaxTD1= 5 Len=  102
 D1PCM: PCM CHGder 1st derivatives, ID1Alg=3 FixD1E=F DoIter=F DoCFld=F I1PDM=0.
 Calling FoFJK, ICntrl=      2127 FMM=F ISym2X=0 I1Cent= 0 IOpClX= 0 NMat=1 NMatS=1 NMatT=0.
 Defaulting to unpruned grid for atomic number  53.
 Defaulting to unpruned grid for atomic number  53.
 Defaulting to unpruned grid for atomic number  53.
 Defaulting to unpruned grid for atomic number  53.
 ***** Axes restored to original set *****
 -------------------------------------------------------------------
 Center     Atomic                   Forces (Hartrees/Bohr)
 Number     Number              X              Y              Z
 -------------------------------------------------------------------
      1        8          -0.002475862   -0.000073476    0.001607644
      2        1           0.008603413   -0.000754691    0.000891657
      3        8          -0.006142369    0.000532272   -0.002480211
      4        1           0.000519288    0.000320433    0.000581969
      5       53          -0.000504470   -0.000024538   -0.000601059
 -------------------------------------------------------------------
 Cartesian Forces:  Max     0.008603413 RMS     0.002939320

 GradGradGradGradGradGradGradGradGradGradGradGradGradGradGradGradGradGrad
 Berny optimization.
 Internal  Forces:  Max     0.007859458 RMS     0.003500323
 Search for a saddle point.
 Step number   3 out of a maximum of   20
 All quantities printed in internal units (Hartrees-Bohrs-Radians)
 Swaping is turned off.
 Update second derivatives using D2CorX and points    1    2    3
 The second derivative matrix:
                          R1        R2        R3        R4        A1
           R1           0.30238
           R2           0.04157   0.18619
           R3           0.04533   0.02298   0.02839
           R4          -0.00305  -0.00429   0.00248   0.59456
           A1           0.03116   0.03745   0.00644  -0.00968   0.08937
           A2           0.09031   0.07392   0.05893  -0.00221   0.04207
           A3           0.02058   0.00467   0.03394   0.01018  -0.00331
           D1          -0.00035   0.00077  -0.00487  -0.00189  -0.00259
           D2          -0.01077  -0.00824   0.00610   0.00361  -0.00902
                          A2        A3        D1        D2
           A2           0.18679
           A3          -0.00710   0.07222
           D1           0.00140  -0.00256   0.02411
           D2          -0.02901   0.02488   0.00459   0.02187
     Eigenvalues ---   -0.00821   0.00712   0.02586   0.07125   0.09287
     Eigenvalues ---    0.11467   0.19866   0.40847   0.59519
 Eigenvectors required to have negative eigenvalues:
                          R3        A2        A3        D2        D1
   1                    0.85520  -0.30650  -0.30061  -0.23672   0.15593
                          A1        R1        R2        R4
   1                    0.05465  -0.03033   0.00805   0.00313
 RFO step:  Lambda0=4.753887397D-03 Lambda=-4.60514937D-04.
 Linear search not attempted -- option 19 set.
 Maximum step size (   0.030) exceeded in Quadratic search.
    -- Step size scaled by   0.049
 Iteration  1 RMS(Cart)=  0.00909545 RMS(Int)=  0.00004106
 Iteration  2 RMS(Cart)=  0.00004835 RMS(Int)=  0.00000000
 Iteration  3 RMS(Cart)=  0.00000000 RMS(Int)=  0.00000000
 Variable       Old X    -DE/DX   Delta X   Delta X   Delta X     New X
                                 (Linear)    (Quad)   (Total)
    R1        1.86849   0.00208   0.00000  -0.00089  -0.00089   1.86759
    R2        3.84385   0.00066   0.00000   0.00015   0.00015   3.84400
    R3        4.09608  -0.00549   0.00000   0.02529   0.02529   4.12137
    R4        1.85768   0.00031   0.00000   0.00011   0.00011   1.85779
    A1        1.97299  -0.00339   0.00000  -0.00086  -0.00086   1.97213
    A2        2.11901   0.00786   0.00000  -0.00728  -0.00728   2.11173
    A3        1.35261   0.00114   0.00000  -0.00910  -0.00910   1.34351
    D1        3.08249   0.00021   0.00000   0.00734   0.00734   3.08983
    D2       -1.38137   0.00082   0.00000  -0.00832  -0.00832  -1.38969
         Item               Value     Threshold  Converged?
 Maximum Force            0.007859     0.000450     NO 
 RMS     Force            0.003500     0.000300     NO 
 Maximum Displacement     0.015627     0.001800     NO 
 RMS     Displacement     0.009107     0.001200     NO 
 Predicted change in Energy= 2.073979D-04
 GradGradGradGradGradGradGradGradGradGradGradGradGradGradGradGradGradGrad

                          Input orientation:                          
 ---------------------------------------------------------------------
 Center     Atomic      Atomic             Coordinates (Angstroms)
 Number     Number       Type             X           Y           Z
 ---------------------------------------------------------------------
      1          8           0       -1.449374    0.595989    0.644028
      2          1           0       -0.962338    0.736847   -0.204304
      3          8           0        1.217869    0.738251   -0.260718
      4          1           0        1.004283    1.638591    0.071328
      5         53           0       -3.467783    0.736978    0.434381
 ---------------------------------------------------------------------
                    Distance matrix (angstroms):
                    1          2          3          4          5
     1  O    0.000000
     2  H    0.988288   0.000000
     3  O    2.820104   2.180937   0.000000
     4  H    2.726800   2.180989   0.983099   0.000000
     5  I    2.034159   2.585570   4.736929   4.576471   0.000000
 Stoichiometry    H2IO2(1-)
 Framework group  C1[X(H2IO2)]
 Deg. of freedom     9
 Full point group                 C1      NOp   1
 Largest Abelian subgroup         C1      NOp   1
 Largest concise Abelian subgroup C1      NOp   1
                         Standard orientation:                         
 ---------------------------------------------------------------------
 Center     Atomic      Atomic             Coordinates (Angstroms)
 Number     Number       Type             X           Y           Z
 ---------------------------------------------------------------------
      1          8           0       -1.121648    0.441685   -0.004727
      2          1           0       -1.707869   -0.342897   -0.136975
      3          8           0       -3.879135   -0.142961   -0.090992
      4          1           0       -3.637476   -0.154166    0.861878
      5         53           0        0.855691   -0.035712    0.000771
 ---------------------------------------------------------------------
 Rotational constants (GHZ):    109.4910073      1.3749760      1.3642986
 Standard basis: LANL2DZ (5D, 7F)
 There are    30 symmetry adapted basis functions of A   symmetry.
 Integral buffers will be    262144 words long.
 Raffenetti 2 integral format.
 Two-electron integral symmetry is turned on.
    30 basis functions,    70 primitive gaussians,    30 cartesian basis functions
    13 alpha electrons       13 beta electrons
       nuclear repulsion energy        47.4014359801 Hartrees.
 NAtoms=    5 NActive=    5 NUniq=    5 SFac= 7.50D-01 NAtFMM=   80 NAOKFM=F Big=F
 ------------------------------------------------------------------------------
 Polarizable Continuum Model (PCM)
 =================================
 Model                : PCM.
 Atomic radii         : SMD-Coulomb.
 Polarization charges : Total charges.
 Charge compensation  : None.
 Solution method      : Matrix inversion.
 Cavity type          : VdW (van der Waals Surface) (Alpha=1.000).
 Cavity algorithm     : GePol (No added spheres)
                        Default sphere list used, NSphG=    5.
                        Lebedev-Laikov grids with approx.  5.0 points / Ang**2.
                        Smoothing algorithm: Karplus/York (Gamma=1.0000).
                        Polarization charges: spherical gaussians, with
                                              point-specific exponents (IZeta= 3).
                        Self-potential: point-specific (ISelfS= 7).
                        Self-field    : sphere-specific E.n sum rule (ISelfD= 2).
 1st derivatives      : Analytical E(r).r(x)/FMM algorithm (CHGder, D1EAlg=3).
                        Cavity 1st derivative terms included.
 Solvent              : Water, Eps=  78.355300 Eps(inf)=   1.777849
 ------------------------------------------------------------------------------
 Spheres list:
 ISph  on   Nord    Re0     Alpha      Xe            Ye            Ze
    1   O      1    1.520   1.000     -1.121648      0.441685     -0.004727
    2   H      2    1.200   1.000     -1.707869     -0.342897     -0.136975
    3   O      3    1.520   1.000     -3.879135     -0.142961     -0.090992
    4   H      4    1.200   1.000     -3.637476     -0.154166      0.861878
    5   I      5    1.980   1.000      0.855691     -0.035712      0.000771
 ------------------------------------------------------------------------------
 ------------------------------------------------------------------------------
 Atomic radii for non-electrostatic terms: SMD-CDS.
 ------------------------------------------------------------------------------
 Nuclear repulsion after PCM non-electrostatic terms =       47.4030861522 Hartrees.
 One-electron integrals computed using PRISM.
   1 Symmetry operations used in ECPInt.
 ECPInt:  NShTT=     171 NPrTT=    1054 LenC2=     172 LenP2D=     886.
 LDataN:  DoStor=T MaxTD1= 4 Len=   56
 NBasis=    30 RedAO= T  NBF=    30
 NBsUse=    30 1.00D-06 NBFU=    30
 Defaulting to unpruned grid for atomic number  53.
 Initial guess read from the read-write file.
 B after Tr=     0.000000    0.000000    0.000000
         Rot=    1.000000    0.000000    0.000000    0.000000 Ang=   0.00 deg.
 Initial guess orbital symmetries:
       Occupied  (A) (A) (A) (A) (A) (A) (A) (A) (A) (A) (A) (A)
                 (A)
       Virtual   (A) (A) (A) (A) (A) (A) (A) (A) (A) (A) (A) (A)
                 (A) (A) (A) (A) (A)
 Requested convergence on RMS density matrix=1.00D-08 within 128 cycles.
 Requested convergence on MAX density matrix=1.00D-06.
 Requested convergence on             energy=1.00D-06.
 No special actions if energy rises.
 Keep R1 ints in memory in canonical form, NReq=3460254.
 Defaulting to unpruned grid for atomic number  53.
 Defaulting to unpruned grid for atomic number  53.
 Defaulting to unpruned grid for atomic number  53.
 Defaulting to unpruned grid for atomic number  53.
 Error on total polarization charges =  0.07391
 SCF Done:  E(RM062X) =  -162.998342912     A.U. after   10 cycles
             Convg  =    0.9723D-08             -V/T =  2.0586
 SMD-CDS (non-electrostatic) energy             (kcal/mol) =       1.04
 (included in total energy above)
   1 Symmetry operations used in ECPInt.
 ECPInt:  NShTT=     171 NPrTT=    1054 LenC2=     172 LenP2D=     886.
 LDataN:  DoStor=T MaxTD1= 5 Len=  102
 D1PCM: PCM CHGder 1st derivatives, ID1Alg=3 FixD1E=F DoIter=F DoCFld=F I1PDM=0.
 Calling FoFJK, ICntrl=      2127 FMM=F ISym2X=0 I1Cent= 0 IOpClX= 0 NMat=1 NMatS=1 NMatT=0.
 Defaulting to unpruned grid for atomic number  53.
 Defaulting to unpruned grid for atomic number  53.
 Defaulting to unpruned grid for atomic number  53.
 Defaulting to unpruned grid for atomic number  53.
 ***** Axes restored to original set *****
 -------------------------------------------------------------------
 Center     Atomic                   Forces (Hartrees/Bohr)
 Number     Number              X              Y              Z
 -------------------------------------------------------------------
      1        8          -0.002466455   -0.000067579    0.001693394
      2        1           0.008396374   -0.000758495    0.000708719
      3        8          -0.005958244    0.000534016   -0.002422327
      4        1           0.000508016    0.000303984    0.000572973
      5       53          -0.000479690   -0.000011926   -0.000552758
 -------------------------------------------------------------------
 Cartesian Forces:  Max     0.008396374 RMS     0.002868220

 GradGradGradGradGradGradGradGradGradGradGradGradGradGradGradGradGradGrad
 Berny optimization.
 Internal  Forces:  Max     0.007567110 RMS     0.003387907
 Search for a saddle point.
 Step number   4 out of a maximum of   20
 All quantities printed in internal units (Hartrees-Bohrs-Radians)
 Swaping is turned off.
 Update second derivatives using D2CorX and points    1    2    3    4
 The second derivative matrix:
                          R1        R2        R3        R4        A1
           R1           0.30265
           R2           0.04154   0.18619
           R3           0.04034   0.02292   0.02770
           R4          -0.00306  -0.00429   0.00229   0.59455
           A1           0.03132   0.03745   0.00695  -0.00967   0.08934
           A2           0.09181   0.07393   0.05766  -0.00217   0.04198
           A3           0.02240   0.00469   0.03440   0.01025  -0.00350
           D1          -0.00172   0.00075  -0.00526  -0.00194  -0.00244
           D2          -0.00915  -0.00823   0.00627   0.00367  -0.00918
                          A2        A3        D1        D2
           A2           0.18758
           A3          -0.00669   0.07198
           D1           0.00109  -0.00236   0.02394
           D2          -0.02858   0.02475   0.00471   0.02183
     Eigenvalues ---   -0.00801   0.00715   0.02581   0.07102   0.09290
     Eigenvalues ---    0.11465   0.19871   0.40834   0.59519
 Eigenvectors required to have negative eigenvalues:
                          R3        A3        A2        D2        D1
   1                    0.85465  -0.31557  -0.30310  -0.22243   0.16341
                          A1        R1        R2        R4
   1                    0.04252  -0.00935   0.00597   0.00359
 RFO step:  Lambda0=4.498600527D-03 Lambda=-4.41601373D-04.
 Linear search not attempted -- option 19 set.
 Maximum step size (   0.030) exceeded in Quadratic search.
    -- Step size scaled by   0.050
 Iteration  1 RMS(Cart)=  0.00902088 RMS(Int)=  0.00004081
 Iteration  2 RMS(Cart)=  0.00004687 RMS(Int)=  0.00000000
 Iteration  3 RMS(Cart)=  0.00000000 RMS(Int)=  0.00000000
 Variable       Old X    -DE/DX   Delta X   Delta X   Delta X     New X
                                 (Linear)    (Quad)   (Total)
    R1        1.86759   0.00216   0.00000  -0.00018  -0.00018   1.86742
    R2        3.84400   0.00063   0.00000   0.00009   0.00009   3.84409
    R3        4.12137  -0.00533   0.00000   0.02535   0.02535   4.14672
    R4        1.85779   0.00030   0.00000   0.00012   0.00012   1.85791
    A1        1.97213  -0.00325   0.00000  -0.00121  -0.00121   1.97092
    A2        2.11173   0.00757   0.00000  -0.00717  -0.00717   2.10457
    A3        1.34351   0.00111   0.00000  -0.00994  -0.00994   1.33357
    D1        3.08983   0.00019   0.00000   0.00745   0.00745   3.09727
    D2       -1.38969   0.00081   0.00000  -0.00708  -0.00708  -1.39678
         Item               Value     Threshold  Converged?
 Maximum Force            0.007567     0.000450     NO 
 RMS     Force            0.003388     0.000300     NO 
 Maximum Displacement     0.015923     0.001800     NO 
 RMS     Displacement     0.009032     0.001200     NO 
 Predicted change in Energy= 1.980618D-04
 GradGradGradGradGradGradGradGradGradGradGradGradGradGradGradGradGradGrad

                          Input orientation:                          
 ---------------------------------------------------------------------
 Center     Atomic      Atomic             Coordinates (Angstroms)
 Number     Number       Type             X           Y           Z
 ---------------------------------------------------------------------
      1          8           0       -1.451031    0.599096    0.642555
      2          1           0       -0.967456    0.742451   -0.207228
      3          8           0        1.226295    0.736349   -0.258181
      4          1           0        1.005311    1.636305    0.070233
      5         53           0       -3.470461    0.732456    0.437336
 ---------------------------------------------------------------------
                    Distance matrix (angstroms):
                    1          2          3          4          5
     1  O    0.000000
     2  H    0.988194   0.000000
     3  O    2.828116   2.194352   0.000000
     4  H    2.727080   2.183522   0.983164   0.000000
     5  I    2.034207   2.584684   4.747976   4.580855   0.000000
 Stoichiometry    H2IO2(1-)
 Framework group  C1[X(H2IO2)]
 Deg. of freedom     9
 Full point group                 C1      NOp   1
 Largest Abelian subgroup         C1      NOp   1
 Largest concise Abelian subgroup C1      NOp   1
                         Standard orientation:                         
 ---------------------------------------------------------------------
 Center     Atomic      Atomic             Coordinates (Angstroms)
 Number     Number       Type             X           Y           Z
 ---------------------------------------------------------------------
      1          8           0       -1.121577    0.436597   -0.005938
      2          1           0       -1.704866   -0.351725   -0.127795
      3          8           0       -3.888769   -0.141052   -0.090853
      4          1           0       -3.640952   -0.145560    0.860555
      5         53           0        0.857143   -0.035228    0.000784
 ---------------------------------------------------------------------
 Rotational constants (GHZ):    111.5648105      1.3693453      1.3590327
 Standard basis: LANL2DZ (5D, 7F)
 There are    30 symmetry adapted basis functions of A   symmetry.
 Integral buffers will be    262144 words long.
 Raffenetti 2 integral format.
 Two-electron integral symmetry is turned on.
    30 basis functions,    70 primitive gaussians,    30 cartesian basis functions
    13 alpha electrons       13 beta electrons
       nuclear repulsion energy        47.3400585164 Hartrees.
 NAtoms=    5 NActive=    5 NUniq=    5 SFac= 7.50D-01 NAtFMM=   80 NAOKFM=F Big=F
 ------------------------------------------------------------------------------
 Polarizable Continuum Model (PCM)
 =================================
 Model                : PCM.
 Atomic radii         : SMD-Coulomb.
 Polarization charges : Total charges.
 Charge compensation  : None.
 Solution method      : Matrix inversion.
 Cavity type          : VdW (van der Waals Surface) (Alpha=1.000).
 Cavity algorithm     : GePol (No added spheres)
                        Default sphere list used, NSphG=    5.
                        Lebedev-Laikov grids with approx.  5.0 points / Ang**2.
                        Smoothing algorithm: Karplus/York (Gamma=1.0000).
                        Polarization charges: spherical gaussians, with
                                              point-specific exponents (IZeta= 3).
                        Self-potential: point-specific (ISelfS= 7).
                        Self-field    : sphere-specific E.n sum rule (ISelfD= 2).
 1st derivatives      : Analytical E(r).r(x)/FMM algorithm (CHGder, D1EAlg=3).
                        Cavity 1st derivative terms included.
 Solvent              : Water, Eps=  78.355300 Eps(inf)=   1.777849
 ------------------------------------------------------------------------------
 Spheres list:
 ISph  on   Nord    Re0     Alpha      Xe            Ye            Ze
    1   O      1    1.520   1.000     -1.121577      0.436597     -0.005938
    2   H      2    1.200   1.000     -1.704866     -0.351725     -0.127795
    3   O      3    1.520   1.000     -3.888769     -0.141052     -0.090853
    4   H      4    1.200   1.000     -3.640952     -0.145560      0.860555
    5   I      5    1.980   1.000      0.857143     -0.035228      0.000784
 ------------------------------------------------------------------------------
 ------------------------------------------------------------------------------
 Atomic radii for non-electrostatic terms: SMD-CDS.
 ------------------------------------------------------------------------------
 Nuclear repulsion after PCM non-electrostatic terms =       47.3417086090 Hartrees.
 One-electron integrals computed using PRISM.
   1 Symmetry operations used in ECPInt.
 ECPInt:  NShTT=     171 NPrTT=    1054 LenC2=     172 LenP2D=     886.
 LDataN:  DoStor=T MaxTD1= 4 Len=   56
 NBasis=    30 RedAO= T  NBF=    30
 NBsUse=    30 1.00D-06 NBFU=    30
 Defaulting to unpruned grid for atomic number  53.
 Initial guess read from the read-write file.
 B after Tr=     0.000000    0.000000    0.000000
         Rot=    1.000000    0.000000    0.000000    0.000000 Ang=   0.00 deg.
 Initial guess orbital symmetries:
       Occupied  (A) (A) (A) (A) (A) (A) (A) (A) (A) (A) (A) (A)
                 (A)
       Virtual   (A) (A) (A) (A) (A) (A) (A) (A) (A) (A) (A) (A)
                 (A) (A) (A) (A) (A)
 Requested convergence on RMS density matrix=1.00D-08 within 128 cycles.
 Requested convergence on MAX density matrix=1.00D-06.
 Requested convergence on             energy=1.00D-06.
 No special actions if energy rises.
 Keep R1 ints in memory in canonical form, NReq=3465624.
 Defaulting to unpruned grid for atomic number  53.
 Defaulting to unpruned grid for atomic number  53.
 Defaulting to unpruned grid for atomic number  53.
 Defaulting to unpruned grid for atomic number  53.
 Error on total polarization charges =  0.07392
 SCF Done:  E(RM062X) =  -162.998146273     A.U. after   10 cycles
             Convg  =    0.9523D-08             -V/T =  2.0586
 SMD-CDS (non-electrostatic) energy             (kcal/mol) =       1.04
 (included in total energy above)
   1 Symmetry operations used in ECPInt.
 ECPInt:  NShTT=     171 NPrTT=    1054 LenC2=     172 LenP2D=     886.
 LDataN:  DoStor=T MaxTD1= 5 Len=  102
 D1PCM: PCM CHGder 1st derivatives, ID1Alg=3 FixD1E=F DoIter=F DoCFld=F I1PDM=0.
 Calling FoFJK, ICntrl=      2127 FMM=F ISym2X=0 I1Cent= 0 IOpClX= 0 NMat=1 NMatS=1 NMatT=0.
 Defaulting to unpruned grid for atomic number  53.
 Defaulting to unpruned grid for atomic number  53.
 Defaulting to unpruned grid for atomic number  53.
 Defaulting to unpruned grid for atomic number  53.
 ***** Axes restored to original set *****
 -------------------------------------------------------------------
 Center     Atomic                   Forces (Hartrees/Bohr)
 Number     Number              X              Y              Z
 -------------------------------------------------------------------
      1        8          -0.002276444   -0.000013894    0.001468280
      2        1           0.008038998   -0.000809859    0.000822870
      3        8          -0.005779917    0.000523449   -0.002346237
      4        1           0.000502057    0.000287339    0.000556882
      5       53          -0.000484695    0.000012964   -0.000501796
 -------------------------------------------------------------------
 Cartesian Forces:  Max     0.008038998 RMS     0.002752146

 GradGradGradGradGradGradGradGradGradGradGradGradGradGradGradGradGradGrad
 Berny optimization.
 Internal  Forces:  Max     0.007257513 RMS     0.003243988
 Search for a saddle point.
 Step number   5 out of a maximum of   20
 All quantities printed in internal units (Hartrees-Bohrs-Radians)
 Swaping is turned off.
 Update second derivatives using D2CorX and points    1    2    3    4    5
 The second derivative matrix:
                          R1        R2        R3        R4        A1
           R1           0.30237
           R2           0.04158   0.18617
           R3           0.04472   0.02212   0.02731
           R4          -0.00304  -0.00430   0.00206   0.59455
           A1           0.03117   0.03748   0.00602  -0.00966   0.08941
           A2           0.09054   0.07413   0.05701  -0.00211   0.04227
           A3           0.02072   0.00500   0.03458   0.01034  -0.00315
           D1          -0.00050   0.00051  -0.00519  -0.00201  -0.00272
           D2          -0.01045  -0.00799   0.00660   0.00373  -0.00892
                          A2        A3        D1        D2
           A2           0.18791
           A3          -0.00645   0.07189
           D1           0.00082  -0.00237   0.02401
           D2          -0.02845   0.02461   0.00475   0.02168
     Eigenvalues ---   -0.00842   0.00714   0.02583   0.07121   0.09287
     Eigenvalues ---    0.11456   0.19863   0.40831   0.59518
 Eigenvectors required to have negative eigenvalues:
                          R3        A3        A2        D2        D1
   1                    0.85739  -0.30755  -0.29401  -0.23256   0.16031
                          A1        R1        R2        R4
   1                    0.05469  -0.03140   0.00876   0.00407
 RFO step:  Lambda0=4.200703334D-03 Lambda=-3.91947941D-04.
 Linear search not attempted -- option 19 set.
 Maximum step size (   0.030) exceeded in Quadratic search.
    -- Step size scaled by   0.052
 Iteration  1 RMS(Cart)=  0.00911167 RMS(Int)=  0.00003957
 Iteration  2 RMS(Cart)=  0.00004702 RMS(Int)=  0.00000000
 Iteration  3 RMS(Cart)=  0.00000000 RMS(Int)=  0.00000000
 Variable       Old X    -DE/DX   Delta X   Delta X   Delta X     New X
                                 (Linear)    (Quad)   (Total)
    R1        1.86742   0.00190   0.00000  -0.00094  -0.00094   1.86648
    R2        3.84409   0.00062   0.00000   0.00017   0.00017   3.84426
    R3        4.14672  -0.00517   0.00000   0.02540   0.02540   4.17212
    R4        1.85791   0.00029   0.00000   0.00014   0.00014   1.85805
    A1        1.97092  -0.00306   0.00000  -0.00074  -0.00074   1.97018
    A2        2.10457   0.00726   0.00000  -0.00691  -0.00691   2.09765
    A3        1.33357   0.00110   0.00000  -0.00944  -0.00944   1.32413
    D1        3.09727   0.00016   0.00000   0.00738   0.00738   3.10465
    D2       -1.39678   0.00079   0.00000  -0.00788  -0.00788  -1.40465
         Item               Value     Threshold  Converged?
 Maximum Force            0.007258     0.000450     NO 
 RMS     Force            0.003244     0.000300     NO 
 Maximum Displacement     0.015728     0.001800     NO 
 RMS     Displacement     0.009123     0.001200     NO 
 Predicted change in Energy= 1.930288D-04
 GradGradGradGradGradGradGradGradGradGradGradGradGradGradGradGradGradGrad

                          Input orientation:                          
 ---------------------------------------------------------------------
 Center     Atomic      Atomic             Coordinates (Angstroms)
 Number     Number       Type             X           Y           Z
 ---------------------------------------------------------------------
      1          8           0       -1.452794    0.602046    0.640740
      2          1           0       -0.972663    0.748169   -0.209948
      3          8           0        1.234618    0.734389   -0.255436
      4          1           0        1.006785    1.634178    0.068947
      5         53           0       -3.473289    0.727874    0.440412
 ---------------------------------------------------------------------
                    Distance matrix (angstroms):
                    1          2          3          4          5
     1  O    0.000000
     2  H    0.987699   0.000000
     3  O    2.835988   2.207793   0.000000
     4  H    2.727961   2.186552   0.983236   0.000000
     5  I    2.034297   2.583894   4.759058   4.585896   0.000000
 Stoichiometry    H2IO2(1-)
 Framework group  C1[X(H2IO2)]
 Deg. of freedom     9
 Full point group                 C1      NOp   1
 Largest Abelian subgroup         C1      NOp   1
 Largest concise Abelian subgroup C1      NOp   1
                         Standard orientation:                         
 ---------------------------------------------------------------------
 Center     Atomic      Atomic             Coordinates (Angstroms)
 Number     Number       Type             X           Y           Z
 ---------------------------------------------------------------------
      1          8           0       -1.121590    0.431189   -0.006861
      2          1           0       -1.701912   -0.360205   -0.118529
      3          8           0       -3.898413   -0.138924   -0.090846
      4          1           0       -3.645033   -0.138003    0.859181
      5         53           0        0.858622   -0.034715    0.000774
 ---------------------------------------------------------------------
 Rotational constants (GHZ):    113.8185183      1.3636932      1.3537577
 Standard basis: LANL2DZ (5D, 7F)
 There are    30 symmetry adapted basis functions of A   symmetry.
 Integral buffers will be    262144 words long.
 Raffenetti 2 integral format.
 Two-electron integral symmetry is turned on.
    30 basis functions,    70 primitive gaussians,    30 cartesian basis functions
    13 alpha electrons       13 beta electrons
       nuclear repulsion energy        47.2804337885 Hartrees.
 NAtoms=    5 NActive=    5 NUniq=    5 SFac= 7.50D-01 NAtFMM=   80 NAOKFM=F Big=F
 ------------------------------------------------------------------------------
 Polarizable Continuum Model (PCM)
 =================================
 Model                : PCM.
 Atomic radii         : SMD-Coulomb.
 Polarization charges : Total charges.
 Charge compensation  : None.
 Solution method      : Matrix inversion.
 Cavity type          : VdW (van der Waals Surface) (Alpha=1.000).
 Cavity algorithm     : GePol (No added spheres)
                        Default sphere list used, NSphG=    5.
                        Lebedev-Laikov grids with approx.  5.0 points / Ang**2.
                        Smoothing algorithm: Karplus/York (Gamma=1.0000).
                        Polarization charges: spherical gaussians, with
                                              point-specific exponents (IZeta= 3).
                        Self-potential: point-specific (ISelfS= 7).
                        Self-field    : sphere-specific E.n sum rule (ISelfD= 2).
 1st derivatives      : Analytical E(r).r(x)/FMM algorithm (CHGder, D1EAlg=3).
                        Cavity 1st derivative terms included.
 Solvent              : Water, Eps=  78.355300 Eps(inf)=   1.777849
 ------------------------------------------------------------------------------
 Spheres list:
 ISph  on   Nord    Re0     Alpha      Xe            Ye            Ze
    1   O      1    1.520   1.000     -1.121590      0.431189     -0.006861
    2   H      2    1.200   1.000     -1.701912     -0.360205     -0.118529
    3   O      3    1.520   1.000     -3.898413     -0.138924     -0.090846
    4   H      4    1.200   1.000     -3.645033     -0.138003      0.859181
    5   I      5    1.980   1.000      0.858622     -0.034715      0.000774
 ------------------------------------------------------------------------------
 ------------------------------------------------------------------------------
 Atomic radii for non-electrostatic terms: SMD-CDS.
 ------------------------------------------------------------------------------
 Nuclear repulsion after PCM non-electrostatic terms =       47.2820848292 Hartrees.
 One-electron integrals computed using PRISM.
   1 Symmetry operations used in ECPInt.
 ECPInt:  NShTT=     171 NPrTT=    1054 LenC2=     172 LenP2D=     885.
 LDataN:  DoStor=T MaxTD1= 4 Len=   56
 NBasis=    30 RedAO= T  NBF=    30
 NBsUse=    30 1.00D-06 NBFU=    30
 Defaulting to unpruned grid for atomic number  53.
 Initial guess read from the read-write file.
 B after Tr=     0.000000    0.000000    0.000000
         Rot=    1.000000    0.000000    0.000000    0.000000 Ang=   0.00 deg.
 Initial guess orbital symmetries:
       Occupied  (A) (A) (A) (A) (A) (A) (A) (A) (A) (A) (A) (A)
                 (A)
       Virtual   (A) (A) (A) (A) (A) (A) (A) (A) (A) (A) (A) (A)
                 (A) (A) (A) (A) (A)
 Requested convergence on RMS density matrix=1.00D-08 within 128 cycles.
 Requested convergence on MAX density matrix=1.00D-06.
 Requested convergence on             energy=1.00D-06.
 No special actions if energy rises.
 Keep R1 ints in memory in canonical form, NReq=3465588.
 Defaulting to unpruned grid for atomic number  53.
 Defaulting to unpruned grid for atomic number  53.
 Defaulting to unpruned grid for atomic number  53.
 Defaulting to unpruned grid for atomic number  53.
 Error on total polarization charges =  0.07392
 SCF Done:  E(RM062X) =  -162.997954589     A.U. after   11 cycles
             Convg  =    0.1946D-08             -V/T =  2.0586
 SMD-CDS (non-electrostatic) energy             (kcal/mol) =       1.04
 (included in total energy above)
   1 Symmetry operations used in ECPInt.
 ECPInt:  NShTT=     171 NPrTT=    1054 LenC2=     172 LenP2D=     885.
 LDataN:  DoStor=T MaxTD1= 5 Len=  102
 D1PCM: PCM CHGder 1st derivatives, ID1Alg=3 FixD1E=F DoIter=F DoCFld=F I1PDM=0.
 Calling FoFJK, ICntrl=      2127 FMM=F ISym2X=0 I1Cent= 0 IOpClX= 0 NMat=1 NMatS=1 NMatT=0.
 Defaulting to unpruned grid for atomic number  53.
 Defaulting to unpruned grid for atomic number  53.
 Defaulting to unpruned grid for atomic number  53.
 Defaulting to unpruned grid for atomic number  53.
 ***** Axes restored to original set *****
 -------------------------------------------------------------------
 Center     Atomic                   Forces (Hartrees/Bohr)
 Number     Number              X              Y              Z
 -------------------------------------------------------------------
      1        8          -0.002269155   -0.000013725    0.001582880
      2        1           0.007804846   -0.000791662    0.000613003
      3        8          -0.005582764    0.000506479   -0.002259900
      4        1           0.000496885    0.000262145    0.000534149
      5       53          -0.000449813    0.000036763   -0.000470133
 -------------------------------------------------------------------
 Cartesian Forces:  Max     0.007804846 RMS     0.002672445

 GradGradGradGradGradGradGradGradGradGradGradGradGradGradGradGradGradGrad
 Berny optimization.
 Internal  Forces:  Max     0.006939529 RMS     0.003125301
 Search for a saddle point.
 Step number   6 out of a maximum of   20
 All quantities printed in internal units (Hartrees-Bohrs-Radians)
 Swaping is turned off.
 Update second derivatives using D2CorX and points    1    2    3    4    5
                                                      6
 The second derivative matrix:
                          R1        R2        R3        R4        A1
           R1           0.30235
           R2           0.04156   0.18615
           R3           0.03932   0.02238   0.02662
           R4          -0.00307  -0.00430   0.00204   0.59454
           A1           0.03137   0.03746   0.00689  -0.00966   0.08935
           A2           0.09201   0.07401   0.05652  -0.00214   0.04204
           A3           0.02274   0.00491   0.03474   0.01035  -0.00347
           D1          -0.00204   0.00057  -0.00569  -0.00202  -0.00246
           D2          -0.00878  -0.00807   0.00701   0.00374  -0.00919
                          A2        A3        D1        D2
           A2           0.18810
           A3          -0.00623   0.07187
           D1           0.00074  -0.00221   0.02378
           D2          -0.02834   0.02449   0.00496   0.02149
     Eigenvalues ---   -0.00872   0.00712   0.02578   0.07094   0.09290
     Eigenvalues ---    0.11456   0.19854   0.40795   0.59518
 Eigenvectors required to have negative eigenvalues:
                          R3        A3        A2        D2        D1
   1                    0.85133  -0.30784  -0.29720  -0.24488   0.17485
                          A1        R1        R2        R4
   1                    0.03854  -0.00769   0.00652   0.00408
 RFO step:  Lambda0=3.828177273D-03 Lambda=-3.85649057D-04.
 Linear search not attempted -- option 19 set.
 Maximum step size (   0.030) exceeded in Quadratic search.
    -- Step size scaled by   0.054
 Iteration  1 RMS(Cart)=  0.00920806 RMS(Int)=  0.00004132
 Iteration  2 RMS(Cart)=  0.00005154 RMS(Int)=  0.00000000
 Iteration  3 RMS(Cart)=  0.00000000 RMS(Int)=  0.00000000
 Variable       Old X    -DE/DX   Delta X   Delta X   Delta X     New X
                                 (Linear)    (Quad)   (Total)
    R1        1.86648   0.00199   0.00000  -0.00014  -0.00014   1.86634
    R2        3.84426   0.00058   0.00000   0.00011   0.00011   3.84437
    R3        4.17212  -0.00499   0.00000   0.02490   0.02490   4.19703
    R4        1.85805   0.00028   0.00000   0.00014   0.00014   1.85818
    A1        1.97018  -0.00294   0.00000  -0.00134  -0.00134   1.96883
    A2        2.09765   0.00694   0.00000  -0.00703  -0.00703   2.09062
    A3        1.32413   0.00107   0.00000  -0.00910  -0.00910   1.31503
    D1        3.10465   0.00015   0.00000   0.00816   0.00816   3.11282
    D2       -1.40465   0.00076   0.00000  -0.00889  -0.00889  -1.41355
         Item               Value     Threshold  Converged?
 Maximum Force            0.006940     0.000450     NO 
 RMS     Force            0.003125     0.000300     NO 
 Maximum Displacement     0.015067     0.001800     NO 
 RMS     Displacement     0.009221     0.001200     NO 
 Predicted change in Energy= 1.814698D-04
 GradGradGradGradGradGradGradGradGradGradGradGradGradGradGradGradGradGrad

                          Input orientation:                          
 ---------------------------------------------------------------------
 Center     Atomic      Atomic             Coordinates (Angstroms)
 Number     Number       Type             X           Y           Z
 ---------------------------------------------------------------------
      1          8           0       -1.454633    0.605001    0.639438
      2          1           0       -0.977902    0.754574   -0.212475
      3          8           0        1.242591    0.732198   -0.252780
      4          1           0        1.008657    1.631992    0.067439
      5         53           0       -3.476055    0.722893    0.443093
 ---------------------------------------------------------------------
                    Distance matrix (angstroms):
                    1          2          3          4          5
     1  O    0.000000
     2  H    0.987624   0.000000
     3  O    2.843810   2.220972   0.000000
     4  H    2.729412   2.189664   0.983308   0.000000
     5  I    2.034353   2.582932   4.769690   4.591319   0.000000
 Stoichiometry    H2IO2(1-)
 Framework group  C1[X(H2IO2)]
 Deg. of freedom     9
 Full point group                 C1      NOp   1
 Largest Abelian subgroup         C1      NOp   1
 Largest concise Abelian subgroup C1      NOp   1
                         Standard orientation:                         
 ---------------------------------------------------------------------
 Center     Atomic      Atomic             Coordinates (Angstroms)
 Number     Number       Type             X           Y           Z
 ---------------------------------------------------------------------
      1          8           0       -1.121479    0.426332   -0.007929
      2          1           0       -1.698863   -0.368716   -0.107564
      3          8           0       -3.907668   -0.137155   -0.090918
      4          1           0       -3.649572   -0.129377    0.857881
      5         53           0        0.860030   -0.034251    0.000763
 ---------------------------------------------------------------------
 Rotational constants (GHZ):    115.8772269      1.3583113      1.3487061
 Standard basis: LANL2DZ (5D, 7F)
 There are    30 symmetry adapted basis functions of A   symmetry.
 Integral buffers will be    262144 words long.
 Raffenetti 2 integral format.
 Two-electron integral symmetry is turned on.
    30 basis functions,    70 primitive gaussians,    30 cartesian basis functions
    13 alpha electrons       13 beta electrons
       nuclear repulsion energy        47.2203471561 Hartrees.
 NAtoms=    5 NActive=    5 NUniq=    5 SFac= 7.50D-01 NAtFMM=   80 NAOKFM=F Big=F
 ------------------------------------------------------------------------------
 Polarizable Continuum Model (PCM)
 =================================
 Model                : PCM.
 Atomic radii         : SMD-Coulomb.
 Polarization charges : Total charges.
 Charge compensation  : None.
 Solution method      : Matrix inversion.
 Cavity type          : VdW (van der Waals Surface) (Alpha=1.000).
 Cavity algorithm     : GePol (No added spheres)
                        Default sphere list used, NSphG=    5.
                        Lebedev-Laikov grids with approx.  5.0 points / Ang**2.
                        Smoothing algorithm: Karplus/York (Gamma=1.0000).
                        Polarization charges: spherical gaussians, with
                                              point-specific exponents (IZeta= 3).
                        Self-potential: point-specific (ISelfS= 7).
                        Self-field    : sphere-specific E.n sum rule (ISelfD= 2).
 1st derivatives      : Analytical E(r).r(x)/FMM algorithm (CHGder, D1EAlg=3).
                        Cavity 1st derivative terms included.
 Solvent              : Water, Eps=  78.355300 Eps(inf)=   1.777849
 ------------------------------------------------------------------------------
 Spheres list:
 ISph  on   Nord    Re0     Alpha      Xe            Ye            Ze
    1   O      1    1.520   1.000     -1.121479      0.426332     -0.007929
    2   H      2    1.200   1.000     -1.698863     -0.368716     -0.107564
    3   O      3    1.520   1.000     -3.907668     -0.137155     -0.090918
    4   H      4    1.200   1.000     -3.649572     -0.129377      0.857881
[...]
 Linear search not attempted -- option 19 set.
 Maximum step size (   0.030) exceeded in Quadratic search.
    -- Step size scaled by   0.047
 Iteration  1 RMS(Cart)=  0.00921828 RMS(Int)=  0.00006221
 Iteration  2 RMS(Cart)=  0.00005022 RMS(Int)=  0.00000000
 Iteration  3 RMS(Cart)=  0.00000000 RMS(Int)=  0.00000000
 Variable       Old X    -DE/DX   Delta X   Delta X   Delta X     New X
                                 (Linear)    (Quad)   (Total)
    R1        1.86147   0.00102   0.00000  -0.00085  -0.00085   1.86062
    R2        3.84822   0.00041   0.00000   0.00055   0.00055   3.84876
    R3        4.49015  -0.00394   0.00000   0.02581   0.02581   4.51596
    R4        1.85870   0.00011   0.00000   0.00000   0.00000   1.85870
    A1        1.95186  -0.00160   0.00000   0.00087   0.00087   1.95273
    A2        2.01770   0.00430   0.00000  -0.00631  -0.00631   2.01139
    A3        1.19912   0.00122   0.00000  -0.01203  -0.01203   1.18709
    D1       -3.11736  -0.00013   0.00000  -0.00074  -0.00074  -3.11810
    D2       -1.48956   0.00078   0.00000   0.00684   0.00684  -1.48272
         Item               Value     Threshold  Converged?
 Maximum Force            0.004298     0.000450     NO 
 RMS     Force            0.002106     0.000300     NO 
 Maximum Displacement     0.018093     0.001800     NO 
 RMS     Displacement     0.009230     0.001200     NO 
 Predicted change in Energy= 1.381607D-04
 GradGradGradGradGradGradGradGradGradGradGradGradGradGradGradGradGradGrad

                          Input orientation:                          
 ---------------------------------------------------------------------
 Center     Atomic      Atomic             Coordinates (Angstroms)
 Number     Number       Type             X           Y           Z
 ---------------------------------------------------------------------
      1          8           0       -1.473463    0.627227    0.620693
      2          1           0       -1.039113    0.809780   -0.243859
      3          8           0        1.348919    0.721677   -0.223414
      4          1           0        1.010563    1.602556    0.054082
      5         53           0       -3.504248    0.685416    0.477213
 ---------------------------------------------------------------------
                    Distance matrix (angstroms):
                    1          2          3          4          5
     1  O    0.000000
     2  H    0.984599   0.000000
     3  O    2.947419   2.389745   0.000000
     4  H    2.728131   2.217754   0.983583   0.000000
     5  I    2.036679   2.571439   4.903613   4.626413   0.000000
 Stoichiometry    H2IO2(1-)
 Framework group  C1[X(H2IO2)]
 Deg. of freedom     9
 Full point group                 C1      NOp   1
 Largest Abelian subgroup         C1      NOp   1
 Largest concise Abelian subgroup C1      NOp   1
                         Standard orientation:                         
 ---------------------------------------------------------------------
 Center     Atomic      Atomic             Coordinates (Angstroms)
 Number     Number       Type             X           Y           Z
 ---------------------------------------------------------------------
      1          8           0       -1.119203    0.374146   -0.005795
      2          1           0       -1.659748   -0.448424   -0.030781
      3          8           0       -4.024945   -0.112242   -0.091643
      4          1           0       -3.674213   -0.095800    0.827135
      5         53           0        0.877116   -0.029264   -0.000318
 ---------------------------------------------------------------------
 Rotational constants (GHZ):    142.3002976      1.2941340      1.2876600
 Standard basis: LANL2DZ (5D, 7F)
 There are    30 symmetry adapted basis functions of A   symmetry.
 Integral buffers will be    262144 words long.
 Raffenetti 2 integral format.
 Two-electron integral symmetry is turned on.
    30 basis functions,    70 primitive gaussians,    30 cartesian basis functions
    13 alpha electrons       13 beta electrons
       nuclear repulsion energy        46.4907011420 Hartrees.
 NAtoms=    5 NActive=    5 NUniq=    5 SFac= 7.50D-01 NAtFMM=   80 NAOKFM=F Big=F
 ------------------------------------------------------------------------------
 Polarizable Continuum Model (PCM)
 =================================
 Model                : PCM.
 Atomic radii         : SMD-Coulomb.
 Polarization charges : Total charges.
 Charge compensation  : None.
 Solution method      : Matrix inversion.
 Cavity type          : VdW (van der Waals Surface) (Alpha=1.000).
 Cavity algorithm     : GePol (No added spheres)
                        Default sphere list used, NSphG=    5.
                        Lebedev-Laikov grids with approx.  5.0 points / Ang**2.
                        Smoothing algorithm: Karplus/York (Gamma=1.0000).
                        Polarization charges: spherical gaussians, with
                                              point-specific exponents (IZeta= 3).
                        Self-potential: point-specific (ISelfS= 7).
                        Self-field    : sphere-specific E.n sum rule (ISelfD= 2).
 1st derivatives      : Analytical E(r).r(x)/FMM algorithm (CHGder, D1EAlg=3).
                        Cavity 1st derivative terms included.
 Solvent              : Water, Eps=  78.355300 Eps(inf)=   1.777849
 ------------------------------------------------------------------------------
 Spheres list:
 ISph  on   Nord    Re0     Alpha      Xe            Ye            Ze
    1   O      1    1.520   1.000     -1.119203      0.374146     -0.005795
    2   H      2    1.200   1.000     -1.659748     -0.448424     -0.030781
    3   O      3    1.520   1.000     -4.024945     -0.112242     -0.091643
    4   H      4    1.200   1.000     -3.674213     -0.095800      0.827135
    5   I      5    1.980   1.000      0.877116     -0.029264     -0.000318
 ------------------------------------------------------------------------------
 ------------------------------------------------------------------------------
 Atomic radii for non-electrostatic terms: SMD-CDS.
 ------------------------------------------------------------------------------
 Nuclear repulsion after PCM non-electrostatic terms =       46.4923945209 Hartrees.
 One-electron integrals computed using PRISM.
   1 Symmetry operations used in ECPInt.
 ECPInt:  NShTT=     171 NPrTT=    1054 LenC2=     172 LenP2D=     875.
 LDataN:  DoStor=T MaxTD1= 4 Len=   56
 NBasis=    30 RedAO= T  NBF=    30
 NBsUse=    30 1.00D-06 NBFU=    30
 Defaulting to unpruned grid for atomic number  53.
 Initial guess read from the read-write file.
 B after Tr=     0.000000    0.000000    0.000000
         Rot=    1.000000    0.000000    0.000000    0.000000 Ang=   0.00 deg.
 Initial guess orbital symmetries:
       Occupied  (A) (A) (A) (A) (A) (A) (A) (A) (A) (A) (A) (A)
                 (A)
       Virtual   (A) (A) (A) (A) (A) (A) (A) (A) (A) (A) (A) (A)
                 (A) (A) (A) (A) (A)
 Requested convergence on RMS density matrix=1.00D-08 within 128 cycles.
 Requested convergence on MAX density matrix=1.00D-06.
 Requested convergence on             energy=1.00D-06.
 No special actions if energy rises.
 Keep R1 ints in memory in canonical form, NReq=3469495.
 Defaulting to unpruned grid for atomic number  53.
 Defaulting to unpruned grid for atomic number  53.
 Defaulting to unpruned grid for atomic number  53.
 Defaulting to unpruned grid for atomic number  53.
 Error on total polarization charges =  0.07415
 SCF Done:  E(RM062X) =  -162.995839286     A.U. after   10 cycles
             Convg  =    0.1713D-08             -V/T =  2.0586
 SMD-CDS (non-electrostatic) energy             (kcal/mol) =       1.06
 (included in total energy above)
   1 Symmetry operations used in ECPInt.
 ECPInt:  NShTT=     171 NPrTT=    1054 LenC2=     172 LenP2D=     875.
 LDataN:  DoStor=T MaxTD1= 5 Len=  102
 D1PCM: PCM CHGder 1st derivatives, ID1Alg=3 FixD1E=F DoIter=F DoCFld=F I1PDM=0.
 Calling FoFJK, ICntrl=      2127 FMM=F ISym2X=0 I1Cent= 0 IOpClX= 0 NMat=1 NMatS=1 NMatT=0.
 Defaulting to unpruned grid for atomic number  53.
 Defaulting to unpruned grid for atomic number  53.
 Defaulting to unpruned grid for atomic number  53.
 Defaulting to unpruned grid for atomic number  53.
 ***** Axes restored to original set *****
 -------------------------------------------------------------------
 Center     Atomic                   Forces (Hartrees/Bohr)
 Number     Number              X              Y              Z
 -------------------------------------------------------------------
      1        8          -0.001350800    0.000292387    0.001247163
      2        1           0.005471379   -0.001130411    0.000059104
      3        8          -0.004486154    0.000474165   -0.001275568
      4        1           0.000584737    0.000153964    0.000358978
      5       53          -0.000219162    0.000209896   -0.000389676
 -------------------------------------------------------------------
 Cartesian Forces:  Max     0.005471379 RMS     0.001956166

 GradGradGradGradGradGradGradGradGradGradGradGradGradGradGradGradGradGrad
 Berny optimization.
 Internal  Forces:  Max     0.004076167 RMS     0.002089263
 Search for a saddle point.
 Step number  20 out of a maximum of   20
 All quantities printed in internal units (Hartrees-Bohrs-Radians)
 Swaping is turned off.
 Update second derivatives using D2CorX and points   11   12   13   14   15
                                                     16   17   18   19   20
 The second derivative matrix:
                          R1        R2        R3        R4        A1
           R1           0.30917
           R2           0.04071   0.18647
           R3           0.03527   0.02277   0.02594
           R4          -0.00341  -0.00441   0.00379   0.59463
           A1           0.02687   0.03866   0.01605  -0.00953   0.09389
           A2           0.09357   0.07430   0.05606  -0.00305   0.03962
           A3           0.02300   0.00373   0.02977   0.00990  -0.00731
           D1          -0.00422  -0.00140  -0.00181  -0.00150  -0.00238
           D2          -0.00796  -0.00441   0.00373   0.00317  -0.00653
                          A2        A3        D1        D2
           A2           0.18976
           A3          -0.00789   0.07943
           D1          -0.00660  -0.00067   0.02430
           D2          -0.01798   0.02083   0.00667   0.01467
     Eigenvalues ---   -0.00351   0.00522   0.02587   0.07532   0.09233
     Eigenvalues ---    0.11413   0.20341   0.41021   0.59529
 Eigenvectors required to have negative eigenvalues:
                          R3        A3        A2        D2        A1
   1                    0.89283  -0.33219  -0.27738  -0.09673  -0.07579
                          R2        R1        D1        R4
   1                    0.01937   0.00828   0.00324  -0.00207
 RFO step:  Lambda0=3.501613767D-03 Lambda=-1.86622143D-04.
 Linear search not attempted -- option 19 set.
 Maximum step size (   0.030) exceeded in Quadratic search.
    -- Step size scaled by   0.042
 Iteration  1 RMS(Cart)=  0.00750262 RMS(Int)=  0.00004685
 Iteration  2 RMS(Cart)=  0.00003474 RMS(Int)=  0.00000000
 Iteration  3 RMS(Cart)=  0.00000000 RMS(Int)=  0.00000000
 Variable       Old X    -DE/DX   Delta X   Delta X   Delta X     New X
                                 (Linear)    (Quad)   (Total)
    R1        1.86062   0.00125   0.00000   0.00039   0.00039   1.86101
    R2        3.84876   0.00027   0.00000   0.00059   0.00059   3.84936
    R3        4.51596  -0.00392   0.00000   0.02660   0.02660   4.54257
    R4        1.85870   0.00009   0.00000  -0.00007  -0.00007   1.85863
    A1        1.95273  -0.00189   0.00000  -0.00363  -0.00363   1.94909
    A2        2.01139   0.00408   0.00000  -0.00719  -0.00719   2.00420
    A3        1.18709   0.00124   0.00000  -0.01117  -0.01117   1.17591
    D1       -3.11810  -0.00016   0.00000  -0.00104  -0.00104  -3.11914
    D2       -1.48272   0.00073   0.00000   0.00090   0.00090  -1.48182
         Item               Value     Threshold  Converged?
 Maximum Force            0.004076     0.000450     NO 
 RMS     Force            0.002089     0.000300     NO 
 Maximum Displacement     0.016892     0.001800     NO 
 RMS     Displacement     0.007509     0.001200     NO 
 Predicted change in Energy= 1.377803D-04
 Optimization stopped.
    -- Number of steps exceeded,  NStep=  20
    -- Flag reset to prevent archiving.
                           ----------------------------
                           ! Non-Optimized Parameters !
                           ! (Angstroms and Degrees)  !
 --------------------------                            --------------------------
 ! Name  Definition              Value          Derivative Info.                !
 --------------------------------------------------------------------------------
 ! R1    R(1,2)                  0.9848         -DE/DX =    0.0012              !
 ! R2    R(1,5)                  2.037          -DE/DX =    0.0003              !
 ! R3    R(2,3)                  2.4038         -DE/DX =   -0.0039              !
 ! R4    R(3,4)                  0.9835         -DE/DX =    0.0001              !
 ! A1    A(2,1,5)              111.6747         -DE/DX =   -0.0019              !
 ! A2    A(1,2,3)              114.8322         -DE/DX =    0.0041              !
 ! A3    A(2,3,4)               67.3749         -DE/DX =    0.0012              !
 ! D1    D(5,1,2,3)           -178.7133         -DE/DX =   -0.0002              !
 ! D2    D(1,2,3,4)            -84.9018         -DE/DX =    0.0007              !
 --------------------------------------------------------------------------------
 GradGradGradGradGradGradGradGradGradGradGradGradGradGradGradGradGradGrad

                          Input orientation:                          
 ---------------------------------------------------------------------
 Center     Atomic      Atomic             Coordinates (Angstroms)
 Number     Number       Type             X           Y           Z
 ---------------------------------------------------------------------
      1          8           0       -1.473463    0.627227    0.620693
      2          1           0       -1.039113    0.809780   -0.243859
      3          8           0        1.348919    0.721677   -0.223414
      4          1           0        1.010563    1.602556    0.054082
      5         53           0       -3.504248    0.685416    0.477213
 ---------------------------------------------------------------------
                    Distance matrix (angstroms):
                    1          2          3          4          5
     1  O    0.000000
     2  H    0.984599   0.000000
     3  O    2.947419   2.389745   0.000000
     4  H    2.728131   2.217754   0.983583   0.000000
     5  I    2.036679   2.571439   4.903613   4.626413   0.000000
 Stoichiometry    H2IO2(1-)
 Framework group  C1[X(H2IO2)]
 Deg. of freedom     9
 Full point group                 C1      NOp   1
 Largest Abelian subgroup         C1      NOp   1
 Largest concise Abelian subgroup C1      NOp   1
                         Standard orientation:                         
 ---------------------------------------------------------------------
 Center     Atomic      Atomic             Coordinates (Angstroms)
 Number     Number       Type             X           Y           Z
 ---------------------------------------------------------------------
      1          8           0       -1.119203    0.374146   -0.005795
      2          1           0       -1.659748   -0.448424   -0.030781
      3          8           0       -4.024945   -0.112242   -0.091643
      4          1           0       -3.674213   -0.095800    0.827135
      5         53           0        0.877116   -0.029264   -0.000318
 ---------------------------------------------------------------------
 Rotational constants (GHZ):    142.3002976      1.2941340      1.2876600

 **********************************************************************

            Population analysis using the SCF density.

 **********************************************************************

 Orbital symmetries:
       Occupied  (A) (A) (A) (A) (A) (A) (A) (A) (A) (A) (A) (A)
                 (A)
       Virtual   (A) (A) (A) (A) (A) (A) (A) (A) (A) (A) (A) (A)
                 (A) (A) (A) (A) (A)
 The electronic state is 1-A.
 Alpha  occ. eigenvalues --  -19.65504 -19.50996  -1.11230  -0.95148  -0.73991
 Alpha  occ. eigenvalues --   -0.54078  -0.43194  -0.42504  -0.39917  -0.30987
 Alpha  occ. eigenvalues --   -0.29805  -0.27524  -0.27254
 Alpha virt. eigenvalues --   -0.04839   0.17420   0.24120   0.41935   0.42517
 Alpha virt. eigenvalues --    0.43252   0.68535   0.70371   0.74598   0.78078
 Alpha virt. eigenvalues --    0.79171   0.91773   1.00578   1.13723   1.41217
 Alpha virt. eigenvalues --    1.49793   9.32562
          Condensed to atoms (all electrons):
              1          2          3          4          5
     1  O    8.617347   0.239668  -0.006464   0.001873   0.033197
     2  H    0.239668   0.308541   0.030222  -0.001113  -0.019060
     3  O   -0.006464   0.030222   8.964600   0.270169   0.001046
     4  H    0.001873  -0.001113   0.270169   0.414651  -0.000014
     5  I    0.033197  -0.019060   0.001046  -0.000014   6.595815
 Mulliken atomic charges:
              1
     1  O   -0.885620
     2  H    0.441742
     3  O   -1.259572
     4  H    0.314434
     5  I    0.389016
 Sum of Mulliken atomic charges =  -1.00000
 Mulliken charges with hydrogens summed into heavy atoms:
              1
     1  O   -0.443878
     3  O   -0.945138
     5  I    0.389016
 Sum of Mulliken charges with hydrogens summed into heavy atoms =  -1.00000
 Electronic spatial extent (au):  <R**2>=            716.8716
 Charge=             -1.0000 electrons
 Dipole moment (field-independent basis, Debye):
    X=             20.4202    Y=             -2.1638    Z=              2.3029  Tot=             20.6633
 Quadrupole moment (field-independent basis, Debye-Ang):
   XX=           -109.4009   YY=            -35.6663   ZZ=            -34.0573
   XY=              0.8919   XZ=             -8.6111   YZ=             -0.1860
 Traceless Quadrupole moment (field-independent basis, Debye-Ang):
   XX=            -49.6927   YY=             24.0419   ZZ=             25.6508
   XY=              0.8919   XZ=             -8.6111   YZ=             -0.1860
 Octapole moment (field-independent basis, Debye-Ang**2):
  XXX=            403.9110  YYY=             -2.4794  ZZZ=              2.0052  XYY=             23.2126
  XXY=              1.6325  XXZ=             32.5024  XZZ=             15.9963  YZZ=             -0.9706
  YYZ=              0.4789  XYZ=              0.7864
 Hexadecapole moment (field-independent basis, Debye-Ang**3):
 XXXX=          -2297.5943 YYYY=            -55.7915 ZZZZ=            -50.5792 XXXY=            -37.5940
 XXXZ=           -123.3520 YYYX=             -2.3432 YYYZ=             -0.1085 ZZZX=             -7.3641
 ZZZY=             -0.1739 XXYY=           -174.6540 XXZZ=           -147.3943 YYZZ=            -17.9434
 XXYZ=             -3.0679 YYXZ=             -1.8113 ZZXY=             -0.1468
 N-N= 4.649239452094D+01 E-N=-4.800959999297D+02  KE= 1.539720347540D+02


 WE MIGHT AS WELL ATTEMPT TO INTRODUCE A NEW PLANET 
 INTO THE SOLAR SYSTEM, OR TO ANNIHILATE ONE ALREADYIN EXISTENCE, 
 AS TO CREATE OR DESTROY A PARTICLE OF HYDROGEN.
 ALL THE CHANGES WE CAN PRODUCE CONSIST IN SEPARATING PARTICLES
 THAT ARE IN A STATE OF ... COMBINATION, AND JOINING 
 THOSE THAT WERE PREVIOUSLY AT A DISTANCE.

                                    -- JOHN DALTON, 1810
 Error termination request processed by link 9999.
 Error termination via Lnk1e in C:\G09W\l9999.exe at Tue Feb 02 03:52:52 2021.
 Job cpu time:  0 days  0 hours  1 minutes 53.0 seconds.
 File lengths (MBytes):  RWF=     19 Int=      0 D2E=      0 Chk=      2 Scr=      1
