 Entering Link 1 = C:\G09W\l1.exe PID=     12360.
  
 Copyright (c) 1988,1990,1992,1993,1995,1998,2003,2009, Gaussian, Inc.
                  All Rights Reserved.
  
 This is part of the Gaussian(R) 09 program.  It is based on
 the Gaussian(R) 03 system (copyright 2003, Gaussian, Inc.),
 the Gaussian(R) 98 system (copyright 1998, Gaussian, Inc.),
 the Gaussian(R) 94 system (copyright 1995, Gaussian, Inc.),
 the Gaussian 92(TM) system (copyright 1992, Gaussian, Inc.),
 the Gaussian 90(TM) system (copyright 1990, Gaussian, Inc.),
 the Gaussian 88(TM) system (copyright 1988, Gaussian, Inc.),
 the Gaussian 86(TM) system (copyright 1986, Carnegie Mellon
 University), and the Gaussian 82(TM) system (copyright 1983,
 Carnegie Mellon University). Gaussian is a federally registered
 trademark of Gaussian, Inc.
  
 This software contains proprietary and confidential information,
 including trade secrets, belonging to Gaussian, Inc.
  
 This software is provided under written license and may be
 used, copied, transmitted, or stored only in accord with that
 written license.
  
 The following legend is applicable only to US Government
 contracts under FAR:
  
                    RESTRICTED RIGHTS LEGEND
  
 Use, reproduction and disclosure by the US Government is
 subject to restrictions as set forth in subparagraphs (a)
 and (c) of the Commercial Computer Software - Restricted
 Rights clause in FAR 52.227-19.
  
 Gaussian, Inc.
 340 Quinnipiac St., Bldg. 40, Wallingford CT 06492
  
  
 ---------------------------------------------------------------
 Warning -- This program may not be used in any manner that
 competes with the business of Gaussian, Inc. or will provide
 assistance to any competitor of Gaussian, Inc.  The licensee
 of this program is prohibited from giving any competitor of
 Gaussian, Inc. access to this program.  By using this program,
 the user acknowledges that Gaussian, Inc. is engaged in the
 business of creating and licensing software in the field of
 computational chemistry and represents and warrants to the
 licensee that it is not a competitor of Gaussian, Inc. and that
 it will not use this program in any manner prohibited above.
 ---------------------------------------------------------------
  

 Cite this work as:
 Gaussian 09, Revision A.02,
 M. J. Frisch, G. W. Trucks, H. B. Schlegel, G. E. Scuseria, 
 M. A. Robb, J. R. Cheeseman, G. Scalmani, V. Barone, B. Mennucci, 
 G. A. Petersson, H. Nakatsuji, M. Caricato, X. Li, H. P. Hratchian, 
 A. F. Izmaylov, J. Bloino, G. Zheng, J. L. Sonnenberg, M. Hada, 
 M. Ehara, K. Toyota, R. Fukuda, J. Hasegawa, M. Ishida, T. Nakajima, 
 Y. Honda, O. Kitao, H. Nakai, T. Vreven, J. A. Montgomery, Jr., 
 J. E. Peralta, F. Ogliaro, M. Bearpark, J. J. Heyd, E. Brothers, 
 K. N. Kudin, V. N. Staroverov, R. Kobayashi, J. Normand, 
 K. Raghavachari, A. Rendell, J. C. Burant, S. S. Iyengar, J. Tomasi, 
 M. Cossi, N. Rega, J. M. Millam, M. Klene, J. E. Knox, J. B. Cross, 
 V. Bakken, C. Adamo, J. Jaramillo, R. Gomperts, R. E. Stratmann, 
 O. Yazyev, A. J. Austin, R. Cammi, C. Pomelli, J. W. Ochterski, 
 R. L. Martin, K. Morokuma, V. G. Zakrzewski, G. A. Voth, 
 P. Salvador, J. J. Dannenberg, S. Dapprich, A. D. Daniels, 
 O. Farkas, J. B. Foresman, J. V. Ortiz, J. Cioslowski, 
 and D. J. Fox, Gaussian, Inc., Wallingford CT, 2009.
 
 ******************************************
 Gaussian 09:  IA32W-G09RevA.02 11-Jun-2009
                02-Feb-2021 
 ******************************************
 %chk=D:\Documents\rayGit\FQ\quimicaComputacional\proyecto\decompositionHydrogenP
 eroxide\decompositionCatalyzedByIodine\step1\ts\ts.chk
 %mem=1500MB
 %nprocshared=4
 Will use up to    4 processors via shared memory.
 ----------------------------------------------------------------------
 # opt=(readfc,ts,noeigen) geom=check guess=check freq=noraman lanl2dz 
 scrf=smd iop(1/8=3) m062x
 ----------------------------------------------------------------------
 1/5=1,8=3,10=3,11=1,14=-1,18=20,26=3,29=2,38=1/1,3;
 2/9=110,12=2,40=1/2;
 3/5=6,6=3,11=2,14=-4,16=1,25=1,30=1,70=32201,71=1,72=1,74=-55,116=-2/1,2,3;
 4/5=1/1;
 5/5=2,38=6/2;
 6/7=2,8=2,9=2,10=2,28=1/1;
 7//1,2,3,16;
 1/5=1,8=3,11=1,14=-1,18=20/3(2);
 2/9=110/2;
 99//99;
 2/9=110/2;
 3/5=6,6=3,11=2,14=-2,16=1,25=1,30=1,70=32205,71=1,74=-55/1,2,3;
 4/5=5,16=3/1;
 5/5=2,38=5/2;
 7//1,2,3,16;
 1/5=1,8=3,11=1,14=-1,18=20/3(-5);
 2/9=110/2;
 6/7=2,8=2,9=2,10=2,19=2,28=1/1;
 99/9=1/99;
 -------------------------------
 Hydrogen peroxide with iodine 7
 -------------------------------
 Redundant internal coordinates taken from checkpoint file:
 D:\Documents\rayGit\FQ\quimicaComputacional\proyecto\decompositionHydrogenPeroxide\decompositionCatalyzedByIodine\step1\ts\ts.chk
 Charge = -1 Multiplicity = 1
 O,0,-1.4734627329,0.6272270967,0.6206926378
 H,0,-1.0391134047,0.8097801561,-0.243859117
 O,0,1.3489193174,0.7216774943,-0.2234135871
 H,0,1.0105625952,1.6025560094,0.0540817676
 I,0,-3.504247775,0.6854159734,0.4772131487
 Recover connectivity data from disk.

 GradGradGradGradGradGradGradGradGradGradGradGradGradGradGradGradGradGrad
 Berny optimization.
 Initialization pass.
 Force constant matrix read from checkpoint file:
 D:\Documents\rayGit\FQ\quimicaComputacional\proyecto\decompositionHydrogenPeroxi
 de\decompositionCatalyzedByIodine\step1\ts\ts.chk
                           ----------------------------
                           !    Initial Parameters    !
                           ! (Angstroms and Degrees)  !
 --------------------------                            --------------------------
 ! Name  Definition              Value          Derivative Info.                !
 --------------------------------------------------------------------------------
 ! R1    R(1,2)                  0.9846         D2E/DX2 =    0.3092             !
 ! R2    R(1,5)                  2.0367         D2E/DX2 =    0.1865             !
 ! R3    R(2,3)                  2.3897         D2E/DX2 =    0.0259             !
 ! R4    R(3,4)                  0.9836         D2E/DX2 =    0.5946             !
 ! A1    A(2,1,5)              111.8829         D2E/DX2 =    0.0939             !
 ! A2    A(1,2,3)              115.2444         D2E/DX2 =    0.1898             !
 ! A3    A(2,3,4)               68.0152         D2E/DX2 =    0.0794             !
 ! D1    D(5,1,2,3)           -178.6539         D2E/DX2 =    0.0243             !
 ! D2    D(1,2,3,4)            -84.9535         D2E/DX2 =    0.0147             !
 --------------------------------------------------------------------------------
 Trust Radius=3.00D-02 FncErr=1.00D-07 GrdErr=1.00D-06
 Number of steps in this run=  20 maximum allowed number of steps= 100.
 Search for a saddle point of order  1.
 GradGradGradGradGradGradGradGradGradGradGradGradGradGradGradGradGradGrad

                          Input orientation:                          
 ---------------------------------------------------------------------
 Center     Atomic      Atomic             Coordinates (Angstroms)
 Number     Number       Type             X           Y           Z
 ---------------------------------------------------------------------
      1          8           0       -1.473463    0.627227    0.620693
      2          1           0       -1.039113    0.809780   -0.243859
      3          8           0        1.348919    0.721677   -0.223414
      4          1           0        1.010563    1.602556    0.054082
      5         53           0       -3.504248    0.685416    0.477213
 ---------------------------------------------------------------------
                    Distance matrix (angstroms):
                    1          2          3          4          5
     1  O    0.000000
     2  H    0.984599   0.000000
     3  O    2.947419   2.389745   0.000000
     4  H    2.728131   2.217754   0.983583   0.000000
     5  I    2.036679   2.571439   4.903613   4.626413   0.000000
 Stoichiometry    H2IO2(1-)
 Framework group  C1[X(H2IO2)]
 Deg. of freedom     9
 Full point group                 C1      NOp   1
 Largest Abelian subgroup         C1      NOp   1
 Largest concise Abelian subgroup C1      NOp   1
                         Standard orientation:                         
 ---------------------------------------------------------------------
 Center     Atomic      Atomic             Coordinates (Angstroms)
 Number     Number       Type             X           Y           Z
 ---------------------------------------------------------------------
      1          8           0       -1.119203    0.374146   -0.005795
      2          1           0       -1.659748   -0.448424   -0.030781
      3          8           0       -4.024945   -0.112242   -0.091643
      4          1           0       -3.674213   -0.095800    0.827135
      5         53           0        0.877116   -0.029264   -0.000318
 ---------------------------------------------------------------------
 Rotational constants (GHZ):    142.3002976      1.2941340      1.2876600
 Standard basis: LANL2DZ (5D, 7F)
 There are    30 symmetry adapted basis functions of A   symmetry.
 Integral buffers will be    262144 words long.
 Raffenetti 2 integral format.
 Two-electron integral symmetry is turned on.
    30 basis functions,    70 primitive gaussians,    30 cartesian basis functions
    13 alpha electrons       13 beta electrons
       nuclear repulsion energy        46.4907011420 Hartrees.
 NAtoms=    5 NActive=    5 NUniq=    5 SFac= 7.50D-01 NAtFMM=   80 NAOKFM=F Big=F
 ------------------------------------------------------------------------------
 Polarizable Continuum Model (PCM)
 =================================
 Model                : PCM.
 Atomic radii         : SMD-Coulomb.
 Polarization charges : Total charges.
 Charge compensation  : None.
 Solution method      : Matrix inversion.
 Cavity type          : VdW (van der Waals Surface) (Alpha=1.000).
 Cavity algorithm     : GePol (No added spheres)
                        Default sphere list used, NSphG=    5.
                        Lebedev-Laikov grids with approx.  5.0 points / Ang**2.
                        Smoothing algorithm: Karplus/York (Gamma=1.0000).
                        Polarization charges: spherical gaussians, with
                                              point-specific exponents (IZeta= 3).
                        Self-potential: point-specific (ISelfS= 7).
                        Self-field    : sphere-specific E.n sum rule (ISelfD= 2).
 1st derivatives      : Analytical E(r).r(x)/FMM algorithm (CHGder, D1EAlg=3).
                        Cavity 1st derivative terms included.
 Solvent              : Water, Eps=  78.355300 Eps(inf)=   1.777849
 ------------------------------------------------------------------------------
 Spheres list:
 ISph  on   Nord    Re0     Alpha      Xe            Ye            Ze
    1   O      1    1.520   1.000     -1.119203      0.374146     -0.005795
    2   H      2    1.200   1.000     -1.659748     -0.448424     -0.030781
    3   O      3    1.520   1.000     -4.024945     -0.112242     -0.091643
    4   H      4    1.200   1.000     -3.674213     -0.095800      0.827135
    5   I      5    1.980   1.000      0.877116     -0.029264     -0.000318
 ------------------------------------------------------------------------------
 ------------------------------------------------------------------------------
 Atomic radii for non-electrostatic terms: SMD-CDS.
 ------------------------------------------------------------------------------
 Nuclear repulsion after PCM non-electrostatic terms =       46.4923945209 Hartrees.
 One-electron integrals computed using PRISM.
   1 Symmetry operations used in ECPInt.
 ECPInt:  NShTT=     171 NPrTT=    1054 LenC2=     172 LenP2D=     875.
 LDataN:  DoStor=T MaxTD1= 4 Len=   56
 NBasis=    30 RedAO= T  NBF=    30
 NBsUse=    30 1.00D-06 NBFU=    30
 Defaulting to unpruned grid for atomic number  53.
 Initial guess read from the checkpoint file:  D:\Documents\rayGit\FQ\quimicaComp
 utacional\proyecto\decompositionHydrogenPeroxide\decompositionCatalyzedByIodine\
 step1\ts\ts.chk
 B after Tr=     0.000000    0.000000    0.000000
         Rot=    1.000000    0.000000    0.000000    0.000000 Ang=   0.00 deg.
 Initial guess orbital symmetries:
       Occupied  (A) (A) (A) (A) (A) (A) (A) (A) (A) (A) (A) (A)
                 (A)
       Virtual   (A) (A) (A) (A) (A) (A) (A) (A) (A) (A) (A) (A)
                 (A) (A) (A) (A) (A)
 Requested convergence on RMS density matrix=1.00D-08 within 128 cycles.
 Requested convergence on MAX density matrix=1.00D-06.
 Requested convergence on             energy=1.00D-06.
 No special actions if energy rises.
 Keep R1 ints in memory in canonical form, NReq=3469495.
 Defaulting to unpruned grid for atomic number  53.
 Defaulting to unpruned grid for atomic number  53.
 Defaulting to unpruned grid for atomic number  53.
 Defaulting to unpruned grid for atomic number  53.
 Error on total polarization charges =  0.07415
 SCF Done:  E(RM062X) =  -162.995839286     A.U. after    1 cycles
             Convg  =    0.2740D-09             -V/T =  2.0586
 SMD-CDS (non-electrostatic) energy             (kcal/mol) =       1.06
 (included in total energy above)

 **********************************************************************

            Population analysis using the SCF density.

 **********************************************************************

 Orbital symmetries:
       Occupied  (A) (A) (A) (A) (A) (A) (A) (A) (A) (A) (A) (A)
                 (A)
       Virtual   (A) (A) (A) (A) (A) (A) (A) (A) (A) (A) (A) (A)
                 (A) (A) (A) (A) (A)
 The electronic state is 1-A.
 Alpha  occ. eigenvalues --  -19.65504 -19.50996  -1.11230  -0.95148  -0.73991
 Alpha  occ. eigenvalues --   -0.54078  -0.43194  -0.42504  -0.39917  -0.30987
 Alpha  occ. eigenvalues --   -0.29805  -0.27524  -0.27254
 Alpha virt. eigenvalues --   -0.04839   0.17420   0.24120   0.41935   0.42517
 Alpha virt. eigenvalues --    0.43252   0.68535   0.70371   0.74598   0.78078
 Alpha virt. eigenvalues --    0.79171   0.91773   1.00578   1.13723   1.41217
 Alpha virt. eigenvalues --    1.49793   9.32562
          Condensed to atoms (all electrons):
              1          2          3          4          5
     1  O    8.617347   0.239668  -0.006464   0.001873   0.033197
     2  H    0.239668   0.308541   0.030222  -0.001113  -0.019060
     3  O   -0.006464   0.030222   8.964600   0.270169   0.001046
     4  H    0.001873  -0.001113   0.270169   0.414651  -0.000014
     5  I    0.033197  -0.019060   0.001046  -0.000014   6.595815
 Mulliken atomic charges:
              1
     1  O   -0.885620
     2  H    0.441742
     3  O   -1.259572
     4  H    0.314434
     5  I    0.389016
 Sum of Mulliken atomic charges =  -1.00000
 Mulliken charges with hydrogens summed into heavy atoms:
              1
     1  O   -0.443878
     3  O   -0.945138
     5  I    0.389016
 Sum of Mulliken charges with hydrogens summed into heavy atoms =  -1.00000
 Electronic spatial extent (au):  <R**2>=            716.8716
 Charge=             -1.0000 electrons
 Dipole moment (field-independent basis, Debye):
    X=             20.4202    Y=             -2.1638    Z=              2.3029  Tot=             20.6633
 Quadrupole moment (field-independent basis, Debye-Ang):
   XX=           -109.4009   YY=            -35.6663   ZZ=            -34.0573
   XY=              0.8919   XZ=             -8.6111   YZ=             -0.1860
 Traceless Quadrupole moment (field-independent basis, Debye-Ang):
   XX=            -49.6927   YY=             24.0419   ZZ=             25.6508
   XY=              0.8919   XZ=             -8.6111   YZ=             -0.1860
 Octapole moment (field-independent basis, Debye-Ang**2):
  XXX=            403.9110  YYY=             -2.4794  ZZZ=              2.0052  XYY=             23.2126
  XXY=              1.6325  XXZ=             32.5024  XZZ=             15.9963  YZZ=             -0.9706
  YYZ=              0.4789  XYZ=              0.7864
 Hexadecapole moment (field-independent basis, Debye-Ang**3):
 XXXX=          -2297.5943 YYYY=            -55.7915 ZZZZ=            -50.5792 XXXY=            -37.5940
 XXXZ=           -123.3520 YYYX=             -2.3432 YYYZ=             -0.1085 ZZZX=             -7.3641
 ZZZY=             -0.1739 XXYY=           -174.6540 XXZZ=           -147.3943 YYZZ=            -17.9434
 XXYZ=             -3.0679 YYXZ=             -1.8113 ZZXY=             -0.1468
 N-N= 4.649239452094D+01 E-N=-4.800959999133D+02  KE= 1.539720347452D+02
   1 Symmetry operations used in ECPInt.
 ECPInt:  NShTT=     171 NPrTT=    1054 LenC2=     172 LenP2D=     875.
 LDataN:  DoStor=T MaxTD1= 5 Len=  102
 D1PCM: PCM CHGder 1st derivatives, ID1Alg=3 FixD1E=F DoIter=F DoCFld=F I1PDM=0.
 Calling FoFJK, ICntrl=      2127 FMM=F ISym2X=0 I1Cent= 0 IOpClX= 0 NMat=1 NMatS=1 NMatT=0.
 Defaulting to unpruned grid for atomic number  53.
 Defaulting to unpruned grid for atomic number  53.
 Defaulting to unpruned grid for atomic number  53.
 Defaulting to unpruned grid for atomic number  53.
 ***** Axes restored to original set *****
 -------------------------------------------------------------------
 Center     Atomic                   Forces (Hartrees/Bohr)
 Number     Number              X              Y              Z
 -------------------------------------------------------------------
      1        8          -0.001350800    0.000292387    0.001247163
      2        1           0.005471380   -0.001130411    0.000059104
      3        8          -0.004486154    0.000474165   -0.001275568
      4        1           0.000584737    0.000153964    0.000358978
      5       53          -0.000219162    0.000209896   -0.000389676
 -------------------------------------------------------------------
 Cartesian Forces:  Max     0.005471380 RMS     0.001956166

 GradGradGradGradGradGradGradGradGradGradGradGradGradGradGradGradGradGrad
 Berny optimization.
 Internal  Forces:  Max     0.004076167 RMS     0.002089263
 Search for a saddle point.
 Step number   1 out of a maximum of   20
 All quantities printed in internal units (Hartrees-Bohrs-Radians)
 Swaping is turned off.
 Second derivative matrix not updated -- first step.
 The second derivative matrix:
                          R1        R2        R3        R4        A1
           R1           0.30917
           R2           0.04071   0.18647
           R3           0.03527   0.02277   0.02594
           R4          -0.00341  -0.00441   0.00379   0.59463
           A1           0.02687   0.03866   0.01605  -0.00953   0.09389
           A2           0.09357   0.07430   0.05606  -0.00305   0.03962
           A3           0.02300   0.00373   0.02977   0.00990  -0.00731
           D1          -0.00422  -0.00140  -0.00181  -0.00150  -0.00238
           D2          -0.00796  -0.00441   0.00373   0.00317  -0.00653
                          A2        A3        D1        D2
           A2           0.18976
           A3          -0.00789   0.07943
           D1          -0.00660  -0.00067   0.02430
           D2          -0.01798   0.02083   0.00667   0.01467
     Eigenvalues ---   -0.00351   0.00522   0.02587   0.07532   0.09233
     Eigenvalues ---    0.11413   0.20341   0.41021   0.59529
 Eigenvectors required to have negative eigenvalues:
                          R3        A3        A2        D2        A1
   1                    0.89283  -0.33219  -0.27738  -0.09673  -0.07579
                          R2        R1        D1        R4
   1                    0.01937   0.00828   0.00324  -0.00207
 RFO step:  Lambda0=3.501613799D-03 Lambda=-1.86622098D-04.
 Linear search not attempted -- option 19 set.
 Maximum step size (   0.030) exceeded in Quadratic search.
    -- Step size scaled by   0.042
 Iteration  1 RMS(Cart)=  0.00750262 RMS(Int)=  0.00004685
 Iteration  2 RMS(Cart)=  0.00003474 RMS(Int)=  0.00000000
 Iteration  3 RMS(Cart)=  0.00000000 RMS(Int)=  0.00000000
 Variable       Old X    -DE/DX   Delta X   Delta X   Delta X     New X
                                 (Linear)    (Quad)   (Total)
    R1        1.86062   0.00125   0.00000   0.00039   0.00039   1.86101
    R2        3.84876   0.00027   0.00000   0.00059   0.00059   3.84936
    R3        4.51596  -0.00392   0.00000   0.02660   0.02660   4.54257
    R4        1.85870   0.00009   0.00000  -0.00007  -0.00007   1.85863
    A1        1.95273  -0.00189   0.00000  -0.00363  -0.00363   1.94909
    A2        2.01139   0.00408   0.00000  -0.00719  -0.00719   2.00420
    A3        1.18709   0.00124   0.00000  -0.01117  -0.01117   1.17591
    D1       -3.11810  -0.00016   0.00000  -0.00104  -0.00104  -3.11914
    D2       -1.48272   0.00073   0.00000   0.00090   0.00090  -1.48182
         Item               Value     Threshold  Converged?
 Maximum Force            0.004076     0.000450     NO 
 RMS     Force            0.002089     0.000300     NO 
 Maximum Displacement     0.016892     0.001800     NO 
 RMS     Displacement     0.007509     0.001200     NO 
 Predicted change in Energy= 1.377803D-04
 GradGradGradGradGradGradGradGradGradGradGradGradGradGradGradGradGradGrad

                          Input orientation:                          
 ---------------------------------------------------------------------
 Center     Atomic      Atomic             Coordinates (Angstroms)
 Number     Number       Type             X           Y           Z
 ---------------------------------------------------------------------
      1          8           0       -1.473991    0.627665    0.619852
      2          1           0       -1.044226    0.810724   -0.247117
      3          8           0        1.357858    0.722924   -0.221645
      4          1           0        1.008351    1.599992    0.053957
      5         53           0       -3.505334    0.685351    0.479667
 ---------------------------------------------------------------------
                    Distance matrix (angstroms):
                    1          2          3          4          5
     1  O    0.000000
     2  H    0.984806   0.000000
     3  O    2.955767   2.403823   0.000000
     4  H    2.725376   2.219608   0.983544   0.000000
     5  I    2.036991   2.569239   4.913643   4.625056   0.000000
 Stoichiometry    H2IO2(1-)
 Framework group  C1[X(H2IO2)]
 Deg. of freedom     9
 Full point group                 C1      NOp   1
 Largest Abelian subgroup         C1      NOp   1
 Largest concise Abelian subgroup C1      NOp   1
                         Standard orientation:                         
 ---------------------------------------------------------------------
 Center     Atomic      Atomic             Coordinates (Angstroms)
 Number     Number       Type             X           Y           Z
 ---------------------------------------------------------------------
      1          8           0       -1.118905    0.371637   -0.004686
      2          1           0       -1.655384   -0.453722   -0.033268
      3          8           0       -4.033837   -0.110268   -0.091290
      4          1           0       -3.672261   -0.100005    0.823324
      5         53           0        0.878294   -0.029004   -0.000420
 ---------------------------------------------------------------------
 Rotational constants (GHZ):    143.9332100      1.2896556      1.2833111
 Standard basis: LANL2DZ (5D, 7F)
 There are    30 symmetry adapted basis functions of A   symmetry.
 Integral buffers will be    262144 words long.
 Raffenetti 2 integral format.
 Two-electron integral symmetry is turned on.
    30 basis functions,    70 primitive gaussians,    30 cartesian basis functions
    13 alpha electrons       13 beta electrons
       nuclear repulsion energy        46.4354024659 Hartrees.
 NAtoms=    5 NActive=    5 NUniq=    5 SFac= 7.50D-01 NAtFMM=   80 NAOKFM=F Big=F
 ------------------------------------------------------------------------------
 Polarizable Continuum Model (PCM)
 =================================
 Model                : PCM.
 Atomic radii         : SMD-Coulomb.
 Polarization charges : Total charges.
 Charge compensation  : None.
 Solution method      : Matrix inversion.
 Cavity type          : VdW (van der Waals Surface) (Alpha=1.000).
 Cavity algorithm     : GePol (No added spheres)
                        Default sphere list used, NSphG=    5.
                        Lebedev-Laikov grids with approx.  5.0 points / Ang**2.
                        Smoothing algorithm: Karplus/York (Gamma=1.0000).
                        Polarization charges: spherical gaussians, with
                                              point-specific exponents (IZeta= 3).
                        Self-potential: point-specific (ISelfS= 7).
                        Self-field    : sphere-specific E.n sum rule (ISelfD= 2).
 1st derivatives      : Analytical E(r).r(x)/FMM algorithm (CHGder, D1EAlg=3).
                        Cavity 1st derivative terms included.
 Solvent              : Water, Eps=  78.355300 Eps(inf)=   1.777849
 ------------------------------------------------------------------------------
 Spheres list:
 ISph  on   Nord    Re0     Alpha      Xe            Ye            Ze
    1   O      1    1.520   1.000     -1.118905      0.371637     -0.004686
    2   H      2    1.200   1.000     -1.655384     -0.453722     -0.033268
    3   O      3    1.520   1.000     -4.033837     -0.110268     -0.091290
    4   H      4    1.200   1.000     -3.672261     -0.100005      0.823324
    5   I      5    1.980   1.000      0.878294     -0.029004     -0.000420
 ------------------------------------------------------------------------------
 ------------------------------------------------------------------------------
 Atomic radii for non-electrostatic terms: SMD-CDS.
 ------------------------------------------------------------------------------
 Nuclear repulsion after PCM non-electrostatic terms =       46.4370973421 Hartrees.
 One-electron integrals computed using PRISM.
   1 Symmetry operations used in ECPInt.
 ECPInt:  NShTT=     171 NPrTT=    1054 LenC2=     172 LenP2D=     874.
 LDataN:  DoStor=T MaxTD1= 4 Len=   56
 NBasis=    30 RedAO= T  NBF=    30
 NBsUse=    30 1.00D-06 NBFU=    30
 Defaulting to unpruned grid for atomic number  53.
 Initial guess read from the read-write file.
 B after Tr=     0.000000    0.000000    0.000000
         Rot=    1.000000    0.000000    0.000000    0.000000 Ang=   0.00 deg.
 Initial guess orbital symmetries:
       Occupied  (A) (A) (A) (A) (A) (A) (A) (A) (A) (A) (A) (A)
                 (A)
       Virtual   (A) (A) (A) (A) (A) (A) (A) (A) (A) (A) (A) (A)
                 (A) (A) (A) (A) (A)
 Requested convergence on RMS density matrix=1.00D-08 within 128 cycles.
 Requested convergence on MAX density matrix=1.00D-06.
 Requested convergence on             energy=1.00D-06.
 No special actions if energy rises.
 Keep R1 ints in memory in canonical form, NReq=3472114.
 Defaulting to unpruned grid for atomic number  53.
 Defaulting to unpruned grid for atomic number  53.
 Defaulting to unpruned grid for atomic number  53.
 Defaulting to unpruned grid for atomic number  53.
 Error on total polarization charges =  0.07417
 SCF Done:  E(RM062X) =  -162.995701820     A.U. after   10 cycles
             Convg  =    0.5238D-08             -V/T =  2.0586
 SMD-CDS (non-electrostatic) energy             (kcal/mol) =       1.06
 (included in total energy above)
   1 Symmetry operations used in ECPInt.
 ECPInt:  NShTT=     171 NPrTT=    1054 LenC2=     172 LenP2D=     874.
 LDataN:  DoStor=T MaxTD1= 5 Len=  102
 D1PCM: PCM CHGder 1st derivatives, ID1Alg=3 FixD1E=F DoIter=F DoCFld=F I1PDM=0.
 Calling FoFJK, ICntrl=      2127 FMM=F ISym2X=0 I1Cent= 0 IOpClX= 0 NMat=1 NMatS=1 NMatT=0.
 Defaulting to unpruned grid for atomic number  53.
 Defaulting to unpruned grid for atomic number  53.
 Defaulting to unpruned grid for atomic number  53.
 Defaulting to unpruned grid for atomic number  53.
 ***** Axes restored to original set *****
 -------------------------------------------------------------------
 Center     Atomic                   Forces (Hartrees/Bohr)
 Number     Number              X              Y              Z
 -------------------------------------------------------------------
      1        8          -0.001223871    0.000417574    0.000815482
      2        1           0.005388907   -0.001175547    0.000352424
      3        8          -0.004446860    0.000411340   -0.001234626
      4        1           0.000566929    0.000168004    0.000386273
      5       53          -0.000285105    0.000178629   -0.000319554
 -------------------------------------------------------------------
 Cartesian Forces:  Max     0.005388907 RMS     0.001916001

 GradGradGradGradGradGradGradGradGradGradGradGradGradGradGradGradGradGrad
 Berny optimization.
 Internal  Forces:  Max     0.003903198 RMS     0.001982236
 Search for a saddle point.
 Step number   2 out of a maximum of   20
 All quantities printed in internal units (Hartrees-Bohrs-Radians)
 Swaping is turned off.
 Update second derivatives using D2CorX and points    1    2
 The second derivative matrix:
                          R1        R2        R3        R4        A1
           R1           0.31046
           R2           0.04063   0.18644
           R3           0.04392   0.02078   0.02727
           R4          -0.00353  -0.00440   0.00308   0.59464
           A1           0.02450   0.03898   0.00705  -0.00932   0.09740
           A2           0.09159   0.07482   0.05835  -0.00289   0.04137
           A3           0.01944   0.00456   0.02979   0.01019  -0.00368
           D1          -0.00482  -0.00131  -0.00379  -0.00145  -0.00153
           D2          -0.00784  -0.00447   0.00248   0.00317  -0.00650
                          A2        A3        D1        D2
           A2           0.18852
           A3          -0.00899   0.07919
           D1          -0.00624   0.00013   0.02451
           D2          -0.01760   0.02137   0.00669   0.01461
     Eigenvalues ---   -0.00387   0.00511   0.02608   0.07821   0.09257
     Eigenvalues ---    0.11418   0.20462   0.41083   0.59530
 Eigenvectors required to have negative eigenvalues:
                          R3        A3        A2        D1        A1
   1                    0.89007  -0.34094  -0.29155   0.05912   0.04203
                          R1        R2        D2        R4
   1                   -0.02391   0.02218  -0.01453   0.00071
 RFO step:  Lambda0=3.528384753D-03 Lambda=-1.99764792D-04.
 Linear search not attempted -- option 19 set.
 Maximum step size (   0.030) exceeded in Quadratic search.
    -- Step size scaled by   0.042
 Iteration  1 RMS(Cart)=  0.00941596 RMS(Int)=  0.00005700
 Iteration  2 RMS(Cart)=  0.00004933 RMS(Int)=  0.00000000
 Iteration  3 RMS(Cart)=  0.00000000 RMS(Int)=  0.00000000
 Variable       Old X    -DE/DX   Delta X   Delta X   Delta X     New X
                                 (Linear)    (Quad)   (Total)
    R1        1.86101   0.00090   0.00000  -0.00060  -0.00060   1.86041
    R2        3.84936   0.00032   0.00000   0.00061   0.00061   3.84997
    R3        4.54257  -0.00390   0.00000   0.02594   0.02594   4.56850
    R4        1.85863   0.00011   0.00000   0.00002   0.00002   1.85865
    A1        1.94909  -0.00149   0.00000   0.00051   0.00051   1.94960
    A2        2.00420   0.00386   0.00000  -0.00739  -0.00739   1.99681
    A3        1.17591   0.00123   0.00000  -0.01178  -0.01178   1.16413
    D1       -3.11914  -0.00009   0.00000   0.00070   0.00070  -3.11844
    D2       -1.48182   0.00075   0.00000   0.00569   0.00569  -1.47613
         Item               Value     Threshold  Converged?
 Maximum Force            0.003903     0.000450     NO 
 RMS     Force            0.001982     0.000300     NO 
 Maximum Displacement     0.017371     0.001800     NO 
 RMS     Displacement     0.009430     0.001200     NO 
 Predicted change in Energy= 1.396133D-04
 GradGradGradGradGradGradGradGradGradGradGradGradGradGradGradGradGradGrad

                          Input orientation:                          
 ---------------------------------------------------------------------
 Center     Atomic      Atomic             Coordinates (Angstroms)
 Number     Number       Type             X           Y           Z
 ---------------------------------------------------------------------
      1          8           0       -1.474507    0.631323    0.616371
      2          1           0       -1.048660    0.811711   -0.252727
      3          8           0        1.367051    0.723704   -0.219000
      4          1           0        1.005675    1.596385    0.055256
      5         53           0       -3.506901    0.683534    0.484816
 ---------------------------------------------------------------------
                    Distance matrix (angstroms):
                    1          2          3          4          5
     1  O    0.000000
     2  H    0.984488   0.000000
     3  O    2.963246   2.417548   0.000000
     4  H    2.719834   2.220554   0.983555   0.000000
     5  I    2.037317   2.569698   4.924670   4.623977   0.000000
 Stoichiometry    H2IO2(1-)
 Framework group  C1[X(H2IO2)]
 Deg. of freedom     9
 Full point group                 C1      NOp   1
 Largest Abelian subgroup         C1      NOp   1
 Largest concise Abelian subgroup C1      NOp   1
                         Standard orientation:                         
 ---------------------------------------------------------------------
 Center     Atomic      Atomic             Coordinates (Angstroms)
 Number     Number       Type             X           Y           Z
 ---------------------------------------------------------------------
      1          8           0       -1.119336    0.364555   -0.006227
      2          1           0       -1.652849   -0.462509   -0.029559
      3          8           0       -4.043473   -0.107868   -0.090268
      4          1           0       -3.670533   -0.090185    0.819668
      5         53           0        0.879733   -0.028317   -0.000342
 ---------------------------------------------------------------------
 Rotational constants (GHZ):    148.1087486      1.2845949      1.2785663
 Standard basis: LANL2DZ (5D, 7F)
 There are    30 symmetry adapted basis functions of A   symmetry.
 Integral buffers will be    262144 words long.
 Raffenetti 2 integral format.
 Two-electron integral symmetry is turned on.
    30 basis functions,    70 primitive gaussians,    30 cartesian basis functions
    13 alpha electrons       13 beta electrons
       nuclear repulsion energy        46.3849956298 Hartrees.
 NAtoms=    5 NActive=    5 NUniq=    5 SFac= 7.50D-01 NAtFMM=   80 NAOKFM=F Big=F
 ------------------------------------------------------------------------------
 Polarizable Continuum Model (PCM)
 =================================
 Model                : PCM.
 Atomic radii         : SMD-Coulomb.
 Polarization charges : Total charges.
 Charge compensation  : None.
 Solution method      : Matrix inversion.
 Cavity type          : VdW (van der Waals Surface) (Alpha=1.000).
 Cavity algorithm     : GePol (No added spheres)
                        Default sphere list used, NSphG=    5.
                        Lebedev-Laikov grids with approx.  5.0 points / Ang**2.
                        Smoothing algorithm: Karplus/York (Gamma=1.0000).
                        Polarization charges: spherical gaussians, with
                                              point-specific exponents (IZeta= 3).
                        Self-potential: point-specific (ISelfS= 7).
                        Self-field    : sphere-specific E.n sum rule (ISelfD= 2).
 1st derivatives      : Analytical E(r).r(x)/FMM algorithm (CHGder, D1EAlg=3).
                        Cavity 1st derivative terms included.
 Solvent              : Water, Eps=  78.355300 Eps(inf)=   1.777849
 ------------------------------------------------------------------------------
 Spheres list:
 ISph  on   Nord    Re0     Alpha      Xe            Ye            Ze
    1   O      1    1.520   1.000     -1.119336      0.364555     -0.006227
    2   H      2    1.200   1.000     -1.652849     -0.462509     -0.029559
    3   O      3    1.520   1.000     -4.043473     -0.107868     -0.090268
    4   H      4    1.200   1.000     -3.670533     -0.090185      0.819668
    5   I      5    1.980   1.000      0.879733     -0.028317     -0.000342
 ------------------------------------------------------------------------------
 ------------------------------------------------------------------------------
 Atomic radii for non-electrostatic terms: SMD-CDS.
 ------------------------------------------------------------------------------
 Nuclear repulsion after PCM non-electrostatic terms =       46.3866922831 Hartrees.
 One-electron integrals computed using PRISM.
   1 Symmetry operations used in ECPInt.
 ECPInt:  NShTT=     171 NPrTT=    1054 LenC2=     172 LenP2D=     876.
 LDataN:  DoStor=T MaxTD1= 4 Len=   56
 NBasis=    30 RedAO= T  NBF=    30
 NBsUse=    30 1.00D-06 NBFU=    30
 Defaulting to unpruned grid for atomic number  53.
 Initial guess read from the read-write file.
 B after Tr=     0.000000    0.000000    0.000000
         Rot=    1.000000    0.000000    0.000000    0.000000 Ang=   0.00 deg.
 Initial guess orbital symmetries:
       Occupied  (A) (A) (A) (A) (A) (A) (A) (A) (A) (A) (A) (A)
                 (A)
       Virtual   (A) (A) (A) (A) (A) (A) (A) (A) (A) (A) (A) (A)
                 (A) (A) (A) (A) (A)
 Requested convergence on RMS density matrix=1.00D-08 within 128 cycles.
 Requested convergence on MAX density matrix=1.00D-06.
 Requested convergence on             energy=1.00D-06.
 No special actions if energy rises.
 Keep R1 ints in memory in canonical form, NReq=3473471.
 Defaulting to unpruned grid for atomic number  53.
 Defaulting to unpruned grid for atomic number  53.
 Defaulting to unpruned grid for atomic number  53.
 Defaulting to unpruned grid for atomic number  53.
 Error on total polarization charges =  0.07420
 SCF Done:  E(RM062X) =  -162.995557095     A.U. after   10 cycles
             Convg  =    0.5377D-08             -V/T =  2.0586
 SMD-CDS (non-electrostatic) energy             (kcal/mol) =       1.06
 (included in total energy above)
   1 Symmetry operations used in ECPInt.
 ECPInt:  NShTT=     171 NPrTT=    1054 LenC2=     172 LenP2D=     876.
 LDataN:  DoStor=T MaxTD1= 5 Len=  102
 D1PCM: PCM CHGder 1st derivatives, ID1Alg=3 FixD1E=F DoIter=F DoCFld=F I1PDM=0.
 Calling FoFJK, ICntrl=      2127 FMM=F ISym2X=0 I1Cent= 0 IOpClX= 0 NMat=1 NMatS=1 NMatT=0.
 Defaulting to unpruned grid for atomic number  53.
 Defaulting to unpruned grid for atomic number  53.
 Defaulting to unpruned grid for atomic number  53.
 Defaulting to unpruned grid for atomic number  53.
 ***** Axes restored to original set *****
 -------------------------------------------------------------------
 Center     Atomic                   Forces (Hartrees/Bohr)
 Number     Number              X              Y              Z
 -------------------------------------------------------------------
      1        8          -0.001231316    0.000346351    0.001084330
      2        1           0.005242110   -0.001104874    0.000094639
      3        8          -0.004421388    0.000355520   -0.001098262
      4        1           0.000565313    0.000176466    0.000344607
      5       53          -0.000154719    0.000226536   -0.000425314
 -------------------------------------------------------------------
 Cartesian Forces:  Max     0.005242110 RMS     0.001881987

 GradGradGradGradGradGradGradGradGradGradGradGradGradGradGradGradGradGrad
 Berny optimization.
 Internal  Forces:  Max     0.003892720 RMS     0.001960084
 Search for a saddle point.
 Step number   3 out of a maximum of   20
 All quantities printed in internal units (Hartrees-Bohrs-Radians)
 Swaping is turned off.
 Update second derivatives using D2CorX and points    1    2    3
 The second derivative matrix:
                          R1        R2        R3        R4        A1
           R1           0.31088
           R2           0.04028   0.18673
           R3           0.03856   0.02437   0.02937
           R4          -0.00353  -0.00441   0.00303   0.59464
           A1           0.02406   0.03939   0.01539  -0.00933   0.09775
           A2           0.09292   0.07397   0.06048  -0.00288   0.03919
           A3           0.02181   0.00298   0.02916   0.01022  -0.00738
           D1          -0.00495  -0.00120  -0.00251  -0.00145  -0.00137
           D2          -0.00881  -0.00381   0.00361   0.00316  -0.00502
                          A2        A3        D1        D2
           A2           0.18723
           A3          -0.01001   0.07934
           D1          -0.00654  -0.00044   0.02455
           D2          -0.01743   0.02092   0.00693   0.01494
     Eigenvalues ---   -0.00313   0.00542   0.02623   0.07839   0.09254
     Eigenvalues ---    0.11422   0.20561   0.41084   0.59530
 Eigenvectors required to have negative eigenvalues:
                          R3        A3        A2        D2        A1
   1                    0.88459  -0.32756  -0.30563  -0.11253  -0.05361
                          D1        R2        R1        R4
   1                    0.02978   0.01897   0.00355  -0.00037
 RFO step:  Lambda0=3.620933426D-03 Lambda=-1.16098152D-04.
 Linear search not attempted -- option 19 set.
 Maximum step size (   0.030) exceeded in Quadratic search.
    -- Step size scaled by   0.041
 Iteration  1 RMS(Cart)=  0.00800276 RMS(Int)=  0.00004227
 Iteration  2 RMS(Cart)=  0.00003498 RMS(Int)=  0.00000000
 Iteration  3 RMS(Cart)=  0.00000000 RMS(Int)=  0.00000000
 Variable       Old X    -DE/DX   Delta X   Delta X   Delta X     New X
                                 (Linear)    (Quad)   (Total)
    R1        1.86041   0.00105   0.00000   0.00021   0.00021   1.86063
    R2        3.84997   0.00018   0.00000   0.00059   0.00059   3.85056
    R3        4.56850  -0.00389   0.00000   0.02657   0.02657   4.59508
    R4        1.85865   0.00011   0.00000  -0.00002  -0.00002   1.85863
    A1        1.94960  -0.00172   0.00000  -0.00274  -0.00274   1.94686
    A2        1.99681   0.00365   0.00000  -0.00838  -0.00838   1.98843
    A3        1.16413   0.00123   0.00000  -0.01071  -0.01071   1.15342
    D1       -3.11844  -0.00013   0.00000   0.00039   0.00039  -3.11804
    D2       -1.47613   0.00069   0.00000  -0.00096  -0.00096  -1.47709
         Item               Value     Threshold  Converged?
 Maximum Force            0.003893     0.000450     NO 
 RMS     Force            0.001960     0.000300     NO 
 Maximum Displacement     0.016190     0.001800     NO 
 RMS     Displacement     0.008011     0.001200     NO 
 Predicted change in Energy= 1.415380D-04
 GradGradGradGradGradGradGradGradGradGradGradGradGradGradGradGradGradGrad

                          Input orientation:                          
 ---------------------------------------------------------------------
 Center     Atomic      Atomic             Coordinates (Angstroms)
 Number     Number       Type             X           Y           Z
 ---------------------------------------------------------------------
      1          8           0       -1.474977    0.632516    0.614536
      2          1           0       -1.054000    0.813826   -0.256867
      3          8           0        1.375618    0.724273   -0.216118
      4          1           0        1.004095    1.593691    0.054897
      5         53           0       -3.508078    0.682350    0.488267
 ---------------------------------------------------------------------
                    Distance matrix (angstroms):
                    1          2          3          4          5
     1  O    0.000000
     2  H    0.984601   0.000000
     3  O    2.970572   2.431609   0.000000
     4  H    2.717140   2.222868   0.983547   0.000000
     5  I    2.037628   2.568075   4.934410   4.623641   0.000000
 Stoichiometry    H2IO2(1-)
 Framework group  C1[X(H2IO2)]
 Deg. of freedom     9
 Full point group                 C1      NOp   1
 Largest Abelian subgroup         C1      NOp   1
 Largest concise Abelian subgroup C1      NOp   1
                         Standard orientation:                         
 ---------------------------------------------------------------------
 Center     Atomic      Atomic             Coordinates (Angstroms)
 Number     Number       Type             X           Y           Z
 ---------------------------------------------------------------------
      1          8           0       -1.119394    0.360170   -0.005104
      2          1           0       -1.648672   -0.469710   -0.029645
      3          8           0       -4.052049   -0.105234   -0.090115
      4          1           0       -3.669590   -0.092861    0.815940
      5         53           0        0.880940   -0.027866   -0.000463
 ---------------------------------------------------------------------
 Rotational constants (GHZ):    150.8618362      1.2802072      1.2743770
 Standard basis: LANL2DZ (5D, 7F)
 There are    30 symmetry adapted basis functions of A   symmetry.
 Integral buffers will be    262144 words long.
 Raffenetti 2 integral format.
 Two-electron integral symmetry is turned on.
    30 basis functions,    70 primitive gaussians,    30 cartesian basis functions
    13 alpha electrons       13 beta electrons
       nuclear repulsion energy        46.3343937221 Hartrees.
 NAtoms=    5 NActive=    5 NUniq=    5 SFac= 7.50D-01 NAtFMM=   80 NAOKFM=F Big=F
 ------------------------------------------------------------------------------
 Polarizable Continuum Model (PCM)
 =================================
 Model                : PCM.
 Atomic radii         : SMD-Coulomb.
 Polarization charges : Total charges.
 Charge compensation  : None.
 Solution method      : Matrix inversion.
 Cavity type          : VdW (van der Waals Surface) (Alpha=1.000).
 Cavity algorithm     : GePol (No added spheres)
                        Default sphere list used, NSphG=    5.
                        Lebedev-Laikov grids with approx.  5.0 points / Ang**2.
                        Smoothing algorithm: Karplus/York (Gamma=1.0000).
                        Polarization charges: spherical gaussians, with
                                              point-specific exponents (IZeta= 3).
                        Self-potential: point-specific (ISelfS= 7).
                        Self-field    : sphere-specific E.n sum rule (ISelfD= 2).
 1st derivatives      : Analytical E(r).r(x)/FMM algorithm (CHGder, D1EAlg=3).
                        Cavity 1st derivative terms included.
 Solvent              : Water, Eps=  78.355300 Eps(inf)=   1.777849
 ------------------------------------------------------------------------------
 Spheres list:
 ISph  on   Nord    Re0     Alpha      Xe            Ye            Ze
    1   O      1    1.520   1.000     -1.119394      0.360170     -0.005104
    2   H      2    1.200   1.000     -1.648672     -0.469710     -0.029645
    3   O      3    1.520   1.000     -4.052049     -0.105234     -0.090115
    4   H      4    1.200   1.000     -3.669590     -0.092861      0.815940
    5   I      5    1.980   1.000      0.880940     -0.027866     -0.000463
 ------------------------------------------------------------------------------
 ------------------------------------------------------------------------------
 Atomic radii for non-electrostatic terms: SMD-CDS.
 ------------------------------------------------------------------------------
 Nuclear repulsion after PCM non-electrostatic terms =       46.3360913159 Hartrees.
 One-electron integrals computed using PRISM.
   1 Symmetry operations used in ECPInt.
 ECPInt:  NShTT=     171 NPrTT=    1054 LenC2=     172 LenP2D=     876.
 LDataN:  DoStor=T MaxTD1= 4 Len=   56
 NBasis=    30 RedAO= T  NBF=    30
 NBsUse=    30 1.00D-06 NBFU=    30
 Defaulting to unpruned grid for atomic number  53.
 Initial guess read from the read-write file.
 B after Tr=     0.000000    0.000000    0.000000
         Rot=    1.000000    0.000000    0.000000    0.000000 Ang=   0.00 deg.
 Initial guess orbital symmetries:
       Occupied  (A) (A) (A) (A) (A) (A) (A) (A) (A) (A) (A) (A)
                 (A)
       Virtual   (A) (A) (A) (A) (A) (A) (A) (A) (A) (A) (A) (A)
                 (A) (A) (A) (A) (A)
 Requested convergence on RMS density matrix=1.00D-08 within 128 cycles.
 Requested convergence on MAX density matrix=1.00D-06.
 Requested convergence on             energy=1.00D-06.
 No special actions if energy rises.
 Keep R1 ints in memory in canonical form, NReq=3477556.
 Defaulting to unpruned grid for atomic number  53.
 Defaulting to unpruned grid for atomic number  53.
 Defaulting to unpruned grid for atomic number  53.
 Defaulting to unpruned grid for atomic number  53.
 Error on total polarization charges =  0.07422
 SCF Done:  E(RM062X) =  -162.995416422     A.U. after   10 cycles
             Convg  =    0.2330D-08             -V/T =  2.0586
 SMD-CDS (non-electrostatic) energy             (kcal/mol) =       1.07
 (included in total energy above)
   1 Symmetry operations used in ECPInt.
 ECPInt:  NShTT=     171 NPrTT=    1054 LenC2=     172 LenP2D=     876.
 LDataN:  DoStor=T MaxTD1= 5 Len=  102
 D1PCM: PCM CHGder 1st derivatives, ID1Alg=3 FixD1E=F DoIter=F DoCFld=F I1PDM=0.
 Calling FoFJK, ICntrl=      2127 FMM=F ISym2X=0 I1Cent= 0 IOpClX= 0 NMat=1 NMatS=1 NMatT=0.
 Defaulting to unpruned grid for atomic number  53.
 Defaulting to unpruned grid for atomic number  53.
 Defaulting to unpruned grid for atomic number  53.
 Defaulting to unpruned grid for atomic number  53.
 ***** Axes restored to original set *****
 -------------------------------------------------------------------
 Center     Atomic                   Forces (Hartrees/Bohr)
 Number     Number              X              Y              Z
 -------------------------------------------------------------------
      1        8          -0.001175218    0.000438036    0.000804208
      2        1           0.005150566   -0.001133411    0.000268913
      3        8          -0.004342789    0.000303849   -0.001049160
      4        1           0.000554906    0.000178138    0.000377777
      5       53          -0.000187466    0.000213388   -0.000401738
 -------------------------------------------------------------------
 Cartesian Forces:  Max     0.005150566 RMS     0.001841781

 GradGradGradGradGradGradGradGradGradGradGradGradGradGradGradGradGradGrad
 Berny optimization.
 Internal  Forces:  Max     0.003834231 RMS     0.001876255
 Search for a saddle point.
 Step number   4 out of a maximum of   20
 All quantities printed in internal units (Hartrees-Bohrs-Radians)
 Swaping is turned off.
 Update second derivatives using D2CorX and points    1    2    3    4
 The second derivative matrix:
                          R1        R2        R3        R4        A1
           R1           0.31100
           R2           0.04034   0.18671
           R3           0.04361   0.02351   0.02932
           R4          -0.00353  -0.00442   0.00259   0.59465
           A1           0.02345   0.03943   0.00949  -0.00929   0.09906
           A2           0.09137   0.07426   0.06193  -0.00274   0.04091
           A3           0.01972   0.00334   0.02909   0.01040  -0.00492
           D1          -0.00496  -0.00121  -0.00422  -0.00146  -0.00120
           D2          -0.00876  -0.00382   0.00261   0.00315  -0.00498
                          A2        A3        D1        D2
           A2           0.18634
           A3          -0.01059   0.07940
           D1          -0.00598   0.00027   0.02453
           D2          -0.01707   0.02133   0.00689   0.01491
     Eigenvalues ---   -0.00403   0.00537   0.02629   0.07938   0.09262
     Eigenvalues ---    0.11424   0.20584   0.41092   0.59530
 Eigenvectors required to have negative eigenvalues:
                          R3        A3        A2        D1        D2
   1                    0.88464  -0.32844  -0.31288   0.08244  -0.06202
                          A1        R2        R1        R4
   1                    0.02230   0.01649  -0.01533   0.00135
 RFO step:  Lambda0=3.352280616D-03 Lambda=-1.07763595D-04.
 Linear search not attempted -- option 19 set.
 Maximum step size (   0.030) exceeded in Quadratic search.
    -- Step size scaled by   0.044
 Iteration  1 RMS(Cart)=  0.00940883 RMS(Int)=  0.00004646
 Iteration  2 RMS(Cart)=  0.00004359 RMS(Int)=  0.00000000
 Iteration  3 RMS(Cart)=  0.00000000 RMS(Int)=  0.00000000
 Variable       Old X    -DE/DX   Delta X   Delta X   Delta X     New X
                                 (Linear)    (Quad)   (Total)
    R1        1.86063   0.00083   0.00000  -0.00036  -0.00036   1.86026
    R2        3.85056   0.00020   0.00000   0.00047   0.00047   3.85102
    R3        4.59508  -0.00383   0.00000   0.02643   0.02643   4.62150
    R4        1.85863   0.00012   0.00000   0.00004   0.00004   1.85868
    A1        1.94686  -0.00144   0.00000  -0.00017  -0.00017   1.94669
    A2        1.98843   0.00349   0.00000  -0.00848  -0.00848   1.97995
    A3        1.15342   0.00122   0.00000  -0.01100  -0.01100   1.14242
    D1       -3.11804  -0.00007   0.00000   0.00223   0.00223  -3.11582
    D2       -1.47709   0.00071   0.00000   0.00187   0.00187  -1.47523
         Item               Value     Threshold  Converged?
 Maximum Force            0.003834     0.000450     NO 
 RMS     Force            0.001876     0.000300     NO 
 Maximum Displacement     0.016437     0.001800     NO 
 RMS     Displacement     0.009423     0.001200     NO 
 Predicted change in Energy= 1.414013D-04
 GradGradGradGradGradGradGradGradGradGradGradGradGradGradGradGradGradGrad

                          Input orientation:                          
 ---------------------------------------------------------------------
 Center     Atomic      Atomic             Coordinates (Angstroms)
 Number     Number       Type             X           Y           Z
 ---------------------------------------------------------------------
      1          8           0       -1.475574    0.636094    0.611152
      2          1           0       -1.059041    0.816358   -0.262385
      3          8           0        1.384316    0.724348   -0.212724
      4          1           0        1.002529    1.590245    0.055358
      5         53           0       -3.509573    0.679612    0.493314
 ---------------------------------------------------------------------
                    Distance matrix (angstroms):
                    1          2          3          4          5
     1  O    0.000000
     2  H    0.984409   0.000000
     3  O    2.977504   2.445593   0.000000
     4  H    2.712988   2.224844   0.983569   0.000000
     5  I    2.037874   2.568051   4.944759   4.623864   0.000000
 Stoichiometry    H2IO2(1-)
 Framework group  C1[X(H2IO2)]
 Deg. of freedom     9
 Full point group                 C1      NOp   1
 Largest Abelian subgroup         C1      NOp   1
 Largest concise Abelian subgroup C1      NOp   1
                         Standard orientation:                         
 ---------------------------------------------------------------------
 Center     Atomic      Atomic             Coordinates (Angstroms)
 Number     Number       Type             X           Y           Z
 ---------------------------------------------------------------------
      1          8           0       -1.119812    0.352912   -0.006020
      2          1           0       -1.645552   -0.479164   -0.023588
      3          8           0       -4.061080   -0.102604   -0.089553
      4          1           0       -3.669198   -0.084284    0.812390
      5         53           0        0.882300   -0.027151   -0.000457
 ---------------------------------------------------------------------
 Rotational constants (GHZ):    155.3254251      1.2754799      1.2699535
 Standard basis: LANL2DZ (5D, 7F)
 There are    30 symmetry adapted basis functions of A   symmetry.
 Integral buffers will be    262144 words long.
 Raffenetti 2 integral format.
 Two-electron integral symmetry is turned on.
    30 basis functions,    70 primitive gaussians,    30 cartesian basis functions
    13 alpha electrons       13 beta electrons
       nuclear repulsion energy        46.2864562871 Hartrees.
 NAtoms=    5 NActive=    5 NUniq=    5 SFac= 7.50D-01 NAtFMM=   80 NAOKFM=F Big=F
 ------------------------------------------------------------------------------
 Polarizable Continuum Model (PCM)
 =================================
 Model                : PCM.
 Atomic radii         : SMD-Coulomb.
 Polarization charges : Total charges.
 Charge compensation  : None.
 Solution method      : Matrix inversion.
 Cavity type          : VdW (van der Waals Surface) (Alpha=1.000).
 Cavity algorithm     : GePol (No added spheres)
                        Default sphere list used, NSphG=    5.
                        Lebedev-Laikov grids with approx.  5.0 points / Ang**2.
                        Smoothing algorithm: Karplus/York (Gamma=1.0000).
                        Polarization charges: spherical gaussians, with
                                              point-specific exponents (IZeta= 3).
                        Self-potential: point-specific (ISelfS= 7).
                        Self-field    : sphere-specific E.n sum rule (ISelfD= 2).
 1st derivatives      : Analytical E(r).r(x)/FMM algorithm (CHGder, D1EAlg=3).
                        Cavity 1st derivative terms included.
 Solvent              : Water, Eps=  78.355300 Eps(inf)=   1.777849
 ------------------------------------------------------------------------------
 Spheres list:
 ISph  on   Nord    Re0     Alpha      Xe            Ye            Ze
    1   O      1    1.520   1.000     -1.119812      0.352912     -0.006020
    2   H      2    1.200   1.000     -1.645552     -0.479164     -0.023588
    3   O      3    1.520   1.000     -4.061080     -0.102604     -0.089553
    4   H      4    1.200   1.000     -3.669198     -0.084284      0.812390
    5   I      5    1.980   1.000      0.882300     -0.027151     -0.000457
 ------------------------------------------------------------------------------
 ------------------------------------------------------------------------------
 Atomic radii for non-electrostatic terms: SMD-CDS.
 ------------------------------------------------------------------------------
 Nuclear repulsion after PCM non-electrostatic terms =       46.2881542719 Hartrees.
 One-electron integrals computed using PRISM.
   1 Symmetry operations used in ECPInt.
 ECPInt:  NShTT=     171 NPrTT=    1054 LenC2=     171 LenP2D=     873.
 LDataN:  DoStor=T MaxTD1= 4 Len=   56
 NBasis=    30 RedAO= T  NBF=    30
 NBsUse=    30 1.00D-06 NBFU=    30
 Defaulting to unpruned grid for atomic number  53.
 Initial guess read from the read-write file.
 B after Tr=     0.000000    0.000000    0.000000
         Rot=    1.000000    0.000000    0.000000    0.000000 Ang=   0.00 deg.
 Initial guess orbital symmetries:
       Occupied  (A) (A) (A) (A) (A) (A) (A) (A) (A) (A) (A) (A)
                 (A)
       Virtual   (A) (A) (A) (A) (A) (A) (A) (A) (A) (A) (A) (A)
                 (A) (A) (A) (A) (A)
 Requested convergence on RMS density matrix=1.00D-08 within 128 cycles.
 Requested convergence on MAX density matrix=1.00D-06.
 Requested convergence on             energy=1.00D-06.
 No special actions if energy rises.
 Keep R1 ints in memory in canonical form, NReq=3478921.
 Defaulting to unpruned grid for atomic number  53.
 Defaulting to unpruned grid for atomic number  53.
 Defaulting to unpruned grid for atomic number  53.
 Defaulting to unpruned grid for atomic number  53.
 Error on total polarization charges =  0.07424
 SCF Done:  E(RM062X) =  -162.995271528     A.U. after   10 cycles
             Convg  =    0.8139D-08             -V/T =  2.0586
 SMD-CDS (non-electrostatic) energy             (kcal/mol) =       1.07
 (included in total energy above)
   1 Symmetry operations used in ECPInt.
 ECPInt:  NShTT=     171 NPrTT=    1054 LenC2=     171 LenP2D=     873.
 LDataN:  DoStor=T MaxTD1= 5 Len=  102
 D1PCM: PCM CHGder 1st derivatives, ID1Alg=3 FixD1E=F DoIter=F DoCFld=F I1PDM=0.
 Calling FoFJK, ICntrl=      2127 FMM=F ISym2X=0 I1Cent= 0 IOpClX= 0 NMat=1 NMatS=1 NMatT=0.
 Defaulting to unpruned grid for atomic number  53.
 Defaulting to unpruned grid for atomic number  53.
 Defaulting to unpruned grid for atomic number  53.
 Defaulting to unpruned grid for atomic number  53.
 ***** Axes restored to original set *****
 -------------------------------------------------------------------
 Center     Atomic                   Forces (Hartrees/Bohr)
 Number     Number              X              Y              Z
 -------------------------------------------------------------------
      1        8          -0.001191096    0.000391537    0.000943286
      2        1           0.004995692   -0.001092328    0.000114647
      3        8          -0.004222997    0.000266251   -0.000929289
      4        1           0.000536858    0.000180800    0.000359841
      5       53          -0.000118457    0.000253740   -0.000488485
 -------------------------------------------------------------------
 Cartesian Forces:  Max     0.004995692 RMS     0.001791846

 GradGradGradGradGradGradGradGradGradGradGradGradGradGradGradGradGradGrad
 Berny optimization.
 Internal  Forces:  Max     0.003747045 RMS     0.001835742
 Search for a saddle point.
 Step number   5 out of a maximum of   20
 All quantities printed in internal units (Hartrees-Bohrs-Radians)
 Swaping is turned off.
 Update second derivatives using D2CorX and points    1    2    3    4    5
 The second derivative matrix:
                          R1        R2        R3        R4        A1
           R1           0.31092
           R2           0.04030   0.18674
           R3           0.03995   0.02556   0.02916
           R4          -0.00353  -0.00441   0.00247   0.59464
           A1           0.02371   0.03939   0.01410  -0.00929   0.09855
           A2           0.09248   0.07360   0.06248  -0.00269   0.03949
           A3           0.02127   0.00248   0.02940   0.01045  -0.00689
           D1          -0.00510  -0.00108  -0.00271  -0.00147  -0.00107
           D2          -0.00906  -0.00366   0.00338   0.00315  -0.00464
                          A2        A3        D1        D2
           A2           0.18594
           A3          -0.01090   0.07917
           D1          -0.00639  -0.00035   0.02467
           D2          -0.01730   0.02102   0.00705   0.01504
     Eigenvalues ---   -0.00464   0.00540   0.02641   0.07898   0.09258
     Eigenvalues ---    0.11423   0.20574   0.41084   0.59530
 Eigenvectors required to have negative eigenvalues:
                          R3        A3        A2        D2        A1
   1                    0.88372  -0.33166  -0.31466  -0.08959  -0.03097
                          D1        R2        R1        R4
   1                    0.03013   0.01184   0.00144   0.00089
 RFO step:  Lambda0=2.982464929D-03 Lambda=-1.01494544D-04.
 Linear search not attempted -- option 19 set.
 Maximum step size (   0.030) exceeded in Quadratic search.
    -- Step size scaled by   0.048
 Iteration  1 RMS(Cart)=  0.00842257 RMS(Int)=  0.00004691
 Iteration  2 RMS(Cart)=  0.00003831 RMS(Int)=  0.00000000
 Iteration  3 RMS(Cart)=  0.00000000 RMS(Int)=  0.00000000
 Variable       Old X    -DE/DX   Delta X   Delta X   Delta X     New X
                                 (Linear)    (Quad)   (Total)
    R1        1.86026   0.00092   0.00000   0.00018   0.00018   1.86044
    R2        3.85102   0.00012   0.00000   0.00034   0.00034   3.85137
    R3        4.62150  -0.00375   0.00000   0.02644   0.02644   4.64794
    R4        1.85868   0.00012   0.00000   0.00002   0.00002   1.85870
    A1        1.94669  -0.00154   0.00000  -0.00204  -0.00204   1.94465
    A2        1.97995   0.00335   0.00000  -0.00855  -0.00855   1.97140
    A3        1.14242   0.00119   0.00000  -0.01108  -0.01108   1.13133
    D1       -3.11582  -0.00013   0.00000   0.00015   0.00015  -3.11567
    D2       -1.47523   0.00065   0.00000   0.00071   0.00071  -1.47451
         Item               Value     Threshold  Converged?
 Maximum Force            0.003747     0.000450     NO 
 RMS     Force            0.001836     0.000300     NO 
 Maximum Displacement     0.016237     0.001800     NO 
 RMS     Displacement     0.008433     0.001200     NO 
 Predicted change in Energy= 1.350751D-04
 GradGradGradGradGradGradGradGradGradGradGradGradGradGradGradGradGradGrad

                          Input orientation:                          
 ---------------------------------------------------------------------
 Center     Atomic      Atomic             Coordinates (Angstroms)
 Number     Number       Type             X           Y           Z
 ---------------------------------------------------------------------
      1          8           0       -1.475919    0.637765    0.608708
      2          1           0       -1.064244    0.818124   -0.267216
      3          8           0        1.392908    0.725129   -0.209610
      4          1           0        1.000438    1.587194    0.055426
      5         53           0       -3.510526    0.678444    0.497406
 ---------------------------------------------------------------------
                    Distance matrix (angstroms):
                    1          2          3          4          5
     1  O    0.000000
     2  H    0.984504   0.000000
     3  O    2.984534   2.459585   0.000000
     4  H    2.709222   2.226764   0.983582   0.000000
     5  I    2.038055   2.566798   4.954363   4.622767   0.000000
 Stoichiometry    H2IO2(1-)
 Framework group  C1[X(H2IO2)]
 Deg. of freedom     9
 Full point group                 C1      NOp   1
 Largest Abelian subgroup         C1      NOp   1
 Largest concise Abelian subgroup C1      NOp   1
                         Standard orientation:                         
 ---------------------------------------------------------------------
 Center     Atomic      Atomic             Coordinates (Angstroms)
 Number     Number       Type             X           Y           Z
 ---------------------------------------------------------------------
      1          8           0       -1.119918    0.347581   -0.005221
      2          1           0       -1.641548   -0.487172   -0.023627
      3          8           0       -4.069543   -0.099746   -0.089226
      4          1           0       -3.667579   -0.085319    0.808353
      5         53           0        0.883487   -0.026607   -0.000550
 ---------------------------------------------------------------------
 Rotational constants (GHZ):    158.8424591      1.2712075      1.2658995
 Standard basis: LANL2DZ (5D, 7F)
 There are    30 symmetry adapted basis functions of A   symmetry.
 Integral buffers will be    262144 words long.
 Raffenetti 2 integral format.
 Two-electron integral symmetry is turned on.
    30 basis functions,    70 primitive gaussians,    30 cartesian basis functions
    13 alpha electrons       13 beta electrons
       nuclear repulsion energy        46.2392910909 Hartrees.
 NAtoms=    5 NActive=    5 NUniq=    5 SFac= 7.50D-01 NAtFMM=   80 NAOKFM=F Big=F
 ------------------------------------------------------------------------------
 Polarizable Continuum Model (PCM)
 =================================
 Model                : PCM.
 Atomic radii         : SMD-Coulomb.
 Polarization charges : Total charges.
 Charge compensation  : None.
 Solution method      : Matrix inversion.
 Cavity type          : VdW (van der Waals Surface) (Alpha=1.000).
 Cavity algorithm     : GePol (No added spheres)
                        Default sphere list used, NSphG=    5.
                        Lebedev-Laikov grids with approx.  5.0 points / Ang**2.
                        Smoothing algorithm: Karplus/York (Gamma=1.0000).
                        Polarization charges: spherical gaussians, with
                                              point-specific exponents (IZeta= 3).
                        Self-potential: point-specific (ISelfS= 7).
                        Self-field    : sphere-specific E.n sum rule (ISelfD= 2).
 1st derivatives      : Analytical E(r).r(x)/FMM algorithm (CHGder, D1EAlg=3).
                        Cavity 1st derivative terms included.
 Solvent              : Water, Eps=  78.355300 Eps(inf)=   1.777849
 ------------------------------------------------------------------------------
 Spheres list:
 ISph  on   Nord    Re0     Alpha      Xe            Ye            Ze
    1   O      1    1.520   1.000     -1.119918      0.347581     -0.005221
    2   H      2    1.200   1.000     -1.641548     -0.487172     -0.023627
    3   O      3    1.520   1.000     -4.069543     -0.099746     -0.089226
    4   H      4    1.200   1.000     -3.667579     -0.085319      0.808353
    5   I      5    1.980   1.000      0.883487     -0.026607     -0.000550
 ------------------------------------------------------------------------------
 ------------------------------------------------------------------------------
 Atomic radii for non-electrostatic terms: SMD-CDS.
 ------------------------------------------------------------------------------
 Nuclear repulsion after PCM non-electrostatic terms =       46.2409883408 Hartrees.
 One-electron integrals computed using PRISM.
   1 Symmetry operations used in ECPInt.
 ECPInt:  NShTT=     171 NPrTT=    1054 LenC2=     171 LenP2D=     873.
 LDataN:  DoStor=T MaxTD1= 4 Len=   56
 NBasis=    30 RedAO= T  NBF=    30
 NBsUse=    30 1.00D-06 NBFU=    30
 Defaulting to unpruned grid for atomic number  53.
 Initial guess read from the read-write file.
 B after Tr=     0.000000    0.000000    0.000000
         Rot=    1.000000    0.000000    0.000000    0.000000 Ang=   0.00 deg.
 Initial guess orbital symmetries:
       Occupied  (A) (A) (A) (A) (A) (A) (A) (A) (A) (A) (A) (A)
                 (A)
       Virtual   (A) (A) (A) (A) (A) (A) (A) (A) (A) (A) (A) (A)
                 (A) (A) (A) (A) (A)
 Requested convergence on RMS density matrix=1.00D-08 within 128 cycles.
 Requested convergence on MAX density matrix=1.00D-06.
 Requested convergence on             energy=1.00D-06.
 No special actions if energy rises.
 Keep R1 ints in memory in canonical form, NReq=3478921.
 Defaulting to unpruned grid for atomic number  53.
 Defaulting to unpruned grid for atomic number  53.
 Defaulting to unpruned grid for atomic number  53.
 Defaulting to unpruned grid for atomic number  53.
 Error on total polarization charges =  0.07425
 SCF Done:  E(RM062X) =  -162.995137551     A.U. after   10 cycles
             Convg  =    0.2066D-08             -V/T =  2.0586
 SMD-CDS (non-electrostatic) energy             (kcal/mol) =       1.07
 (included in total energy above)
   1 Symmetry operations used in ECPInt.
 ECPInt:  NShTT=     171 NPrTT=    1054 LenC2=     171 LenP2D=     873.
 LDataN:  DoStor=T MaxTD1= 5 Len=  102
 D1PCM: PCM CHGder 1st derivatives, ID1Alg=3 FixD1E=F DoIter=F DoCFld=F I1PDM=0.
 Calling FoFJK, ICntrl=      2127 FMM=F ISym2X=0 I1Cent= 0 IOpClX= 0 NMat=1 NMatS=1 NMatT=0.
 Defaulting to unpruned grid for atomic number  53.
 Defaulting to unpruned grid for atomic number  53.
 Defaulting to unpruned grid for atomic number  53.
 Defaulting to unpruned grid for atomic number  53.
 ***** Axes restored to original set *****
 -------------------------------------------------------------------
 Center     Atomic                   Forces (Hartrees/Bohr)
 Number     Number              X              Y              Z
 -------------------------------------------------------------------
      1        8          -0.001142978    0.000448245    0.000726762
      2        1           0.004852179   -0.001101678    0.000254171
      3        8          -0.004086954    0.000224948   -0.000883582
      4        1           0.000532262    0.000179346    0.000392026
      5       53          -0.000154509    0.000249140   -0.000489377
 -------------------------------------------------------------------
 Cartesian Forces:  Max     0.004852179 RMS     0.001735637

 GradGradGradGradGradGradGradGradGradGradGradGradGradGradGradGradGradGrad
 Berny optimization.
 Internal  Forces:  Max     0.003625683 RMS     0.001761696
 Search for a saddle point.
 Step number   6 out of a maximum of   20
 All quantities printed in internal units (Hartrees-Bohrs-Radians)
 Swaping is turned off.
 Update second derivatives using D2CorX and points    1    2    3    4    5
                                                      6
 The second derivative matrix:
                          R1        R2        R3        R4        A1
           R1           0.31091
           R2           0.04025   0.18679
           R3           0.04346   0.02467   0.02778
           R4          -0.00349  -0.00442   0.00220   0.59464
           A1           0.02344   0.03954   0.01090  -0.00931   0.09908
           A2           0.09118   0.07395   0.06189  -0.00261   0.04080
           A3           0.01977   0.00288   0.02906   0.01055  -0.00543
           D1          -0.00506  -0.00105  -0.00375  -0.00149  -0.00101
           D2          -0.00893  -0.00370   0.00264   0.00314  -0.00470
                          A2        A3        D1        D2
           A2           0.18651
           A3          -0.01032   0.07970
           D1          -0.00599   0.00009   0.02465
           D2          -0.01708   0.02130   0.00700   0.01498
     Eigenvalues ---   -0.00496   0.00537   0.02641   0.07932   0.09255
     Eigenvalues ---    0.11421   0.20608   0.41076   0.59529
 Eigenvectors required to have negative eigenvalues:
                          R3        A3        A2        D1        D2
   1                    0.89052  -0.32407  -0.30627   0.06401  -0.06029
                          R1        R2        A1        R4
   1                   -0.01628   0.00939   0.00807   0.00168
 RFO step:  Lambda0=2.808004178D-03 Lambda=-9.71809974D-05.
 Linear search not attempted -- option 19 set.
 Maximum step size (   0.030) exceeded in Quadratic search.
    -- Step size scaled by   0.049
 Iteration  1 RMS(Cart)=  0.00901388 RMS(Int)=  0.00004593
 Iteration  2 RMS(Cart)=  0.00004001 RMS(Int)=  0.00000000
 Iteration  3 RMS(Cart)=  0.00000000 RMS(Int)=  0.00000000
 Variable       Old X    -DE/DX   Delta X   Delta X   Delta X     New X
                                 (Linear)    (Quad)   (Total)
    R1        1.86044   0.00076   0.00000  -0.00039  -0.00039   1.86006
    R2        3.85137   0.00015   0.00000   0.00023   0.00023   3.85160
    R3        4.64794  -0.00363   0.00000   0.02657   0.02657   4.67451
    R4        1.85870   0.00012   0.00000   0.00005   0.00005   1.85875
    A1        1.94465  -0.00135   0.00000  -0.00068  -0.00068   1.94396
    A2        1.97140   0.00324   0.00000  -0.00820  -0.00820   1.96320
    A3        1.13133   0.00118   0.00000  -0.01092  -0.01092   1.12041
    D1       -3.11567  -0.00009   0.00000   0.00139   0.00139  -3.11428
    D2       -1.47451   0.00066   0.00000   0.00226   0.00226  -1.47226
         Item               Value     Threshold  Converged?
 Maximum Force            0.003626     0.000450     NO 
 RMS     Force            0.001762     0.000300     NO 
 Maximum Displacement     0.016371     0.001800     NO 
 RMS     Displacement     0.009026     0.001200     NO 
 Predicted change in Energy= 1.317260D-04
 GradGradGradGradGradGradGradGradGradGradGradGradGradGradGradGradGradGrad

                          Input orientation:                          
 ---------------------------------------------------------------------
 Center     Atomic      Atomic             Coordinates (Angstroms)
 Number     Number       Type             X           Y           Z
 ---------------------------------------------------------------------
      1          8           0       -1.476516    0.640795    0.605592
      2          1           0       -1.069385    0.820140   -0.272431
      3          8           0        1.401571    0.725634   -0.206430
      4          1           0        0.998743    1.583780    0.055868
      5         53           0       -3.511755    0.676308    0.502115
 ---------------------------------------------------------------------
                    Distance matrix (angstroms):
                    1          2          3          4          5
     1  O    0.000000
     2  H    0.984299   0.000000
     3  O    2.991649   2.473644   0.000000
     4  H    2.705240   2.228919   0.983608   0.000000
     5  I    2.038177   2.566277   4.964397   4.622470   0.000000
 Stoichiometry    H2IO2(1-)
 Framework group  C1[X(H2IO2)]
 Deg. of freedom     9
 Full point group                 C1      NOp   1
 Largest Abelian subgroup         C1      NOp   1
 Largest concise Abelian subgroup C1      NOp   1
                         Standard orientation:                         
 ---------------------------------------------------------------------
 Center     Atomic      Atomic             Coordinates (Angstroms)
 Number     Number       Type             X           Y           Z
 ---------------------------------------------------------------------
      1          8           0       -1.120110    0.340963   -0.005728
      2          1           0       -1.638041   -0.495940   -0.019329
      3          8           0       -4.078342   -0.097151   -0.088680
      4          1           0       -3.666753   -0.079132    0.804491
      5         53           0        0.884762   -0.025951   -0.000564
 ---------------------------------------------------------------------
 Rotational constants (GHZ):    163.2200671      1.2667226      1.2616729
 Standard basis: LANL2DZ (5D, 7F)
 There are    30 symmetry adapted basis functions of A   symmetry.
 Integral buffers will be    262144 words long.
 Raffenetti 2 integral format.
 Two-electron integral symmetry is turned on.
    30 basis functions,    70 primitive gaussians,    30 cartesian basis functions
    13 alpha electrons       13 beta electrons
       nuclear repulsion energy        46.1927611003 Hartrees.
 NAtoms=    5 NActive=    5 NUniq=    5 SFac= 7.50D-01 NAtFMM=   80 NAOKFM=F Big=F
 ------------------------------------------------------------------------------
 Polarizable Continuum Model (PCM)
 =================================
 Model                : PCM.
 Atomic radii         : SMD-Coulomb.
 Polarization charges : Total charges.
 Charge compensation  : None.
 Solution method      : Matrix inversion.
 Cavity type          : VdW (van der Waals Surface) (Alpha=1.000).
 Cavity algorithm     : GePol (No added spheres)
                        Default sphere list used, NSphG=    5.
                        Lebedev-Laikov grids with approx.  5.0 points / Ang**2.
                        Smoothing algorithm: Karplus/York (Gamma=1.0000).
                        Polarization charges: spherical gaussians, with
                                              point-specific exponents (IZeta= 3).
                        Self-potential: point-specific (ISelfS= 7).
                        Self-field    : sphere-specific E.n sum rule (ISelfD= 2).
 1st derivatives      : Analytical E(r).r(x)/FMM algorithm (CHGder, D1EAlg=3).
                        Cavity 1st derivative terms included.
 Solvent              : Water, Eps=  78.355300 Eps(inf)=   1.777849
 ------------------------------------------------------------------------------
 Spheres list:
 ISph  on   Nord    Re0     Alpha      Xe            Ye            Ze
    1   O      1    1.520   1.000     -1.120110      0.340963     -0.005728
    2   H      2    1.200   1.000     -1.638041     -0.495940     -0.019329
    3   O      3    1.520   1.000     -4.078342     -0.097151     -0.088680
    4   H      4    1.200   1.000     -3.666753     -0.079132      0.804491
[...]
 Linear search not attempted -- option 19 set.
 Maximum step size (   0.030) exceeded in Quadratic search.
    -- Step size scaled by   0.038
 Iteration  1 RMS(Cart)=  0.01210925 RMS(Int)=  0.00005402
 Iteration  2 RMS(Cart)=  0.00008326 RMS(Int)=  0.00000000
 Iteration  3 RMS(Cart)=  0.00000000 RMS(Int)=  0.00000000
 Variable       Old X    -DE/DX   Delta X   Delta X   Delta X     New X
                                 (Linear)    (Quad)   (Total)
    R1        1.85947   0.00076   0.00000   0.00014   0.00014   1.85961
    R2        3.85174   0.00004   0.00000  -0.00030  -0.00030   3.85145
    R3        4.83883  -0.00275   0.00000   0.02191   0.02191   4.86073
    R4        1.85926   0.00002   0.00000  -0.00002  -0.00002   1.85924
    A1        1.93588  -0.00068   0.00000  -0.00044  -0.00044   1.93545
    A2        1.91309   0.00216   0.00000  -0.00667  -0.00667   1.90642
    A3        1.10570   0.00087   0.00000  -0.00211  -0.00211   1.10359
    D1       -3.00346   0.00006   0.00000   0.01081   0.01081  -2.99264
    D2       -1.67295   0.00034   0.00000  -0.01593  -0.01593  -1.68888
         Item               Value     Threshold  Converged?
 Maximum Force            0.002746     0.000450     NO 
 RMS     Force            0.001253     0.000300     NO 
 Maximum Displacement     0.019470     0.001800     NO 
 RMS     Displacement     0.012126     0.001200     NO 
 Predicted change in Energy= 8.006253D-05
 GradGradGradGradGradGradGradGradGradGradGradGradGradGradGradGradGradGrad

                          Input orientation:                          
 ---------------------------------------------------------------------
 Center     Atomic      Atomic             Coordinates (Angstroms)
 Number     Number       Type             X           Y           Z
 ---------------------------------------------------------------------
      1          8           0       -1.506266    0.674452    0.607419
      2          1           0       -1.121547    0.931901   -0.260963
      3          8           0        1.436046    0.676127   -0.163731
      4          1           0        1.074319    1.576736   -0.002325
      5         53           0       -3.539894    0.587441    0.504316
 ---------------------------------------------------------------------
                    Distance matrix (angstroms):
                    1          2          3          4          5
     1  O    0.000000
     2  H    0.984061   0.000000
     3  O    3.041690   2.572189   0.000000
     4  H    2.800950   2.303157   0.983867   0.000000
     5  I    2.038098   2.559826   5.021368   4.746194   0.000000
 Stoichiometry    H2IO2(1-)
 Framework group  C1[X(H2IO2)]
 Deg. of freedom     9
 Full point group                 C1      NOp   1
 Largest Abelian subgroup         C1      NOp   1
 Largest concise Abelian subgroup C1      NOp   1
                         Standard orientation:                         
 ---------------------------------------------------------------------
 Center     Atomic      Atomic             Coordinates (Angstroms)
 Number     Number       Type             X           Y           Z
 ---------------------------------------------------------------------
      1          8           0       -1.115914    0.318816    0.005923
      2          1           0       -1.610347   -0.498666    0.241797
      3          8           0       -4.126581   -0.098407   -0.111073
      4          1           0       -3.783675    0.016274    0.803946
      5         53           0        0.893094   -0.024168   -0.003859
 ---------------------------------------------------------------------
 Rotational constants (GHZ):    169.9078460      1.2391264      1.2353324
 Standard basis: LANL2DZ (5D, 7F)
 There are    30 symmetry adapted basis functions of A   symmetry.
 Integral buffers will be    262144 words long.
 Raffenetti 2 integral format.
 Two-electron integral symmetry is turned on.
    30 basis functions,    70 primitive gaussians,    30 cartesian basis functions
    13 alpha electrons       13 beta electrons
       nuclear repulsion energy        45.7953115864 Hartrees.
 NAtoms=    5 NActive=    5 NUniq=    5 SFac= 7.50D-01 NAtFMM=   80 NAOKFM=F Big=F
 ------------------------------------------------------------------------------
 Polarizable Continuum Model (PCM)
 =================================
 Model                : PCM.
 Atomic radii         : SMD-Coulomb.
 Polarization charges : Total charges.
 Charge compensation  : None.
 Solution method      : Matrix inversion.
 Cavity type          : VdW (van der Waals Surface) (Alpha=1.000).
 Cavity algorithm     : GePol (No added spheres)
                        Default sphere list used, NSphG=    5.
                        Lebedev-Laikov grids with approx.  5.0 points / Ang**2.
                        Smoothing algorithm: Karplus/York (Gamma=1.0000).
                        Polarization charges: spherical gaussians, with
                                              point-specific exponents (IZeta= 3).
                        Self-potential: point-specific (ISelfS= 7).
                        Self-field    : sphere-specific E.n sum rule (ISelfD= 2).
 1st derivatives      : Analytical E(r).r(x)/FMM algorithm (CHGder, D1EAlg=3).
                        Cavity 1st derivative terms included.
 Solvent              : Water, Eps=  78.355300 Eps(inf)=   1.777849
 ------------------------------------------------------------------------------
 Spheres list:
 ISph  on   Nord    Re0     Alpha      Xe            Ye            Ze
    1   O      1    1.520   1.000     -1.115914      0.318816      0.005923
    2   H      2    1.200   1.000     -1.610347     -0.498666      0.241797
    3   O      3    1.520   1.000     -4.126581     -0.098407     -0.111073
    4   H      4    1.200   1.000     -3.783675      0.016274      0.803946
    5   I      5    1.980   1.000      0.893094     -0.024168     -0.003859
 ------------------------------------------------------------------------------
 ------------------------------------------------------------------------------
 Atomic radii for non-electrostatic terms: SMD-CDS.
 ------------------------------------------------------------------------------
 Nuclear repulsion after PCM non-electrostatic terms =       45.7970408616 Hartrees.
 One-electron integrals computed using PRISM.
   1 Symmetry operations used in ECPInt.
 ECPInt:  NShTT=     171 NPrTT=    1054 LenC2=     171 LenP2D=     868.
 LDataN:  DoStor=T MaxTD1= 4 Len=   56
 NBasis=    30 RedAO= T  NBF=    30
 NBsUse=    30 1.00D-06 NBFU=    30
 Defaulting to unpruned grid for atomic number  53.
 Initial guess read from the read-write file.
 B after Tr=     0.000000    0.000000    0.000000
         Rot=    1.000000    0.000000    0.000000    0.000000 Ang=   0.00 deg.
 Initial guess orbital symmetries:
       Occupied  (A) (A) (A) (A) (A) (A) (A) (A) (A) (A) (A) (A)
                 (A)
       Virtual   (A) (A) (A) (A) (A) (A) (A) (A) (A) (A) (A) (A)
                 (A) (A) (A) (A) (A)
 Requested convergence on RMS density matrix=1.00D-08 within 128 cycles.
 Requested convergence on MAX density matrix=1.00D-06.
 Requested convergence on             energy=1.00D-06.
 No special actions if energy rises.
 Keep R1 ints in memory in canonical form, NReq=3481520.
 Defaulting to unpruned grid for atomic number  53.
 Defaulting to unpruned grid for atomic number  53.
 Defaulting to unpruned grid for atomic number  53.
 Defaulting to unpruned grid for atomic number  53.
 Error on total polarization charges =  0.07421
 SCF Done:  E(RM062X) =  -162.994099365     A.U. after   11 cycles
             Convg  =    0.1133D-08             -V/T =  2.0586
 SMD-CDS (non-electrostatic) energy             (kcal/mol) =       1.09
 (included in total energy above)
   1 Symmetry operations used in ECPInt.
 ECPInt:  NShTT=     171 NPrTT=    1054 LenC2=     171 LenP2D=     868.
 LDataN:  DoStor=T MaxTD1= 5 Len=  102
 D1PCM: PCM CHGder 1st derivatives, ID1Alg=3 FixD1E=F DoIter=F DoCFld=F I1PDM=0.
 Calling FoFJK, ICntrl=      2127 FMM=F ISym2X=0 I1Cent= 0 IOpClX= 0 NMat=1 NMatS=1 NMatT=0.
 Defaulting to unpruned grid for atomic number  53.
 Defaulting to unpruned grid for atomic number  53.
 Defaulting to unpruned grid for atomic number  53.
 Defaulting to unpruned grid for atomic number  53.
 ***** Axes restored to original set *****
 -------------------------------------------------------------------
 Center     Atomic                   Forces (Hartrees/Bohr)
 Number     Number              X              Y              Z
 -------------------------------------------------------------------
      1        8          -0.000970049    0.000338636    0.000594372
      2        1           0.003576419   -0.000961978   -0.000013621
      3        8          -0.003008627    0.000353889   -0.000475426
      4        1           0.000455791    0.000133007    0.000157939
      5       53          -0.000053534    0.000136445   -0.000263265
 -------------------------------------------------------------------
 Cartesian Forces:  Max     0.003576419 RMS     0.001287623

 GradGradGradGradGradGradGradGradGradGradGradGradGradGradGradGradGradGrad
 Berny optimization.
 Internal  Forces:  Max     0.002640589 RMS     0.001220809
 Search for a saddle point.
 Step number  20 out of a maximum of   20
 All quantities printed in internal units (Hartrees-Bohrs-Radians)
 Swaping is turned off.
 Update second derivatives using D2CorX and points   11   12   13   14   15
                                                     16   17   18   19   20
 The second derivative matrix:
                          R1        R2        R3        R4        A1
           R1           0.31173
           R2           0.04021   0.18691
           R3           0.03092   0.02100   0.01468
           R4          -0.00342  -0.00442   0.00231   0.59464
           A1           0.02377   0.03992   0.01229  -0.00935   0.09885
           A2           0.09366   0.07450   0.04968  -0.00256   0.04110
           A3           0.02257   0.00430   0.01992   0.01072  -0.00601
           D1          -0.00567   0.00064  -0.00342  -0.00095  -0.00201
           D2          -0.00756  -0.00652   0.00056   0.00206  -0.00278
                          A2        A3        D1        D2
           A2           0.19187
           A3          -0.00311   0.08841
           D1          -0.00488  -0.00072   0.02164
           D2          -0.01877   0.02172   0.01045   0.01344
     Eigenvalues ---   -0.00320   0.00133   0.02612   0.07937   0.09322
     Eigenvalues ---    0.11420   0.20662   0.40923   0.59529
 Eigenvectors required to have negative eigenvalues:
                          R3        A2        D2        D1        A3
   1                    0.92018  -0.24358  -0.20848   0.15899  -0.15708
                          A1        R1        R2        R4
   1                   -0.02138  -0.00662  -0.00446  -0.00121
 RFO step:  Lambda0=1.938198250D-03 Lambda=-1.88966607D-04.
 Linear search not attempted -- option 19 set.
 Maximum step size (   0.030) exceeded in Quadratic search.
    -- Step size scaled by   0.043
 Iteration  1 RMS(Cart)=  0.01228691 RMS(Int)=  0.00005586
 Iteration  2 RMS(Cart)=  0.00008359 RMS(Int)=  0.00000000
 Iteration  3 RMS(Cart)=  0.00000000 RMS(Int)=  0.00000000
 Variable       Old X    -DE/DX   Delta X   Delta X   Delta X     New X
                                 (Linear)    (Quad)   (Total)
    R1        1.85961   0.00068   0.00000  -0.00030  -0.00030   1.85931
    R2        3.85145   0.00004   0.00000  -0.00041  -0.00041   3.85103
    R3        4.86073  -0.00264   0.00000   0.02143   0.02143   4.88217
    R4        1.85924   0.00003   0.00000  -0.00004  -0.00004   1.85920
    A1        1.93545  -0.00066   0.00000  -0.00046  -0.00046   1.93498
    A2        1.90642   0.00212   0.00000  -0.00614  -0.00614   1.90028
    A3        1.10359   0.00095   0.00000  -0.00033  -0.00033   1.10326
    D1       -2.99264   0.00003   0.00000   0.01051   0.01051  -2.98213
    D2       -1.68888   0.00035   0.00000  -0.01708  -0.01708  -1.70596
         Item               Value     Threshold  Converged?
 Maximum Force            0.002641     0.000450     NO 
 RMS     Force            0.001221     0.000300     NO 
 Maximum Displacement     0.019063     0.001800     NO 
 RMS     Displacement     0.012302     0.001200     NO 
 Predicted change in Energy= 7.454448D-05
 Optimization stopped.
    -- Number of steps exceeded,  NStep=  20
    -- Flag reset to prevent archiving.
                           ----------------------------
                           ! Non-Optimized Parameters !
                           ! (Angstroms and Degrees)  !
 --------------------------                            --------------------------
 ! Name  Definition              Value          Derivative Info.                !
 --------------------------------------------------------------------------------
 ! R1    R(1,2)                  0.9839         -DE/DX =    0.0007              !
 ! R2    R(1,5)                  2.0379         -DE/DX =    0.0                 !
 ! R3    R(2,3)                  2.5835         -DE/DX =   -0.0026              !
 ! R4    R(3,4)                  0.9838         -DE/DX =    0.0                 !
 ! A1    A(2,1,5)              110.8662         -DE/DX =   -0.0007              !
 ! A2    A(1,2,3)              108.8781         -DE/DX =    0.0021              !
 ! A3    A(2,3,4)               63.2122         -DE/DX =    0.001               !
 ! D1    D(5,1,2,3)           -170.8636         -DE/DX =    0.0                 !
 ! D2    D(1,2,3,4)            -97.7446         -DE/DX =    0.0003              !
 --------------------------------------------------------------------------------
 GradGradGradGradGradGradGradGradGradGradGradGradGradGradGradGradGradGrad

                          Input orientation:                          
 ---------------------------------------------------------------------
 Center     Atomic      Atomic             Coordinates (Angstroms)
 Number     Number       Type             X           Y           Z
 ---------------------------------------------------------------------
      1          8           0       -1.506266    0.674452    0.607419
      2          1           0       -1.121547    0.931901   -0.260963
      3          8           0        1.436046    0.676127   -0.163731
      4          1           0        1.074319    1.576736   -0.002325
      5         53           0       -3.539894    0.587441    0.504316
 ---------------------------------------------------------------------
                    Distance matrix (angstroms):
                    1          2          3          4          5
     1  O    0.000000
     2  H    0.984061   0.000000
     3  O    3.041690   2.572189   0.000000
     4  H    2.800950   2.303157   0.983867   0.000000
     5  I    2.038098   2.559826   5.021368   4.746194   0.000000
 Stoichiometry    H2IO2(1-)
 Framework group  C1[X(H2IO2)]
 Deg. of freedom     9
 Full point group                 C1      NOp   1
 Largest Abelian subgroup         C1      NOp   1
 Largest concise Abelian subgroup C1      NOp   1
                         Standard orientation:                         
 ---------------------------------------------------------------------
 Center     Atomic      Atomic             Coordinates (Angstroms)
 Number     Number       Type             X           Y           Z
 ---------------------------------------------------------------------
      1          8           0       -1.115914    0.318816    0.005923
      2          1           0       -1.610347   -0.498666    0.241797
      3          8           0       -4.126581   -0.098407   -0.111073
      4          1           0       -3.783675    0.016274    0.803946
      5         53           0        0.893094   -0.024168   -0.003859
 ---------------------------------------------------------------------
 Rotational constants (GHZ):    169.9078460      1.2391264      1.2353324

 **********************************************************************

            Population analysis using the SCF density.

 **********************************************************************

 Orbital symmetries:
       Occupied  (A) (A) (A) (A) (A) (A) (A) (A) (A) (A) (A) (A)
                 (A)
       Virtual   (A) (A) (A) (A) (A) (A) (A) (A) (A) (A) (A) (A)
                 (A) (A) (A) (A) (A)
 The electronic state is 1-A.
 Alpha  occ. eigenvalues --  -19.65753 -19.50761  -1.11483  -0.94931  -0.74076
 Alpha  occ. eigenvalues --   -0.54227  -0.43371  -0.42616  -0.39764  -0.31067
 Alpha  occ. eigenvalues --   -0.29905  -0.27337  -0.27118
 Alpha virt. eigenvalues --   -0.05012   0.16734   0.24156   0.41901   0.42496
 Alpha virt. eigenvalues --    0.43243   0.67720   0.70353   0.74671   0.77240
 Alpha virt. eigenvalues --    0.79192   0.91360   1.00051   1.13220   1.42016
 Alpha virt. eigenvalues --    1.47304   9.32416
          Condensed to atoms (all electrons):
              1          2          3          4          5
     1  O    8.599779   0.248171  -0.002125   0.001098   0.035361
     2  H    0.248171   0.306855   0.018777   0.000382  -0.020531
     3  O   -0.002125   0.018777   8.984629   0.271010   0.000740
     4  H    0.001098   0.000382   0.271010   0.415108  -0.000013
     5  I    0.035361  -0.020531   0.000740  -0.000013   6.587891
 Mulliken atomic charges:
              1
     1  O   -0.882284
     2  H    0.446346
     3  O   -1.273031
     4  H    0.312415
     5  I    0.396553
 Sum of Mulliken atomic charges =  -1.00000
 Mulliken charges with hydrogens summed into heavy atoms:
              1
     1  O   -0.435937
     3  O   -0.960616
     5  I    0.396553
 Sum of Mulliken charges with hydrogens summed into heavy atoms =  -1.00000
 Electronic spatial extent (au):  <R**2>=            745.9706
 Charge=             -1.0000 electrons
 Dipole moment (field-independent basis, Debye):
    X=             21.2497    Y=             -1.9191    Z=              3.0450  Tot=             21.5524
 Quadrupole moment (field-independent basis, Debye-Ang):
   XX=           -114.4371   YY=            -35.3674   ZZ=            -33.9725
   XY=              0.3041   XZ=            -10.3815   YZ=             -0.3769
 Traceless Quadrupole moment (field-independent basis, Debye-Ang):
   XX=            -53.1781   YY=             25.8916   ZZ=             27.2865
   XY=              0.3041   XZ=            -10.3815   YZ=             -0.3769
 Octapole moment (field-independent basis, Debye-Ang**2):
  XXX=            435.4976  YYY=             -2.1597  ZZZ=              2.1898  XYY=             23.2776
  XXY=              4.3133  XXZ=             37.6291  XZZ=             16.5558  YZZ=             -0.8053
  YYZ=              0.6084  XYZ=              0.5004
 Hexadecapole moment (field-independent basis, Debye-Ang**3):
 XXXX=          -2498.4105 YYYY=            -54.1043 ZZZZ=            -50.7046 XXXY=            -45.8067
 XXXZ=           -144.9645 YYYX=             -2.1362 YYYZ=             -0.3643 ZZZX=             -8.4484
 ZZZY=             -0.1787 XXYY=           -181.4627 XXZZ=           -154.8038 YYZZ=            -17.6349
 XXYZ=             -0.6121 YYXZ=             -2.3145 ZZXY=             -0.3847
 N-N= 4.579704086157D+01 E-N=-4.786702532265D+02  KE= 1.539695073121D+02


 IT IS A PROFOUNDLY ERRONEOUS TRUISM ... THAT WE SHOULD CULTIVATE
 THE HABIT OF THINKING OF WHAT WE ARE DOING.
 THE PRECISE OPPOSITE IS THE CASE.
 CIVILIZATION ADVANCES BY EXTENDING THE NUMBER OF IMPORTANT OPERATIONS
 WHICH WE CAN PERFORM WITHOUT THINKING ABOUT THEM.

                                    -- ALFRED NORTH WHITEHEAD
 Error termination request processed by link 9999.
 Error termination via Lnk1e in C:\G09W\l9999.exe at Tue Feb 02 03:57:33 2021.
 Job cpu time:  0 days  0 hours  1 minutes 54.0 seconds.
 File lengths (MBytes):  RWF=     19 Int=      0 D2E=      0 Chk=      2 Scr=      1
