 Entering Link 1 = C:\G09W\l1.exe PID=      4544.
  
 Copyright (c) 1988,1990,1992,1993,1995,1998,2003,2009, Gaussian, Inc.
                  All Rights Reserved.
  
 This is part of the Gaussian(R) 09 program.  It is based on
 the Gaussian(R) 03 system (copyright 2003, Gaussian, Inc.),
 the Gaussian(R) 98 system (copyright 1998, Gaussian, Inc.),
 the Gaussian(R) 94 system (copyright 1995, Gaussian, Inc.),
 the Gaussian 92(TM) system (copyright 1992, Gaussian, Inc.),
 the Gaussian 90(TM) system (copyright 1990, Gaussian, Inc.),
 the Gaussian 88(TM) system (copyright 1988, Gaussian, Inc.),
 the Gaussian 86(TM) system (copyright 1986, Carnegie Mellon
 University), and the Gaussian 82(TM) system (copyright 1983,
 Carnegie Mellon University). Gaussian is a federally registered
 trademark of Gaussian, Inc.
  
 This software contains proprietary and confidential information,
 including trade secrets, belonging to Gaussian, Inc.
  
 This software is provided under written license and may be
 used, copied, transmitted, or stored only in accord with that
 written license.
  
 The following legend is applicable only to US Government
 contracts under FAR:
  
                    RESTRICTED RIGHTS LEGEND
  
 Use, reproduction and disclosure by the US Government is
 subject to restrictions as set forth in subparagraphs (a)
 and (c) of the Commercial Computer Software - Restricted
 Rights clause in FAR 52.227-19.
  
 Gaussian, Inc.
 340 Quinnipiac St., Bldg. 40, Wallingford CT 06492
  
  
 ---------------------------------------------------------------
 Warning -- This program may not be used in any manner that
 competes with the business of Gaussian, Inc. or will provide
 assistance to any competitor of Gaussian, Inc.  The licensee
 of this program is prohibited from giving any competitor of
 Gaussian, Inc. access to this program.  By using this program,
 the user acknowledges that Gaussian, Inc. is engaged in the
 business of creating and licensing software in the field of
 computational chemistry and represents and warrants to the
 licensee that it is not a competitor of Gaussian, Inc. and that
 it will not use this program in any manner prohibited above.
 ---------------------------------------------------------------
  

 Cite this work as:
 Gaussian 09, Revision A.02,
 M. J. Frisch, G. W. Trucks, H. B. Schlegel, G. E. Scuseria, 
 M. A. Robb, J. R. Cheeseman, G. Scalmani, V. Barone, B. Mennucci, 
 G. A. Petersson, H. Nakatsuji, M. Caricato, X. Li, H. P. Hratchian, 
 A. F. Izmaylov, J. Bloino, G. Zheng, J. L. Sonnenberg, M. Hada, 
 M. Ehara, K. Toyota, R. Fukuda, J. Hasegawa, M. Ishida, T. Nakajima, 
 Y. Honda, O. Kitao, H. Nakai, T. Vreven, J. A. Montgomery, Jr., 
 J. E. Peralta, F. Ogliaro, M. Bearpark, J. J. Heyd, E. Brothers, 
 K. N. Kudin, V. N. Staroverov, R. Kobayashi, J. Normand, 
 K. Raghavachari, A. Rendell, J. C. Burant, S. S. Iyengar, J. Tomasi, 
 M. Cossi, N. Rega, J. M. Millam, M. Klene, J. E. Knox, J. B. Cross, 
 V. Bakken, C. Adamo, J. Jaramillo, R. Gomperts, R. E. Stratmann, 
 O. Yazyev, A. J. Austin, R. Cammi, C. Pomelli, J. W. Ochterski, 
 R. L. Martin, K. Morokuma, V. G. Zakrzewski, G. A. Voth, 
 P. Salvador, J. J. Dannenberg, S. Dapprich, A. D. Daniels, 
 O. Farkas, J. B. Foresman, J. V. Ortiz, J. Cioslowski, 
 and D. J. Fox, Gaussian, Inc., Wallingford CT, 2009.
 
 ******************************************
 Gaussian 09:  IA32W-G09RevA.02 11-Jun-2009
                02-Feb-2021 
 ******************************************
 %chk=D:\Documents\rayGit\FQ\quimicaComputacional\proyecto\decompositionHydrogenP
 eroxide\decompositionCatalyzedByIodine\step1\ts\ts.chk
 %mem=1500MB
 %nprocshared=4
 Will use up to    4 processors via shared memory.
 ----------------------------------------------------------------------
 # opt=(readfc,ts,noeigen) geom=check guess=check freq=noraman lanl2dz 
 scrf=smd iop(1/8=3) m062x
 ----------------------------------------------------------------------
 1/5=1,8=3,10=3,11=1,14=-1,18=20,26=3,29=2,38=1/1,3;
 2/9=110,12=2,40=1/2;
 3/5=6,6=3,11=2,14=-4,16=1,25=1,30=1,70=32201,71=1,72=1,74=-55,116=-2/1,2,3;
 4/5=1/1;
 5/5=2,38=6/2;
 6/7=2,8=2,9=2,10=2,28=1/1;
 7//1,2,3,16;
 1/5=1,8=3,11=1,14=-1,18=20/3(2);
 2/9=110/2;
 99//99;
 2/9=110/2;
 3/5=6,6=3,11=2,14=-2,16=1,25=1,30=1,70=32205,71=1,74=-55/1,2,3;
 4/5=5,16=3/1;
 5/5=2,38=5/2;
 7//1,2,3,16;
 1/5=1,8=3,11=1,14=-1,18=20/3(-5);
 2/9=110/2;
 6/7=2,8=2,9=2,10=2,19=2,28=1/1;
 99/9=1/99;
 -------------------------------
 Hydrogen peroxide with iodine 8
 -------------------------------
 Redundant internal coordinates taken from checkpoint file:
 D:\Documents\rayGit\FQ\quimicaComputacional\proyecto\decompositionHydrogenPeroxide\decompositionCatalyzedByIodine\step1\ts\ts.chk
 Charge = -1 Multiplicity = 1
 O,0,-1.5062662258,0.6744516789,0.6074187304
 H,0,-1.1215466093,0.9319012383,-0.2609632356
 O,0,1.4360464689,0.6761271911,-0.1637311494
 H,0,1.0743187777,1.5767358576,-0.0023252496
 I,0,-3.5398944116,0.5874407642,0.5043157543
 Recover connectivity data from disk.

 GradGradGradGradGradGradGradGradGradGradGradGradGradGradGradGradGradGrad
 Berny optimization.
 Initialization pass.
 Force constant matrix read from checkpoint file:
 D:\Documents\rayGit\FQ\quimicaComputacional\proyecto\decompositionHydrogenPeroxi
 de\decompositionCatalyzedByIodine\step1\ts\ts.chk
                           ----------------------------
                           !    Initial Parameters    !
                           ! (Angstroms and Degrees)  !
 --------------------------                            --------------------------
 ! Name  Definition              Value          Derivative Info.                !
 --------------------------------------------------------------------------------
 ! R1    R(1,2)                  0.9841         D2E/DX2 =    0.3117             !
 ! R2    R(1,5)                  2.0381         D2E/DX2 =    0.1869             !
 ! R3    R(2,3)                  2.5722         D2E/DX2 =    0.0147             !
 ! R4    R(3,4)                  0.9839         D2E/DX2 =    0.5946             !
 ! A1    A(2,1,5)              110.8929         D2E/DX2 =    0.0989             !
 ! A2    A(1,2,3)              109.2299         D2E/DX2 =    0.1919             !
 ! A3    A(2,3,4)               63.231          D2E/DX2 =    0.0884             !
 ! D1    D(5,1,2,3)           -171.4659         D2E/DX2 =    0.0216             !
 ! D2    D(1,2,3,4)            -96.7659         D2E/DX2 =    0.0134             !
 --------------------------------------------------------------------------------
 Trust Radius=3.00D-02 FncErr=1.00D-07 GrdErr=1.00D-06
 Number of steps in this run=  20 maximum allowed number of steps= 100.
 Search for a saddle point of order  1.
 GradGradGradGradGradGradGradGradGradGradGradGradGradGradGradGradGradGrad

                          Input orientation:                          
 ---------------------------------------------------------------------
 Center     Atomic      Atomic             Coordinates (Angstroms)
 Number     Number       Type             X           Y           Z
 ---------------------------------------------------------------------
      1          8           0       -1.506266    0.674452    0.607419
      2          1           0       -1.121547    0.931901   -0.260963
      3          8           0        1.436046    0.676127   -0.163731
      4          1           0        1.074319    1.576736   -0.002325
      5         53           0       -3.539894    0.587441    0.504316
 ---------------------------------------------------------------------
                    Distance matrix (angstroms):
                    1          2          3          4          5
     1  O    0.000000
     2  H    0.984061   0.000000
     3  O    3.041690   2.572189   0.000000
     4  H    2.800950   2.303157   0.983867   0.000000
     5  I    2.038098   2.559826   5.021368   4.746194   0.000000
 Stoichiometry    H2IO2(1-)
 Framework group  C1[X(H2IO2)]
 Deg. of freedom     9
 Full point group                 C1      NOp   1
 Largest Abelian subgroup         C1      NOp   1
 Largest concise Abelian subgroup C1      NOp   1
                         Standard orientation:                         
 ---------------------------------------------------------------------
 Center     Atomic      Atomic             Coordinates (Angstroms)
 Number     Number       Type             X           Y           Z
 ---------------------------------------------------------------------
      1          8           0       -1.115914    0.318816    0.005923
      2          1           0       -1.610347   -0.498666    0.241797
      3          8           0       -4.126581   -0.098407   -0.111073
      4          1           0       -3.783675    0.016274    0.803946
      5         53           0        0.893094   -0.024168   -0.003859
 ---------------------------------------------------------------------
 Rotational constants (GHZ):    169.9078460      1.2391264      1.2353324
 Standard basis: LANL2DZ (5D, 7F)
 There are    30 symmetry adapted basis functions of A   symmetry.
 Integral buffers will be    262144 words long.
 Raffenetti 2 integral format.
 Two-electron integral symmetry is turned on.
    30 basis functions,    70 primitive gaussians,    30 cartesian basis functions
    13 alpha electrons       13 beta electrons
       nuclear repulsion energy        45.7953115864 Hartrees.
 NAtoms=    5 NActive=    5 NUniq=    5 SFac= 7.50D-01 NAtFMM=   80 NAOKFM=F Big=F
 ------------------------------------------------------------------------------
 Polarizable Continuum Model (PCM)
 =================================
 Model                : PCM.
 Atomic radii         : SMD-Coulomb.
 Polarization charges : Total charges.
 Charge compensation  : None.
 Solution method      : Matrix inversion.
 Cavity type          : VdW (van der Waals Surface) (Alpha=1.000).
 Cavity algorithm     : GePol (No added spheres)
                        Default sphere list used, NSphG=    5.
                        Lebedev-Laikov grids with approx.  5.0 points / Ang**2.
                        Smoothing algorithm: Karplus/York (Gamma=1.0000).
                        Polarization charges: spherical gaussians, with
                                              point-specific exponents (IZeta= 3).
                        Self-potential: point-specific (ISelfS= 7).
                        Self-field    : sphere-specific E.n sum rule (ISelfD= 2).
 1st derivatives      : Analytical E(r).r(x)/FMM algorithm (CHGder, D1EAlg=3).
                        Cavity 1st derivative terms included.
 Solvent              : Water, Eps=  78.355300 Eps(inf)=   1.777849
 ------------------------------------------------------------------------------
 Spheres list:
 ISph  on   Nord    Re0     Alpha      Xe            Ye            Ze
    1   O      1    1.520   1.000     -1.115914      0.318816      0.005923
    2   H      2    1.200   1.000     -1.610347     -0.498666      0.241797
    3   O      3    1.520   1.000     -4.126581     -0.098407     -0.111073
    4   H      4    1.200   1.000     -3.783675      0.016274      0.803946
    5   I      5    1.980   1.000      0.893094     -0.024168     -0.003859
 ------------------------------------------------------------------------------
 ------------------------------------------------------------------------------
 Atomic radii for non-electrostatic terms: SMD-CDS.
 ------------------------------------------------------------------------------
 Nuclear repulsion after PCM non-electrostatic terms =       45.7970408616 Hartrees.
 One-electron integrals computed using PRISM.
   1 Symmetry operations used in ECPInt.
 ECPInt:  NShTT=     171 NPrTT=    1054 LenC2=     171 LenP2D=     868.
 LDataN:  DoStor=T MaxTD1= 4 Len=   56
 NBasis=    30 RedAO= T  NBF=    30
 NBsUse=    30 1.00D-06 NBFU=    30
 Defaulting to unpruned grid for atomic number  53.
 Initial guess read from the checkpoint file:  D:\Documents\rayGit\FQ\quimicaComp
 utacional\proyecto\decompositionHydrogenPeroxide\decompositionCatalyzedByIodine\
 step1\ts\ts.chk
 B after Tr=     0.000000    0.000000    0.000000
         Rot=    1.000000    0.000000    0.000000    0.000000 Ang=   0.00 deg.
 Initial guess orbital symmetries:
       Occupied  (A) (A) (A) (A) (A) (A) (A) (A) (A) (A) (A) (A)
                 (A)
       Virtual   (A) (A) (A) (A) (A) (A) (A) (A) (A) (A) (A) (A)
                 (A) (A) (A) (A) (A)
 Requested convergence on RMS density matrix=1.00D-08 within 128 cycles.
 Requested convergence on MAX density matrix=1.00D-06.
 Requested convergence on             energy=1.00D-06.
 No special actions if energy rises.
 Keep R1 ints in memory in canonical form, NReq=3481520.
 Defaulting to unpruned grid for atomic number  53.
 Defaulting to unpruned grid for atomic number  53.
 Defaulting to unpruned grid for atomic number  53.
 Defaulting to unpruned grid for atomic number  53.
 Error on total polarization charges =  0.07421
 SCF Done:  E(RM062X) =  -162.994099365     A.U. after    1 cycles
             Convg  =    0.1244D-09             -V/T =  2.0586
 SMD-CDS (non-electrostatic) energy             (kcal/mol) =       1.09
 (included in total energy above)

 **********************************************************************

            Population analysis using the SCF density.

 **********************************************************************

 Orbital symmetries:
       Occupied  (A) (A) (A) (A) (A) (A) (A) (A) (A) (A) (A) (A)
                 (A)
       Virtual   (A) (A) (A) (A) (A) (A) (A) (A) (A) (A) (A) (A)
                 (A) (A) (A) (A) (A)
 The electronic state is 1-A.
 Alpha  occ. eigenvalues --  -19.65753 -19.50761  -1.11483  -0.94931  -0.74076
 Alpha  occ. eigenvalues --   -0.54227  -0.43371  -0.42616  -0.39764  -0.31067
 Alpha  occ. eigenvalues --   -0.29905  -0.27337  -0.27118
 Alpha virt. eigenvalues --   -0.05012   0.16734   0.24156   0.41901   0.42496
 Alpha virt. eigenvalues --    0.43243   0.67720   0.70353   0.74671   0.77240
 Alpha virt. eigenvalues --    0.79192   0.91360   1.00051   1.13220   1.42016
 Alpha virt. eigenvalues --    1.47304   9.32416
          Condensed to atoms (all electrons):
              1          2          3          4          5
     1  O    8.599779   0.248171  -0.002125   0.001098   0.035361
     2  H    0.248171   0.306855   0.018777   0.000382  -0.020531
     3  O   -0.002125   0.018777   8.984629   0.271010   0.000740
     4  H    0.001098   0.000382   0.271010   0.415108  -0.000013
     5  I    0.035361  -0.020531   0.000740  -0.000013   6.587891
 Mulliken atomic charges:
              1
     1  O   -0.882284
     2  H    0.446346
     3  O   -1.273031
     4  H    0.312415
     5  I    0.396553
 Sum of Mulliken atomic charges =  -1.00000
 Mulliken charges with hydrogens summed into heavy atoms:
              1
     1  O   -0.435937
     3  O   -0.960616
     5  I    0.396553
 Sum of Mulliken charges with hydrogens summed into heavy atoms =  -1.00000
 Electronic spatial extent (au):  <R**2>=            745.9706
 Charge=             -1.0000 electrons
 Dipole moment (field-independent basis, Debye):
    X=             21.2497    Y=             -1.9191    Z=              3.0450  Tot=             21.5524
 Quadrupole moment (field-independent basis, Debye-Ang):
   XX=           -114.4371   YY=            -35.3674   ZZ=            -33.9725
   XY=              0.3041   XZ=            -10.3815   YZ=             -0.3769
 Traceless Quadrupole moment (field-independent basis, Debye-Ang):
   XX=            -53.1781   YY=             25.8916   ZZ=             27.2865
   XY=              0.3041   XZ=            -10.3815   YZ=             -0.3769
 Octapole moment (field-independent basis, Debye-Ang**2):
  XXX=            435.4976  YYY=             -2.1597  ZZZ=              2.1898  XYY=             23.2776
  XXY=              4.3133  XXZ=             37.6291  XZZ=             16.5558  YZZ=             -0.8053
  YYZ=              0.6084  XYZ=              0.5004
 Hexadecapole moment (field-independent basis, Debye-Ang**3):
 XXXX=          -2498.4105 YYYY=            -54.1043 ZZZZ=            -50.7046 XXXY=            -45.8067
 XXXZ=           -144.9645 YYYX=             -2.1362 YYYZ=             -0.3643 ZZZX=             -8.4484
 ZZZY=             -0.1787 XXYY=           -181.4627 XXZZ=           -154.8038 YYZZ=            -17.6349
 XXYZ=             -0.6121 YYXZ=             -2.3145 ZZXY=             -0.3847
 N-N= 4.579704086157D+01 E-N=-4.786702532098D+02  KE= 1.539695073033D+02
   1 Symmetry operations used in ECPInt.
 ECPInt:  NShTT=     171 NPrTT=    1054 LenC2=     171 LenP2D=     868.
 LDataN:  DoStor=T MaxTD1= 5 Len=  102
 D1PCM: PCM CHGder 1st derivatives, ID1Alg=3 FixD1E=F DoIter=F DoCFld=F I1PDM=0.
 Calling FoFJK, ICntrl=      2127 FMM=F ISym2X=0 I1Cent= 0 IOpClX= 0 NMat=1 NMatS=1 NMatT=0.
 Defaulting to unpruned grid for atomic number  53.
 Defaulting to unpruned grid for atomic number  53.
 Defaulting to unpruned grid for atomic number  53.
 Defaulting to unpruned grid for atomic number  53.
 ***** Axes restored to original set *****
 -------------------------------------------------------------------
 Center     Atomic                   Forces (Hartrees/Bohr)
 Number     Number              X              Y              Z
 -------------------------------------------------------------------
      1        8          -0.000970049    0.000338636    0.000594373
      2        1           0.003576419   -0.000961978   -0.000013621
      3        8          -0.003008628    0.000353889   -0.000475426
      4        1           0.000455791    0.000133007    0.000157939
      5       53          -0.000053534    0.000136445   -0.000263265
 -------------------------------------------------------------------
 Cartesian Forces:  Max     0.003576419 RMS     0.001287623

 GradGradGradGradGradGradGradGradGradGradGradGradGradGradGradGradGradGrad
 Berny optimization.
 Internal  Forces:  Max     0.002640589 RMS     0.001220809
 Search for a saddle point.
 Step number   1 out of a maximum of   20
 All quantities printed in internal units (Hartrees-Bohrs-Radians)
 Swaping is turned off.
 Second derivative matrix not updated -- first step.
 The second derivative matrix:
                          R1        R2        R3        R4        A1
           R1           0.31173
           R2           0.04021   0.18691
           R3           0.03092   0.02100   0.01468
           R4          -0.00342  -0.00442   0.00231   0.59464
           A1           0.02377   0.03992   0.01229  -0.00935   0.09885
           A2           0.09366   0.07450   0.04968  -0.00256   0.04110
           A3           0.02257   0.00430   0.01992   0.01072  -0.00601
           D1          -0.00567   0.00064  -0.00342  -0.00095  -0.00201
           D2          -0.00756  -0.00652   0.00056   0.00206  -0.00278
                          A2        A3        D1        D2
           A2           0.19187
           A3          -0.00311   0.08841
           D1          -0.00488  -0.00072   0.02164
           D2          -0.01877   0.02172   0.01045   0.01344
     Eigenvalues ---   -0.00320   0.00133   0.02612   0.07937   0.09322
     Eigenvalues ---    0.11420   0.20662   0.40923   0.59529
 Eigenvectors required to have negative eigenvalues:
                          R3        A2        D2        D1        A3
   1                    0.92018  -0.24358  -0.20848   0.15899  -0.15708
                          A1        R1        R2        R4
   1                   -0.02138  -0.00662  -0.00446  -0.00121
 RFO step:  Lambda0=1.938198283D-03 Lambda=-1.88966672D-04.
 Linear search not attempted -- option 19 set.
 Maximum step size (   0.030) exceeded in Quadratic search.
    -- Step size scaled by   0.043
 Iteration  1 RMS(Cart)=  0.01228691 RMS(Int)=  0.00005586
 Iteration  2 RMS(Cart)=  0.00008359 RMS(Int)=  0.00000000
 Iteration  3 RMS(Cart)=  0.00000000 RMS(Int)=  0.00000000
 Variable       Old X    -DE/DX   Delta X   Delta X   Delta X     New X
                                 (Linear)    (Quad)   (Total)
    R1        1.85961   0.00068   0.00000  -0.00030  -0.00030   1.85931
    R2        3.85145   0.00004   0.00000  -0.00041  -0.00041   3.85103
    R3        4.86073  -0.00264   0.00000   0.02143   0.02143   4.88217
    R4        1.85924   0.00003   0.00000  -0.00004  -0.00004   1.85920
    A1        1.93545  -0.00066   0.00000  -0.00046  -0.00046   1.93498
    A2        1.90642   0.00212   0.00000  -0.00614  -0.00614   1.90028
    A3        1.10359   0.00095   0.00000  -0.00033  -0.00033   1.10326
    D1       -2.99264   0.00003   0.00000   0.01051   0.01051  -2.98213
    D2       -1.68888   0.00035   0.00000  -0.01708  -0.01708  -1.70596
         Item               Value     Threshold  Converged?
 Maximum Force            0.002641     0.000450     NO 
 RMS     Force            0.001221     0.000300     NO 
 Maximum Displacement     0.019063     0.001800     NO 
 RMS     Displacement     0.012302     0.001200     NO 
 Predicted change in Energy= 7.454448D-05
 GradGradGradGradGradGradGradGradGradGradGradGradGradGradGradGradGradGrad

                          Input orientation:                          
 ---------------------------------------------------------------------
 Center     Atomic      Atomic             Coordinates (Angstroms)
 Number     Number       Type             X           Y           Z
 ---------------------------------------------------------------------
      1          8           0       -1.509622    0.678190    0.607092
      2          1           0       -1.127648    0.941989   -0.260417
      3          8           0        1.439768    0.671881   -0.160161
      4          1           0        1.082680    1.575726   -0.006837
      5         53           0       -3.542520    0.578871    0.505038
 ---------------------------------------------------------------------
                    Distance matrix (angstroms):
                    1          2          3          4          5
     1  O    0.000000
     2  H    0.983903   0.000000
     3  O    3.047560   2.583532   0.000000
     4  H    2.811140   2.313325   0.983847   0.000000
     5  I    2.037879   2.559175   5.027359   4.759013   0.000000
 Stoichiometry    H2IO2(1-)
 Framework group  C1[X(H2IO2)]
 Deg. of freedom     9
 Full point group                 C1      NOp   1
 Largest Abelian subgroup         C1      NOp   1
 Largest concise Abelian subgroup C1      NOp   1
                         Standard orientation:                         
 ---------------------------------------------------------------------
 Center     Atomic      Atomic             Coordinates (Angstroms)
 Number     Number       Type             X           Y           Z
 ---------------------------------------------------------------------
      1          8           0       -1.115146    0.317276    0.002981
      2          1           0       -1.607009   -0.490699    0.273745
      3          8           0       -4.131696   -0.100900   -0.111803
      4          1           0       -3.795891    0.039331    0.802268
      5         53           0        0.893918   -0.024144   -0.003876
 ---------------------------------------------------------------------
 Rotational constants (GHZ):    169.8632558      1.2363204      1.2326345
 Standard basis: LANL2DZ (5D, 7F)
 There are    30 symmetry adapted basis functions of A   symmetry.
 Integral buffers will be    262144 words long.
 Raffenetti 2 integral format.
 Two-electron integral symmetry is turned on.
    30 basis functions,    70 primitive gaussians,    30 cartesian basis functions
    13 alpha electrons       13 beta electrons
       nuclear repulsion energy        45.7537305862 Hartrees.
 NAtoms=    5 NActive=    5 NUniq=    5 SFac= 7.50D-01 NAtFMM=   80 NAOKFM=F Big=F
 ------------------------------------------------------------------------------
 Polarizable Continuum Model (PCM)
 =================================
 Model                : PCM.
 Atomic radii         : SMD-Coulomb.
 Polarization charges : Total charges.
 Charge compensation  : None.
 Solution method      : Matrix inversion.
 Cavity type          : VdW (van der Waals Surface) (Alpha=1.000).
 Cavity algorithm     : GePol (No added spheres)
                        Default sphere list used, NSphG=    5.
                        Lebedev-Laikov grids with approx.  5.0 points / Ang**2.
                        Smoothing algorithm: Karplus/York (Gamma=1.0000).
                        Polarization charges: spherical gaussians, with
                                              point-specific exponents (IZeta= 3).
                        Self-potential: point-specific (ISelfS= 7).
                        Self-field    : sphere-specific E.n sum rule (ISelfD= 2).
 1st derivatives      : Analytical E(r).r(x)/FMM algorithm (CHGder, D1EAlg=3).
                        Cavity 1st derivative terms included.
 Solvent              : Water, Eps=  78.355300 Eps(inf)=   1.777849
 ------------------------------------------------------------------------------
 Spheres list:
 ISph  on   Nord    Re0     Alpha      Xe            Ye            Ze
    1   O      1    1.520   1.000     -1.115146      0.317276      0.002981
    2   H      2    1.200   1.000     -1.607009     -0.490699      0.273745
    3   O      3    1.520   1.000     -4.131696     -0.100900     -0.111803
    4   H      4    1.200   1.000     -3.795891      0.039331      0.802268
    5   I      5    1.980   1.000      0.893918     -0.024144     -0.003876
 ------------------------------------------------------------------------------
 ------------------------------------------------------------------------------
 Atomic radii for non-electrostatic terms: SMD-CDS.
 ------------------------------------------------------------------------------
 Nuclear repulsion after PCM non-electrostatic terms =       45.7554715129 Hartrees.
 One-electron integrals computed using PRISM.
   1 Symmetry operations used in ECPInt.
 ECPInt:  NShTT=     171 NPrTT=    1054 LenC2=     171 LenP2D=     868.
 LDataN:  DoStor=T MaxTD1= 4 Len=   56
 NBasis=    30 RedAO= T  NBF=    30
 NBsUse=    30 1.00D-06 NBFU=    30
 Defaulting to unpruned grid for atomic number  53.
 Initial guess read from the read-write file.
 B after Tr=     0.000000    0.000000    0.000000
         Rot=    1.000000    0.000000    0.000000    0.000000 Ang=   0.00 deg.
 Initial guess orbital symmetries:
       Occupied  (A) (A) (A) (A) (A) (A) (A) (A) (A) (A) (A) (A)
                 (A)
       Virtual   (A) (A) (A) (A) (A) (A) (A) (A) (A) (A) (A) (A)
                 (A) (A) (A) (A) (A)
 Requested convergence on RMS density matrix=1.00D-08 within 128 cycles.
 Requested convergence on MAX density matrix=1.00D-06.
 Requested convergence on             energy=1.00D-06.
 No special actions if energy rises.
 Keep R1 ints in memory in canonical form, NReq=3480151.
 Defaulting to unpruned grid for atomic number  53.
 Defaulting to unpruned grid for atomic number  53.
 Defaulting to unpruned grid for atomic number  53.
 Defaulting to unpruned grid for atomic number  53.
 Error on total polarization charges =  0.07419
 SCF Done:  E(RM062X) =  -162.994018005     A.U. after   11 cycles
             Convg  =    0.1070D-08             -V/T =  2.0586
 SMD-CDS (non-electrostatic) energy             (kcal/mol) =       1.09
 (included in total energy above)
   1 Symmetry operations used in ECPInt.
 ECPInt:  NShTT=     171 NPrTT=    1054 LenC2=     171 LenP2D=     868.
 LDataN:  DoStor=T MaxTD1= 5 Len=  102
 D1PCM: PCM CHGder 1st derivatives, ID1Alg=3 FixD1E=F DoIter=F DoCFld=F I1PDM=0.
 Calling FoFJK, ICntrl=      2127 FMM=F ISym2X=0 I1Cent= 0 IOpClX= 0 NMat=1 NMatS=1 NMatT=0.
 Defaulting to unpruned grid for atomic number  53.
 Defaulting to unpruned grid for atomic number  53.
 Defaulting to unpruned grid for atomic number  53.
 Defaulting to unpruned grid for atomic number  53.
 ***** Axes restored to original set *****
 -------------------------------------------------------------------
 Center     Atomic                   Forces (Hartrees/Bohr)
 Number     Number              X              Y              Z
 -------------------------------------------------------------------
      1        8          -0.000945247    0.000211829    0.000606214
      2        1           0.003430086   -0.000827481   -0.000031193
      3        8          -0.002891177    0.000322133   -0.000595620
      4        1           0.000514681    0.000125129    0.000306823
      5       53          -0.000108342    0.000168390   -0.000286224
 -------------------------------------------------------------------
 Cartesian Forces:  Max     0.003430086 RMS     0.001240193

 GradGradGradGradGradGradGradGradGradGradGradGradGradGradGradGradGradGrad
 Berny optimization.
 Internal  Forces:  Max     0.002480176 RMS     0.001206346
 Search for a saddle point.
 Step number   2 out of a maximum of   20
 All quantities printed in internal units (Hartrees-Bohrs-Radians)
 Swaping is turned off.
 Update second derivatives using D2CorX and points    1    2
 The second derivative matrix:
                          R1        R2        R3        R4        A1
           R1           0.31161
           R2           0.04015   0.18688
           R3           0.02891   0.01972   0.01080
           R4          -0.00346  -0.00444   0.00169   0.59463
           A1           0.02393   0.04001   0.01405  -0.00930   0.09867
           A2           0.09394   0.07472   0.04663  -0.00248   0.04097
           A3           0.02241   0.00423   0.01725   0.01067  -0.00579
           D1          -0.00655   0.00007  -0.00381  -0.00122  -0.00128
           D2          -0.00607  -0.00556   0.00213   0.00252  -0.00404
                          A2        A3        D1        D2
           A2           0.19323
           A3          -0.00275   0.08819
           D1          -0.00655  -0.00188   0.02211
           D2          -0.01616   0.02370   0.01010   0.01330
     Eigenvalues ---   -0.00473   0.00128   0.02616   0.07925   0.09277
     Eigenvalues ---    0.11419   0.20662   0.40861   0.59527
 Eigenvectors required to have negative eigenvalues:
                          R3        D2        A2        D1        A3
   1                    0.91246  -0.27966  -0.21802   0.16982  -0.10165
                          A1        R1        R2        R4
   1                   -0.04900  -0.00925  -0.00269  -0.00097
 RFO step:  Lambda0=1.380769331D-03 Lambda=-3.83184679D-04.
 Linear search not attempted -- option 19 set.
 Maximum step size (   0.030) exceeded in Quadratic search.
    -- Step size scaled by   0.045
 Iteration  1 RMS(Cart)=  0.01355086 RMS(Int)=  0.00009076
 Iteration  2 RMS(Cart)=  0.00011279 RMS(Int)=  0.00000000
 Iteration  3 RMS(Cart)=  0.00000000 RMS(Int)=  0.00000000
 Variable       Old X    -DE/DX   Delta X   Delta X   Delta X     New X
                                 (Linear)    (Quad)   (Total)
    R1        1.85931   0.00073   0.00000  -0.00041  -0.00041   1.85890
    R2        3.85103   0.00009   0.00000  -0.00042  -0.00042   3.85061
    R3        4.88217  -0.00248   0.00000   0.01384   0.01384   4.89601
    R4        1.85920   0.00005   0.00000  -0.00002  -0.00002   1.85918
    A1        1.93498  -0.00070   0.00000  -0.00103  -0.00103   1.93395
    A2        1.90028   0.00218   0.00000  -0.00374  -0.00374   1.89654
    A3        1.10326   0.00103   0.00000   0.00415   0.00415   1.10741
    D1       -2.98213   0.00001   0.00000   0.01207   0.01207  -2.97006
    D2       -1.70596   0.00033   0.00000  -0.02302  -0.02302  -1.72899
         Item               Value     Threshold  Converged?
 Maximum Force            0.002480     0.000450     NO 
 RMS     Force            0.001206     0.000300     NO 
 Maximum Displacement     0.020436     0.001800     NO 
 RMS     Displacement     0.013568     0.001200     NO 
 Predicted change in Energy= 4.448971D-05
 GradGradGradGradGradGradGradGradGradGradGradGradGradGradGradGradGradGrad

                          Input orientation:                          
 ---------------------------------------------------------------------
 Center     Atomic      Atomic             Coordinates (Angstroms)
 Number     Number       Type             X           Y           Z
 ---------------------------------------------------------------------
      1          8           0       -1.513265    0.681023    0.608834
      2          1           0       -1.132619    0.952804   -0.256545
      3          8           0        1.440484    0.666833   -0.157007
      4          1           0        1.093195    1.576085   -0.013546
      5         53           0       -3.545136    0.569913    0.502979
 ---------------------------------------------------------------------
                    Distance matrix (angstroms):
                    1          2          3          4          5
     1  O    0.000000
     2  H    0.983686   0.000000
     3  O    3.051450   2.590858   0.000000
     4  H    2.825266   2.324172   0.983834   0.000000
     5  I    2.037658   2.558069   5.030047   4.774232   0.000000
 Stoichiometry    H2IO2(1-)
 Framework group  C1[X(H2IO2)]
 Deg. of freedom     9
 Full point group                 C1      NOp   1
 Largest Abelian subgroup         C1      NOp   1
 Largest concise Abelian subgroup C1      NOp   1
                         Standard orientation:                         
 ---------------------------------------------------------------------
 Center     Atomic      Atomic             Coordinates (Angstroms)
 Number     Number       Type             X           Y           Z
 ---------------------------------------------------------------------
      1          8           0       -1.114143    0.319158   -0.000926
      2          1           0       -1.604295   -0.476216    0.306915
      3          8           0       -4.133901   -0.105061   -0.112471
      4          1           0       -3.810673    0.061189    0.801757
      5         53           0        0.894327   -0.024486   -0.003802
 ---------------------------------------------------------------------
 Rotational constants (GHZ):    167.4566215      1.2349066      1.2312233
 Standard basis: LANL2DZ (5D, 7F)
 There are    30 symmetry adapted basis functions of A   symmetry.
 Integral buffers will be    262144 words long.
 Raffenetti 2 integral format.
 Two-electron integral symmetry is turned on.
    30 basis functions,    70 primitive gaussians,    30 cartesian basis functions
    13 alpha electrons       13 beta electrons
       nuclear repulsion energy        45.7239154260 Hartrees.
 NAtoms=    5 NActive=    5 NUniq=    5 SFac= 7.50D-01 NAtFMM=   80 NAOKFM=F Big=F
 ------------------------------------------------------------------------------
 Polarizable Continuum Model (PCM)
 =================================
 Model                : PCM.
 Atomic radii         : SMD-Coulomb.
 Polarization charges : Total charges.
 Charge compensation  : None.
 Solution method      : Matrix inversion.
 Cavity type          : VdW (van der Waals Surface) (Alpha=1.000).
 Cavity algorithm     : GePol (No added spheres)
                        Default sphere list used, NSphG=    5.
                        Lebedev-Laikov grids with approx.  5.0 points / Ang**2.
                        Smoothing algorithm: Karplus/York (Gamma=1.0000).
                        Polarization charges: spherical gaussians, with
                                              point-specific exponents (IZeta= 3).
                        Self-potential: point-specific (ISelfS= 7).
                        Self-field    : sphere-specific E.n sum rule (ISelfD= 2).
 1st derivatives      : Analytical E(r).r(x)/FMM algorithm (CHGder, D1EAlg=3).
                        Cavity 1st derivative terms included.
 Solvent              : Water, Eps=  78.355300 Eps(inf)=   1.777849
 ------------------------------------------------------------------------------
 Spheres list:
 ISph  on   Nord    Re0     Alpha      Xe            Ye            Ze
    1   O      1    1.520   1.000     -1.114143      0.319158     -0.000926
    2   H      2    1.200   1.000     -1.604295     -0.476216      0.306915
    3   O      3    1.520   1.000     -4.133901     -0.105061     -0.112471
    4   H      4    1.200   1.000     -3.810673      0.061189      0.801757
    5   I      5    1.980   1.000      0.894327     -0.024486     -0.003802
 ------------------------------------------------------------------------------
 ------------------------------------------------------------------------------
 Atomic radii for non-electrostatic terms: SMD-CDS.
 ------------------------------------------------------------------------------
 Nuclear repulsion after PCM non-electrostatic terms =       45.7256666219 Hartrees.
 One-electron integrals computed using PRISM.
   1 Symmetry operations used in ECPInt.
 ECPInt:  NShTT=     171 NPrTT=    1054 LenC2=     171 LenP2D=     868.
 LDataN:  DoStor=T MaxTD1= 4 Len=   56
 NBasis=    30 RedAO= T  NBF=    30
 NBsUse=    30 1.00D-06 NBFU=    30
 Defaulting to unpruned grid for atomic number  53.
 Initial guess read from the read-write file.
 B after Tr=     0.000000    0.000000    0.000000
         Rot=    1.000000    0.000000    0.000000    0.000000 Ang=   0.00 deg.
 Initial guess orbital symmetries:
       Occupied  (A) (A) (A) (A) (A) (A) (A) (A) (A) (A) (A) (A)
                 (A)
       Virtual   (A) (A) (A) (A) (A) (A) (A) (A) (A) (A) (A) (A)
                 (A) (A) (A) (A) (A)
 Harris functional with IExCor= 1009 diagonalized for initial guess.
 ExpMin= 1.05D-01 ExpMax= 7.82D+03 ExpMxC= 2.73D+02 IAcc=1 IRadAn=         1 AccDes= 0.00D+00
 HarFok:  IExCor= 1009 AccDes= 0.00D+00 IRadAn=         1 IDoV= 1
 ScaDFX=  1.000000  1.000000  1.000000  1.000000
 Defaulting to unpruned grid for atomic number  53.
 Defaulting to unpruned grid for atomic number  53.
 Defaulting to unpruned grid for atomic number  53.
 Defaulting to unpruned grid for atomic number  53.
 FoFCou: FMM=F IPFlag=           0 FMFlag=      100000 FMFlg1=           0
         NFxFlg=           0 DoJE=T BraDBF=F KetDBF=T FulRan=T
         Omega=  0.000000  0.000000  1.000000  0.000000  0.000000 ICntrl=     500 IOpCl=  0
         NMat0=    1 NMatS0=    1 NMatT0=    0 NMatD0=    1 NMtDS0=    0 NMtDT0=    0
         I1Cent=           4 NGrid=           0.
 Petite list used in FoFCou.
 Requested convergence on RMS density matrix=1.00D-08 within 128 cycles.
 Requested convergence on MAX density matrix=1.00D-06.
 Requested convergence on             energy=1.00D-06.
 No special actions if energy rises.
 Keep R1 ints in memory in canonical form, NReq=3480091.
 Defaulting to unpruned grid for atomic number  53.
 Defaulting to unpruned grid for atomic number  53.
 Defaulting to unpruned grid for atomic number  53.
 Defaulting to unpruned grid for atomic number  53.
 Error on total polarization charges =  0.07415
 SCF Done:  E(RM062X) =  -162.993979444     A.U. after   11 cycles
             Convg  =    0.1829D-08             -V/T =  2.0586
 SMD-CDS (non-electrostatic) energy             (kcal/mol) =       1.10
 (included in total energy above)
   1 Symmetry operations used in ECPInt.
 ECPInt:  NShTT=     171 NPrTT=    1054 LenC2=     171 LenP2D=     868.
 LDataN:  DoStor=T MaxTD1= 5 Len=  102
 D1PCM: PCM CHGder 1st derivatives, ID1Alg=3 FixD1E=F DoIter=F DoCFld=F I1PDM=0.
 Calling FoFJK, ICntrl=      2127 FMM=F ISym2X=0 I1Cent= 0 IOpClX= 0 NMat=1 NMatS=1 NMatT=0.
 Defaulting to unpruned grid for atomic number  53.
 Defaulting to unpruned grid for atomic number  53.
 Defaulting to unpruned grid for atomic number  53.
 Defaulting to unpruned grid for atomic number  53.
 ***** Axes restored to original set *****
 -------------------------------------------------------------------
 Center     Atomic                   Forces (Hartrees/Bohr)
 Number     Number              X              Y              Z
 -------------------------------------------------------------------
      1        8          -0.000976455    0.000112715    0.000653317
      2        1           0.003430020   -0.000732454   -0.000096327
      3        8          -0.002761285    0.000309811   -0.000675928
      4        1           0.000526713    0.000102556    0.000402512
      5       53          -0.000218993    0.000207372   -0.000283574
 -------------------------------------------------------------------
 Cartesian Forces:  Max     0.003430020 RMS     0.001224818

 GradGradGradGradGradGradGradGradGradGradGradGradGradGradGradGradGradGrad
 Berny optimization.
 Internal  Forces:  Max     0.002353369 RMS     0.001204983
 Search for a saddle point.
 Step number   3 out of a maximum of   20
 All quantities printed in internal units (Hartrees-Bohrs-Radians)
 Swaping is turned off.
 Update second derivatives using D2CorX and points    1    2    3
 The second derivative matrix:
                          R1        R2        R3        R4        A1
           R1           0.31220
           R2           0.04055   0.18715
           R3           0.02604   0.01794   0.00894
           R4          -0.00339  -0.00439   0.00133   0.59464
           A1           0.02422   0.04019   0.01345  -0.00926   0.09876
           A2           0.09534   0.07563   0.04366  -0.00231   0.04145
           A3           0.02193   0.00393   0.01657   0.01061  -0.00588
           D1          -0.00898  -0.00146  -0.00345  -0.00152  -0.00189
           D2          -0.00197  -0.00299   0.00357   0.00303  -0.00313
                          A2        A3        D1        D2
           A2           0.19564
           A3          -0.00316   0.08800
           D1          -0.00954  -0.00209   0.02380
           D2          -0.01161   0.02445   0.00872   0.01287
     Eigenvalues ---   -0.00458   0.00205   0.02638   0.07925   0.09280
     Eigenvalues ---    0.11420   0.20665   0.40998   0.59528
 Eigenvectors required to have negative eigenvalues:
                          R3        D2        A2        A3        D1
   1                    0.93865  -0.22503  -0.20397  -0.11607   0.10208
                          A1        R2        R1        R4
   1                   -0.05279   0.00391  -0.00271  -0.00022
 RFO step:  Lambda0=1.356740355D-03 Lambda=-1.47886293D-04.
 Linear search not attempted -- option 19 set.
 Maximum step size (   0.030) exceeded in Quadratic search.
    -- Step size scaled by   0.057
 Iteration  1 RMS(Cart)=  0.01149017 RMS(Int)=  0.00004333
 Iteration  2 RMS(Cart)=  0.00006169 RMS(Int)=  0.00000000
 Iteration  3 RMS(Cart)=  0.00000000 RMS(Int)=  0.00000000
 Variable       Old X    -DE/DX   Delta X   Delta X   Delta X     New X
                                 (Linear)    (Quad)   (Total)
    R1        1.85890   0.00087   0.00000  -0.00014  -0.00014   1.85875
    R2        3.85061   0.00019   0.00000  -0.00008  -0.00008   3.85054
    R3        4.89601  -0.00235   0.00000   0.02290   0.02290   4.91891
    R4        1.85918   0.00007   0.00000   0.00000   0.00000   1.85917
    A1        1.93395  -0.00063   0.00000  -0.00183  -0.00183   1.93212
    A2        1.89654   0.00228   0.00000  -0.00463  -0.00463   1.89191
    A3        1.10741   0.00101   0.00000   0.00096   0.00096   1.10837
    D1       -2.97006  -0.00006   0.00000   0.00758   0.00758  -2.96248
    D2       -1.72899   0.00032   0.00000  -0.01710  -0.01710  -1.74608
         Item               Value     Threshold  Converged?
 Maximum Force            0.002353     0.000450     NO 
 RMS     Force            0.001205     0.000300     NO 
 Maximum Displacement     0.017593     0.001800     NO 
 RMS     Displacement     0.011497     0.001200     NO 
 Predicted change in Energy= 6.695561D-05
 GradGradGradGradGradGradGradGradGradGradGradGradGradGradGradGradGradGrad

                          Input orientation:                          
 ---------------------------------------------------------------------
 Center     Atomic      Atomic             Coordinates (Angstroms)
 Number     Number       Type             X           Y           Z
 ---------------------------------------------------------------------
      1          8           0       -1.517248    0.682547    0.609811
      2          1           0       -1.139040    0.960913   -0.254457
      3          8           0        1.444982    0.663751   -0.154382
      4          1           0        1.102505    1.576000   -0.018598
      5         53           0       -3.548541    0.563446    0.502341
 ---------------------------------------------------------------------
                    Distance matrix (angstroms):
                    1          2          3          4          5
     1  O    0.000000
     2  H    0.983609   0.000000
     3  O    3.059273   2.602977   0.000000
     4  H    2.838355   2.336339   0.983832   0.000000
     5  I    2.037617   2.556642   5.037521   4.788409   0.000000
 Stoichiometry    H2IO2(1-)
 Framework group  C1[X(H2IO2)]
 Deg. of freedom     9
 Full point group                 C1      NOp   1
 Largest Abelian subgroup         C1      NOp   1
 Largest concise Abelian subgroup C1      NOp   1
                         Standard orientation:                         
 ---------------------------------------------------------------------
 Center     Atomic      Atomic             Coordinates (Angstroms)
 Number     Number       Type             X           Y           Z
 ---------------------------------------------------------------------
      1          8           0       -1.113001    0.319700   -0.002217
      2          1           0       -1.600609   -0.468159    0.327940
      3          8           0       -4.140352   -0.106875   -0.113275
      4          1           0       -3.823981    0.071523    0.801060
      5         53           0        0.895310   -0.024641   -0.003869
 ---------------------------------------------------------------------
 Rotational constants (GHZ):    166.3015576      1.2314981      1.2278594
 Standard basis: LANL2DZ (5D, 7F)
 There are    30 symmetry adapted basis functions of A   symmetry.
 Integral buffers will be    262144 words long.
 Raffenetti 2 integral format.
 Two-electron integral symmetry is turned on.
    30 basis functions,    70 primitive gaussians,    30 cartesian basis functions
    13 alpha electrons       13 beta electrons
       nuclear repulsion energy        45.6702291457 Hartrees.
 NAtoms=    5 NActive=    5 NUniq=    5 SFac= 7.50D-01 NAtFMM=   80 NAOKFM=F Big=F
 ------------------------------------------------------------------------------
 Polarizable Continuum Model (PCM)
 =================================
 Model                : PCM.
 Atomic radii         : SMD-Coulomb.
 Polarization charges : Total charges.
 Charge compensation  : None.
 Solution method      : Matrix inversion.
 Cavity type          : VdW (van der Waals Surface) (Alpha=1.000).
 Cavity algorithm     : GePol (No added spheres)
                        Default sphere list used, NSphG=    5.
                        Lebedev-Laikov grids with approx.  5.0 points / Ang**2.
                        Smoothing algorithm: Karplus/York (Gamma=1.0000).
                        Polarization charges: spherical gaussians, with
                                              point-specific exponents (IZeta= 3).
                        Self-potential: point-specific (ISelfS= 7).
                        Self-field    : sphere-specific E.n sum rule (ISelfD= 2).
 1st derivatives      : Analytical E(r).r(x)/FMM algorithm (CHGder, D1EAlg=3).
                        Cavity 1st derivative terms included.
 Solvent              : Water, Eps=  78.355300 Eps(inf)=   1.777849
 ------------------------------------------------------------------------------
 Spheres list:
 ISph  on   Nord    Re0     Alpha      Xe            Ye            Ze
    1   O      1    1.520   1.000     -1.113001      0.319700     -0.002217
    2   H      2    1.200   1.000     -1.600609     -0.468159      0.327940
    3   O      3    1.520   1.000     -4.140352     -0.106875     -0.113275
    4   H      4    1.200   1.000     -3.823981      0.071523      0.801060
    5   I      5    1.980   1.000      0.895310     -0.024641     -0.003869
 ------------------------------------------------------------------------------
 ------------------------------------------------------------------------------
 Atomic radii for non-electrostatic terms: SMD-CDS.
 ------------------------------------------------------------------------------
 Nuclear repulsion after PCM non-electrostatic terms =       45.6719863618 Hartrees.
 One-electron integrals computed using PRISM.
   1 Symmetry operations used in ECPInt.
 ECPInt:  NShTT=     171 NPrTT=    1054 LenC2=     171 LenP2D=     868.
 LDataN:  DoStor=T MaxTD1= 4 Len=   56
 NBasis=    30 RedAO= T  NBF=    30
 NBsUse=    30 1.00D-06 NBFU=    30
 Defaulting to unpruned grid for atomic number  53.
 Initial guess read from the read-write file.
 B after Tr=     0.000000    0.000000    0.000000
         Rot=    1.000000    0.000000    0.000000    0.000000 Ang=   0.00 deg.
 Initial guess orbital symmetries:
       Occupied  (A) (A) (A) (A) (A) (A) (A) (A) (A) (A) (A) (A)
                 (A)
       Virtual   (A) (A) (A) (A) (A) (A) (A) (A) (A) (A) (A) (A)
                 (A) (A) (A) (A) (A)
 Requested convergence on RMS density matrix=1.00D-08 within 128 cycles.
 Requested convergence on MAX density matrix=1.00D-06.
 Requested convergence on             energy=1.00D-06.
 No special actions if energy rises.
 Keep R1 ints in memory in canonical form, NReq=3481460.
 Defaulting to unpruned grid for atomic number  53.
 Defaulting to unpruned grid for atomic number  53.
 Defaulting to unpruned grid for atomic number  53.
 Defaulting to unpruned grid for atomic number  53.
 Error on total polarization charges =  0.07411
 SCF Done:  E(RM062X) =  -162.993919679     A.U. after   10 cycles
             Convg  =    0.9132D-08             -V/T =  2.0586
 SMD-CDS (non-electrostatic) energy             (kcal/mol) =       1.10
 (included in total energy above)
   1 Symmetry operations used in ECPInt.
 ECPInt:  NShTT=     171 NPrTT=    1054 LenC2=     171 LenP2D=     868.
 LDataN:  DoStor=T MaxTD1= 5 Len=  102
 D1PCM: PCM CHGder 1st derivatives, ID1Alg=3 FixD1E=F DoIter=F DoCFld=F I1PDM=0.
 Calling FoFJK, ICntrl=      2127 FMM=F ISym2X=0 I1Cent= 0 IOpClX= 0 NMat=1 NMatS=1 NMatT=0.
 Defaulting to unpruned grid for atomic number  53.
 Defaulting to unpruned grid for atomic number  53.
 Defaulting to unpruned grid for atomic number  53.
 Defaulting to unpruned grid for atomic number  53.
 ***** Axes restored to original set *****
 -------------------------------------------------------------------
 Center     Atomic                   Forces (Hartrees/Bohr)
 Number     Number              X              Y              Z
 -------------------------------------------------------------------
      1        8          -0.000975186    0.000076765    0.000561149
      2        1           0.003452903   -0.000676570   -0.000064627
      3        8          -0.002675971    0.000311055   -0.000671451
      4        1           0.000490453    0.000089640    0.000421091
      5       53          -0.000292200    0.000199110   -0.000246162
 -------------------------------------------------------------------
 Cartesian Forces:  Max     0.003452903 RMS     0.001210404

 GradGradGradGradGradGradGradGradGradGradGradGradGradGradGradGradGradGrad
 Berny optimization.
 Internal  Forces:  Max     0.002306709 RMS     0.001168291
 Search for a saddle point.
 Step number   4 out of a maximum of   20
 All quantities printed in internal units (Hartrees-Bohrs-Radians)
 Swaping is turned off.
 Update second derivatives using D2CorX and points    1    2    3    4
 The second derivative matrix:
                          R1        R2        R3        R4        A1
           R1           0.31252
           R2           0.04081   0.18743
           R3           0.02504   0.01611   0.01038
           R4          -0.00335  -0.00435   0.00113   0.59464
           A1           0.02456   0.04071   0.00970  -0.00921   0.09995
           A2           0.09592   0.07632   0.04201  -0.00222   0.04268
           A3           0.02180   0.00372   0.01734   0.01058  -0.00631
           D1          -0.00957  -0.00236  -0.00244  -0.00163  -0.00361
           D2          -0.00098  -0.00141   0.00382   0.00321  -0.00016
                          A2        A3        D1        D2
           A2           0.19668
           A3          -0.00350   0.08811
           D1          -0.01051  -0.00171   0.02448
           D2          -0.01037   0.02394   0.00841   0.01149
     Eigenvalues ---   -0.00245   0.00134   0.02654   0.07972   0.09309
     Eigenvalues ---    0.11421   0.20693   0.41101   0.59528
 Eigenvectors required to have negative eigenvalues:
                          R3        D2        A2        A3        D1
   1                    0.93588  -0.24552  -0.20922  -0.12190   0.07105
                          A1        R2        R1        R4
   1                   -0.00982   0.00851  -0.00119   0.00103
 RFO step:  Lambda0=1.843574887D-03 Lambda=-1.77057642D-04.
 Linear search not attempted -- option 19 set.
 Maximum step size (   0.030) exceeded in Quadratic search.
    -- Step size scaled by   0.041
 Iteration  1 RMS(Cart)=  0.01126152 RMS(Int)=  0.00004591
 Iteration  2 RMS(Cart)=  0.00006518 RMS(Int)=  0.00000000
 Iteration  3 RMS(Cart)=  0.00000000 RMS(Int)=  0.00000000
 Variable       Old X    -DE/DX   Delta X   Delta X   Delta X     New X
                                 (Linear)    (Quad)   (Total)
    R1        1.85875   0.00087   0.00000  -0.00009  -0.00009   1.85866
    R2        3.85054   0.00026   0.00000   0.00011   0.00011   3.85065
    R3        4.91891  -0.00231   0.00000   0.02260   0.02260   4.94152
    R4        1.85917   0.00007   0.00000   0.00004   0.00004   1.85922
    A1        1.93212  -0.00043   0.00000  -0.00001  -0.00001   1.93211
    A2        1.89191   0.00224   0.00000  -0.00501  -0.00501   1.88689
    A3        1.10837   0.00093   0.00000   0.00074   0.00074   1.10911
    D1       -2.96248  -0.00011   0.00000   0.00625   0.00625  -2.95623
    D2       -1.74608   0.00029   0.00000  -0.01801  -0.01801  -1.76409
         Item               Value     Threshold  Converged?
 Maximum Force            0.002307     0.000450     NO 
 RMS     Force            0.001168     0.000300     NO 
 Maximum Displacement     0.017169     0.001800     NO 
 RMS     Displacement     0.011269     0.001200     NO 
 Predicted change in Energy= 6.785124D-05
 GradGradGradGradGradGradGradGradGradGradGradGradGradGradGradGradGradGrad

                          Input orientation:                          
 ---------------------------------------------------------------------
 Center     Atomic      Atomic             Coordinates (Angstroms)
 Number     Number       Type             X           Y           Z
 ---------------------------------------------------------------------
      1          8           0       -1.521234    0.683455    0.609276
      2          1           0       -1.145074    0.969081   -0.253461
      3          8           0        1.449609    0.660839   -0.150931
      4          1           0        1.111590    1.575958   -0.023367
      5         53           0       -3.552233    0.557323    0.503197
 ---------------------------------------------------------------------
                    Distance matrix (angstroms):
                    1          2          3          4          5
     1  O    0.000000
     2  H    0.983563   0.000000
     3  O    3.066649   2.614938   0.000000
     4  H    2.851063   2.348142   0.983856   0.000000
     5  I    2.037675   2.556657   5.045495   4.802721   0.000000
 Stoichiometry    H2IO2(1-)
 Framework group  C1[X(H2IO2)]
 Deg. of freedom     9
 Full point group                 C1      NOp   1
 Largest Abelian subgroup         C1      NOp   1
 Largest concise Abelian subgroup C1      NOp   1
                         Standard orientation:                         
 ---------------------------------------------------------------------
 Center     Atomic      Atomic             Coordinates (Angstroms)
 Number     Number       Type             X           Y           Z
 ---------------------------------------------------------------------
      1          8           0       -1.112236    0.318074   -0.001695
      2          1           0       -1.597877   -0.463591    0.345506
      3          8           0       -4.147185   -0.106964   -0.114652
      4          1           0       -3.837272    0.076259    0.800966
      5         53           0        0.896425   -0.024557   -0.004070
 ---------------------------------------------------------------------
 Rotational constants (GHZ):    166.5315043      1.2278134      1.2242997
 Standard basis: LANL2DZ (5D, 7F)
 There are    30 symmetry adapted basis functions of A   symmetry.
 Integral buffers will be    262144 words long.
 Raffenetti 2 integral format.
 Two-electron integral symmetry is turned on.
    30 basis functions,    70 primitive gaussians,    30 cartesian basis functions
    13 alpha electrons       13 beta electrons
       nuclear repulsion energy        45.6164578135 Hartrees.
 NAtoms=    5 NActive=    5 NUniq=    5 SFac= 7.50D-01 NAtFMM=   80 NAOKFM=F Big=F
 ------------------------------------------------------------------------------
 Polarizable Continuum Model (PCM)
 =================================
 Model                : PCM.
 Atomic radii         : SMD-Coulomb.
 Polarization charges : Total charges.
 Charge compensation  : None.
 Solution method      : Matrix inversion.
 Cavity type          : VdW (van der Waals Surface) (Alpha=1.000).
 Cavity algorithm     : GePol (No added spheres)
                        Default sphere list used, NSphG=    5.
                        Lebedev-Laikov grids with approx.  5.0 points / Ang**2.
                        Smoothing algorithm: Karplus/York (Gamma=1.0000).
                        Polarization charges: spherical gaussians, with
                                              point-specific exponents (IZeta= 3).
                        Self-potential: point-specific (ISelfS= 7).
                        Self-field    : sphere-specific E.n sum rule (ISelfD= 2).
 1st derivatives      : Analytical E(r).r(x)/FMM algorithm (CHGder, D1EAlg=3).
                        Cavity 1st derivative terms included.
 Solvent              : Water, Eps=  78.355300 Eps(inf)=   1.777849
 ------------------------------------------------------------------------------
 Spheres list:
 ISph  on   Nord    Re0     Alpha      Xe            Ye            Ze
    1   O      1    1.520   1.000     -1.112236      0.318074     -0.001695
    2   H      2    1.200   1.000     -1.597877     -0.463591      0.345506
    3   O      3    1.520   1.000     -4.147185     -0.106964     -0.114652
    4   H      4    1.200   1.000     -3.837272      0.076259      0.800966
    5   I      5    1.980   1.000      0.896425     -0.024557     -0.004070
 ------------------------------------------------------------------------------
 ------------------------------------------------------------------------------
 Atomic radii for non-electrostatic terms: SMD-CDS.
 ------------------------------------------------------------------------------
 Nuclear repulsion after PCM non-electrostatic terms =       45.6182199907 Hartrees.
 One-electron integrals computed using PRISM.
   1 Symmetry operations used in ECPInt.
 ECPInt:  NShTT=     171 NPrTT=    1054 LenC2=     171 LenP2D=     868.
 LDataN:  DoStor=T MaxTD1= 4 Len=   56
 NBasis=    30 RedAO= T  NBF=    30
 NBsUse=    30 1.00D-06 NBFU=    30
 Defaulting to unpruned grid for atomic number  53.
 Initial guess read from the read-write file.
 B after Tr=     0.000000    0.000000    0.000000
         Rot=    1.000000    0.000000    0.000000    0.000000 Ang=   0.00 deg.
 Initial guess orbital symmetries:
       Occupied  (A) (A) (A) (A) (A) (A) (A) (A) (A) (A) (A) (A)
                 (A)
       Virtual   (A) (A) (A) (A) (A) (A) (A) (A) (A) (A) (A) (A)
                 (A) (A) (A) (A) (A)
 Requested convergence on RMS density matrix=1.00D-08 within 128 cycles.
 Requested convergence on MAX density matrix=1.00D-06.
 Requested convergence on             energy=1.00D-06.
 No special actions if energy rises.
 Keep R1 ints in memory in canonical form, NReq=3484205.
 Defaulting to unpruned grid for atomic number  53.
 Defaulting to unpruned grid for atomic number  53.
 Defaulting to unpruned grid for atomic number  53.
 Defaulting to unpruned grid for atomic number  53.
 Error on total polarization charges =  0.07409
 SCF Done:  E(RM062X) =  -162.993857527     A.U. after   10 cycles
             Convg  =    0.6366D-08             -V/T =  2.0586
 SMD-CDS (non-electrostatic) energy             (kcal/mol) =       1.11
 (included in total energy above)
   1 Symmetry operations used in ECPInt.
 ECPInt:  NShTT=     171 NPrTT=    1054 LenC2=     171 LenP2D=     868.
 LDataN:  DoStor=T MaxTD1= 5 Len=  102
 D1PCM: PCM CHGder 1st derivatives, ID1Alg=3 FixD1E=F DoIter=F DoCFld=F I1PDM=0.
 Calling FoFJK, ICntrl=      2127 FMM=F ISym2X=0 I1Cent= 0 IOpClX= 0 NMat=1 NMatS=1 NMatT=0.
 Defaulting to unpruned grid for atomic number  53.
 Defaulting to unpruned grid for atomic number  53.
 Defaulting to unpruned grid for atomic number  53.
 Defaulting to unpruned grid for atomic number  53.
 ***** Axes restored to original set *****
 -------------------------------------------------------------------
 Center     Atomic                   Forces (Hartrees/Bohr)
 Number     Number              X              Y              Z
 -------------------------------------------------------------------
      1        8          -0.000924139    0.000055203    0.000567579
      2        1           0.003386417   -0.000665974   -0.000064059
      3        8          -0.002645623    0.000354619   -0.000640052
      4        1           0.000435181    0.000065266    0.000421354
      5       53          -0.000251836    0.000190886   -0.000284823
 -------------------------------------------------------------------
 Cartesian Forces:  Max     0.003386417 RMS     0.001188320

 GradGradGradGradGradGradGradGradGradGradGradGradGradGradGradGradGradGrad
 Berny optimization.
 Internal  Forces:  Max     0.002330745 RMS     0.001151661
 Search for a saddle point.
 Step number   5 out of a maximum of   20
 All quantities printed in internal units (Hartrees-Bohrs-Radians)
 Swaping is turned off.
 Update second derivatives using D2CorX and points    1    2    3    4    5
 The second derivative matrix:
                          R1        R2        R3        R4        A1
           R1           0.31264
           R2           0.04090   0.18753
           R3           0.02527   0.01678   0.01283
           R4          -0.00335  -0.00434   0.00154   0.59465
           A1           0.02461   0.04084   0.01234  -0.00916   0.10030
           A2           0.09601   0.07627   0.04116  -0.00232   0.04209
           A3           0.02170   0.00370   0.01960   0.01065  -0.00606
           D1          -0.00948  -0.00207  -0.00176  -0.00148  -0.00257
           D2          -0.00127  -0.00210   0.00348   0.00290  -0.00249
                          A2        A3        D1        D2
           A2           0.19713
           A3          -0.00422   0.08867
           D1          -0.01074  -0.00094   0.02462
           D2          -0.01022   0.02248   0.00840   0.01078
     Eigenvalues ---   -0.00073   0.00158   0.02653   0.08024   0.09341
     Eigenvalues ---    0.11443   0.20701   0.41138   0.59529
 Eigenvectors required to have negative eigenvalues:
                          R3        A3        A2        D2        A1
   1                    0.95402  -0.20601  -0.20017  -0.06711  -0.05169
                          R2        D1        R1        R4
   1                    0.01029  -0.00822   0.00085   0.00003
 RFO step:  Lambda0=2.473177818D-03 Lambda=-3.61828348D-05.
 Linear search not attempted -- option 19 set.
 Maximum step size (   0.030) exceeded in Quadratic search.
    -- Step size scaled by   0.034
 Iteration  1 RMS(Cart)=  0.00795972 RMS(Int)=  0.00001816
 Iteration  2 RMS(Cart)=  0.00001518 RMS(Int)=  0.00000000
 Iteration  3 RMS(Cart)=  0.00000000 RMS(Int)=  0.00000000
 Variable       Old X    -DE/DX   Delta X   Delta X   Delta X     New X
                                 (Linear)    (Quad)   (Total)
    R1        1.85866   0.00082   0.00000   0.00004   0.00004   1.85870
    R2        3.85065   0.00022   0.00000   0.00029   0.00029   3.85094
    R3        4.94152  -0.00233   0.00000   0.02860   0.02860   4.97011
    R4        1.85922   0.00006   0.00000  -0.00001  -0.00001   1.85921
    A1        1.93211  -0.00053   0.00000  -0.00195  -0.00195   1.93016
    A2        1.88689   0.00218   0.00000  -0.00557  -0.00557   1.88133
    A3        1.10911   0.00081   0.00000  -0.00675  -0.00675   1.10235
    D1       -2.95623  -0.00012   0.00000  -0.00119  -0.00119  -2.95742
    D2       -1.76409   0.00029   0.00000   0.00055   0.00055  -1.76354
         Item               Value     Threshold  Converged?
 Maximum Force            0.002331     0.000450     NO 
 RMS     Force            0.001152     0.000300     NO 
 Maximum Displacement     0.016636     0.001800     NO 
 RMS     Displacement     0.007961     0.001200     NO 
 Predicted change in Energy= 8.252781D-05
 GradGradGradGradGradGradGradGradGradGradGradGradGradGradGradGradGradGrad

                          Input orientation:                          
 ---------------------------------------------------------------------
 Center     Atomic      Atomic             Coordinates (Angstroms)
 Number     Number       Type             X           Y           Z
 ---------------------------------------------------------------------
      1          8           0       -1.523439    0.683744    0.607639
      2          1           0       -1.151246    0.970743   -0.256385
      3          8           0        1.458412    0.661555   -0.149796
      4          1           0        1.113679    1.574254   -0.022881
      5         53           0       -3.554748    0.556361    0.506138
 ---------------------------------------------------------------------
                    Distance matrix (angstroms):
                    1          2          3          4          5
     1  O    0.000000
     2  H    0.983582   0.000000
     3  O    3.076627   2.630071   0.000000
     4  H    2.853937   2.355554   0.983853   0.000000
     5  I    2.037829   2.555382   5.056984   4.807305   0.000000
 Stoichiometry    H2IO2(1-)
 Framework group  C1[X(H2IO2)]
 Deg. of freedom     9
 Full point group                 C1      NOp   1
 Largest Abelian subgroup         C1      NOp   1
 Largest concise Abelian subgroup C1      NOp   1
                         Standard orientation:                         
 ---------------------------------------------------------------------
 Center     Atomic      Atomic             Coordinates (Angstroms)
 Number     Number       Type             X           Y           Z
 ---------------------------------------------------------------------
      1          8           0       -1.111590    0.314749    0.001333
      2          1           0       -1.593867   -0.470499    0.345177
      3          8           0       -4.157283   -0.104472   -0.115466
      4          1           0       -3.840833    0.071231    0.799387
      5         53           0        0.897843   -0.024207   -0.004368
 ---------------------------------------------------------------------
 Rotational constants (GHZ):    168.6317272      1.2229226      1.2195428
 Standard basis: LANL2DZ (5D, 7F)
 There are    30 symmetry adapted basis functions of A   symmetry.
 Integral buffers will be    262144 words long.
 Raffenetti 2 integral format.
 Two-electron integral symmetry is turned on.
    30 basis functions,    70 primitive gaussians,    30 cartesian basis functions
    13 alpha electrons       13 beta electrons
       nuclear repulsion energy        45.5545886751 Hartrees.
 NAtoms=    5 NActive=    5 NUniq=    5 SFac= 7.50D-01 NAtFMM=   80 NAOKFM=F Big=F
 ------------------------------------------------------------------------------
 Polarizable Continuum Model (PCM)
 =================================
 Model                : PCM.
 Atomic radii         : SMD-Coulomb.
 Polarization charges : Total charges.
 Charge compensation  : None.
 Solution method      : Matrix inversion.
 Cavity type          : VdW (van der Waals Surface) (Alpha=1.000).
 Cavity algorithm     : GePol (No added spheres)
                        Default sphere list used, NSphG=    5.
                        Lebedev-Laikov grids with approx.  5.0 points / Ang**2.
                        Smoothing algorithm: Karplus/York (Gamma=1.0000).
                        Polarization charges: spherical gaussians, with
                                              point-specific exponents (IZeta= 3).
                        Self-potential: point-specific (ISelfS= 7).
                        Self-field    : sphere-specific E.n sum rule (ISelfD= 2).
 1st derivatives      : Analytical E(r).r(x)/FMM algorithm (CHGder, D1EAlg=3).
                        Cavity 1st derivative terms included.
 Solvent              : Water, Eps=  78.355300 Eps(inf)=   1.777849
 ------------------------------------------------------------------------------
 Spheres list:
 ISph  on   Nord    Re0     Alpha      Xe            Ye            Ze
    1   O      1    1.520   1.000     -1.111590      0.314749      0.001333
    2   H      2    1.200   1.000     -1.593867     -0.470499      0.345177
    3   O      3    1.520   1.000     -4.157283     -0.104472     -0.115466
    4   H      4    1.200   1.000     -3.840833      0.071231      0.799387
    5   I      5    1.980   1.000      0.897843     -0.024207     -0.004368
 ------------------------------------------------------------------------------
 ------------------------------------------------------------------------------
 Atomic radii for non-electrostatic terms: SMD-CDS.
 ------------------------------------------------------------------------------
 Nuclear repulsion after PCM non-electrostatic terms =       45.5563523353 Hartrees.
 One-electron integrals computed using PRISM.
   1 Symmetry operations used in ECPInt.
 ECPInt:  NShTT=     171 NPrTT=    1054 LenC2=     171 LenP2D=     867.
 LDataN:  DoStor=T MaxTD1= 4 Len=   56
 NBasis=    30 RedAO= T  NBF=    30
 NBsUse=    30 1.00D-06 NBFU=    30
 Defaulting to unpruned grid for atomic number  53.
 Initial guess read from the read-write file.
 B after Tr=     0.000000    0.000000    0.000000
         Rot=    1.000000    0.000000    0.000000    0.000000 Ang=   0.00 deg.
 Initial guess orbital symmetries:
       Occupied  (A) (A) (A) (A) (A) (A) (A) (A) (A) (A) (A) (A)
                 (A)
       Virtual   (A) (A) (A) (A) (A) (A) (A) (A) (A) (A) (A) (A)
                 (A) (A) (A) (A) (A)
 Requested convergence on RMS density matrix=1.00D-08 within 128 cycles.
 Requested convergence on MAX density matrix=1.00D-06.
 Requested convergence on             energy=1.00D-06.
 No special actions if energy rises.
 Keep R1 ints in memory in canonical form, NReq=3482832.
 Defaulting to unpruned grid for atomic number  53.
 Defaulting to unpruned grid for atomic number  53.
 Defaulting to unpruned grid for atomic number  53.
 Defaulting to unpruned grid for atomic number  53.
 Error on total polarization charges =  0.07412
 SCF Done:  E(RM062X) =  -162.993773062     A.U. after   10 cycles
             Convg  =    0.5220D-08             -V/T =  2.0586
 SMD-CDS (non-electrostatic) energy             (kcal/mol) =       1.11
 (included in total energy above)
   1 Symmetry operations used in ECPInt.
 ECPInt:  NShTT=     171 NPrTT=    1054 LenC2=     171 LenP2D=     867.
 LDataN:  DoStor=T MaxTD1= 5 Len=  102
 D1PCM: PCM CHGder 1st derivatives, ID1Alg=3 FixD1E=F DoIter=F DoCFld=F I1PDM=0.
 Calling FoFJK, ICntrl=      2127 FMM=F ISym2X=0 I1Cent= 0 IOpClX= 0 NMat=1 NMatS=1 NMatT=0.
 Defaulting to unpruned grid for atomic number  53.
 Defaulting to unpruned grid for atomic number  53.
 Defaulting to unpruned grid for atomic number  53.
 Defaulting to unpruned grid for atomic number  53.
 ***** Axes restored to original set *****
 -------------------------------------------------------------------
 Center     Atomic                   Forces (Hartrees/Bohr)
 Number     Number              X              Y              Z
 -------------------------------------------------------------------
      1        8          -0.000884951    0.000099395    0.000413006
      2        1           0.003383401   -0.000678814   -0.000005158
      3        8          -0.002693392    0.000359763   -0.000568863
      4        1           0.000437475    0.000082088    0.000395323
      5       53          -0.000242534    0.000137569   -0.000234308
 -------------------------------------------------------------------
 Cartesian Forces:  Max     0.003383401 RMS     0.001185081

 GradGradGradGradGradGradGradGradGradGradGradGradGradGradGradGradGradGrad
 Berny optimization.
 Internal  Forces:  Max     0.002368266 RMS     0.001095561
 Search for a saddle point.
 Step number   6 out of a maximum of   20
 All quantities printed in internal units (Hartrees-Bohrs-Radians)
 Swaping is turned off.
 Update second derivatives using D2CorX and points    1    2    3    4    5
                                                      6
 The second derivative matrix:
                          R1        R2        R3        R4        A1
           R1           0.31262
           R2           0.04094   0.18763
           R3           0.02820   0.01683   0.01480
           R4          -0.00329  -0.00431   0.00190   0.59467
           A1           0.02475   0.04118   0.00559  -0.00918   0.10161
           A2           0.09527   0.07624   0.04687  -0.00231   0.04349
           A3           0.02166   0.00383   0.01854   0.01064  -0.00543
           D1          -0.00914  -0.00206  -0.00286  -0.00149  -0.00334
           D2          -0.00181  -0.00207   0.00356   0.00288  -0.00102
                          A2        A3        D1        D2
           A2           0.19437
           A3          -0.00421   0.08875
           D1          -0.00977  -0.00124   0.02430
           D2          -0.01146   0.02296   0.00856   0.01101
     Eigenvalues ---   -0.00157   0.00178   0.02645   0.08074   0.09416
     Eigenvalues ---    0.11422   0.20717   0.41151   0.59530
 Eigenvectors required to have negative eigenvalues:
                          R3        D2        A2        D1        A3
   1                    0.86491  -0.40802  -0.23739   0.14285  -0.07980
                          A1        R2        R1        R4
   1                    0.04733   0.00781  -0.00308   0.00085
 RFO step:  Lambda0=2.043852947D-03 Lambda=-4.92303836D-04.
 Linear search not attempted -- option 19 set.
 Maximum step size (   0.030) exceeded in Quadratic search.
    -- Step size scaled by   0.034
 Iteration  1 RMS(Cart)=  0.01238705 RMS(Int)=  0.00007897
 Iteration  2 RMS(Cart)=  0.00010211 RMS(Int)=  0.00000000
 Iteration  3 RMS(Cart)=  0.00000000 RMS(Int)=  0.00000000
 Variable       Old X    -DE/DX   Delta X   Delta X   Delta X     New X
                                 (Linear)    (Quad)   (Total)
    R1        1.85870   0.00071   0.00000  -0.00013  -0.00013   1.85858
    R2        3.85094   0.00021   0.00000   0.00004   0.00004   3.85098
    R3        4.97011  -0.00237   0.00000   0.01617   0.01617   4.98628
    R4        1.85921   0.00004   0.00000   0.00003   0.00003   1.85925
    A1        1.93016  -0.00030   0.00000   0.00128   0.00128   1.93144
    A2        1.88133   0.00195   0.00000  -0.00474  -0.00474   1.87659
    A3        1.10235   0.00083   0.00000   0.00284   0.00284   1.10519
    D1       -2.95742  -0.00009   0.00000   0.00851   0.00851  -2.94891
    D2       -1.76354   0.00028   0.00000  -0.02311  -0.02311  -1.78665
         Item               Value     Threshold  Converged?
 Maximum Force            0.002368     0.000450     NO 
 RMS     Force            0.001096     0.000300     NO 
 Maximum Displacement     0.019212     0.001800     NO 
 RMS     Displacement     0.012403     0.001200     NO 
 Predicted change in Energy= 5.248516D-05
 GradGradGradGradGradGradGradGradGradGradGradGradGradGradGradGradGradGrad

                          Input orientation:                          
 ---------------------------------------------------------------------
 Center     Atomic      Atomic             Coordinates (Angstroms)
 Number     Number       Type             X           Y           Z
 ---------------------------------------------------------------------
      1          8           0       -1.527129    0.685192    0.607059
      2          1           0       -1.156086    0.980910   -0.254441
      3          8           0        1.460368    0.657439   -0.145445
      4          1           0        1.123420    1.574447   -0.028971
      5         53           0       -3.557915    0.548669    0.506512
 ---------------------------------------------------------------------
                    Distance matrix (angstroms):
                    1          2          3          4          5
     1  O    0.000000
     2  H    0.983516   0.000000
     3  O    3.080937   2.638626   0.000000
     4  H    2.867180   2.366278   0.983872   0.000000
     5  I    2.037852   2.556299   5.061625   4.822226   0.000000
 Stoichiometry    H2IO2(1-)
 Framework group  C1[X(H2IO2)]
 Deg. of freedom     9
 Full point group                 C1      NOp   1
 Largest Abelian subgroup         C1      NOp   1
 Largest concise Abelian subgroup C1      NOp   1
                         Standard orientation:                         
 ---------------------------------------------------------------------
 Center     Atomic      Atomic             Coordinates (Angstroms)
 Number     Number       Type             X           Y           Z
 ---------------------------------------------------------------------
      1          8           0       -1.111098    0.313419   -0.000454
      2          1           0       -1.592185   -0.459757    0.371106
      3          8           0       -4.161136   -0.106078   -0.116487
      4          1           0       -3.855007    0.084137    0.798995
      5         53           0        0.898586   -0.024210   -0.004426
 ---------------------------------------------------------------------
 Rotational constants (GHZ):    168.3568811      1.2206129      1.2173534
 Standard basis: LANL2DZ (5D, 7F)
 There are    30 symmetry adapted basis functions of A   symmetry.
 Integral buffers will be    262144 words long.
 Raffenetti 2 integral format.
 Two-electron integral symmetry is turned on.
    30 basis functions,    70 primitive gaussians,    30 cartesian basis functions
    13 alpha electrons       13 beta electrons
       nuclear repulsion energy        45.5178725812 Hartrees.
 NAtoms=    5 NActive=    5 NUniq=    5 SFac= 7.50D-01 NAtFMM=   80 NAOKFM=F Big=F
 ------------------------------------------------------------------------------
 Polarizable Continuum Model (PCM)
 =================================
 Model                : PCM.
 Atomic radii         : SMD-Coulomb.
 Polarization charges : Total charges.
 Charge compensation  : None.
 Solution method      : Matrix inversion.
 Cavity type          : VdW (van der Waals Surface) (Alpha=1.000).
 Cavity algorithm     : GePol (No added spheres)
                        Default sphere list used, NSphG=    5.
                        Lebedev-Laikov grids with approx.  5.0 points / Ang**2.
                        Smoothing algorithm: Karplus/York (Gamma=1.0000).
                        Polarization charges: spherical gaussians, with
[...]
   1                    0.85415  -0.34975   0.25894  -0.23340  -0.16242
                          R2        A1        R1        R4
   1                    0.00997   0.00982   0.00220   0.00164
 RFO step:  Lambda0=6.801969099D-05 Lambda=-5.10196829D-03.
 Linear search not attempted -- option 19 set.
 Maximum step size (   0.030) exceeded in Quadratic search.
    -- Step size scaled by   0.037
 Iteration  1 RMS(Cart)=  0.01104732 RMS(Int)=  0.00004263
 Iteration  2 RMS(Cart)=  0.00006048 RMS(Int)=  0.00000000
 Iteration  3 RMS(Cart)=  0.00000000 RMS(Int)=  0.00000000
 Variable       Old X    -DE/DX   Delta X   Delta X   Delta X     New X
                                 (Linear)    (Quad)   (Total)
    R1        1.85912   0.00055   0.00000   0.00013   0.00013   1.85925
    R2        3.85125   0.00016   0.00000  -0.00002  -0.00002   3.85123
    R3        4.98072  -0.00240   0.00000  -0.02489  -0.02489   4.95583
    R4        1.85909   0.00012   0.00000   0.00007   0.00007   1.85916
    A1        1.92859  -0.00032   0.00000   0.00104   0.00104   1.92963
    A2        1.87860   0.00160   0.00000   0.00911   0.00911   1.88770
    A3        1.07494   0.00068   0.00000   0.00197   0.00197   1.07692
    D1       -3.01683  -0.00030   0.00000  -0.00703  -0.00703  -3.02385
    D2       -1.59517   0.00041   0.00000   0.01197   0.01197  -1.58320
         Item               Value     Threshold  Converged?
 Maximum Force            0.002400     0.000450     NO 
 RMS     Force            0.001026     0.000300     NO 
 Maximum Displacement     0.014554     0.001800     NO 
 RMS     Displacement     0.011039     0.001200     NO 
 Predicted change in Energy=-8.390816D-05
 GradGradGradGradGradGradGradGradGradGradGradGradGradGradGradGradGradGrad

                          Input orientation:                          
 ---------------------------------------------------------------------
 Center     Atomic      Atomic             Coordinates (Angstroms)
 Number     Number       Type             X           Y           Z
 ---------------------------------------------------------------------
      1          8           0       -1.507048    0.677718    0.592535
      2          1           0       -1.141251    0.906964   -0.291571
      3          8           0        1.470027    0.693832   -0.175892
      4          1           0        1.063547    1.565243    0.032256
      5         53           0       -3.542617    0.602900    0.527387
 ---------------------------------------------------------------------
                    Distance matrix (angstroms):
                    1          2          3          4          5
     1  O    0.000000
     2  H    0.983873   0.000000
     3  O    3.074691   2.622514   0.000000
     4  H    2.776612   2.323645   0.983824   0.000000
     5  I    2.037984   2.555329   5.062556   4.731596   0.000000
 Stoichiometry    H2IO2(1-)
 Framework group  C1[X(H2IO2)]
 Deg. of freedom     9
 Full point group                 C1      NOp   1
 Largest Abelian subgroup         C1      NOp   1
 Largest concise Abelian subgroup C1      NOp   1
                         Standard orientation:                         
 ---------------------------------------------------------------------
 Center     Atomic      Atomic             Coordinates (Angstroms)
 Number     Number       Type             X           Y           Z
 ---------------------------------------------------------------------
      1          8           0       -1.114916    0.297121   -0.011115
      2          1           0       -1.596724   -0.528606    0.221357
      3          8           0       -4.163199   -0.095168   -0.099451
      4          1           0       -3.766865    0.083075    0.783193
      5         53           0        0.897896   -0.022077   -0.002265
 ---------------------------------------------------------------------
 Rotational constants (GHZ):    187.2522449      1.2222120      1.2189165
 Standard basis: LANL2DZ (5D, 7F)
 There are    30 symmetry adapted basis functions of A   symmetry.
 Integral buffers will be    262144 words long.
 Raffenetti 2 integral format.
 Two-electron integral symmetry is turned on.
    30 basis functions,    70 primitive gaussians,    30 cartesian basis functions
    13 alpha electrons       13 beta electrons
       nuclear repulsion energy        45.6142107990 Hartrees.
 NAtoms=    5 NActive=    5 NUniq=    5 SFac= 7.50D-01 NAtFMM=   80 NAOKFM=F Big=F
 ------------------------------------------------------------------------------
 Polarizable Continuum Model (PCM)
 =================================
 Model                : PCM.
 Atomic radii         : SMD-Coulomb.
 Polarization charges : Total charges.
 Charge compensation  : None.
 Solution method      : Matrix inversion.
 Cavity type          : VdW (van der Waals Surface) (Alpha=1.000).
 Cavity algorithm     : GePol (No added spheres)
                        Default sphere list used, NSphG=    5.
                        Lebedev-Laikov grids with approx.  5.0 points / Ang**2.
                        Smoothing algorithm: Karplus/York (Gamma=1.0000).
                        Polarization charges: spherical gaussians, with
                                              point-specific exponents (IZeta= 3).
                        Self-potential: point-specific (ISelfS= 7).
                        Self-field    : sphere-specific E.n sum rule (ISelfD= 2).
 1st derivatives      : Analytical E(r).r(x)/FMM algorithm (CHGder, D1EAlg=3).
                        Cavity 1st derivative terms included.
 Solvent              : Water, Eps=  78.355300 Eps(inf)=   1.777849
 ------------------------------------------------------------------------------
 Spheres list:
 ISph  on   Nord    Re0     Alpha      Xe            Ye            Ze
    1   O      1    1.520   1.000     -1.114916      0.297121     -0.011115
    2   H      2    1.200   1.000     -1.596724     -0.528606      0.221357
    3   O      3    1.520   1.000     -4.163199     -0.095168     -0.099451
    4   H      4    1.200   1.000     -3.766865      0.083075      0.783193
    5   I      5    1.980   1.000      0.897896     -0.022077     -0.002265
 ------------------------------------------------------------------------------
 ------------------------------------------------------------------------------
 Atomic radii for non-electrostatic terms: SMD-CDS.
 ------------------------------------------------------------------------------
 Nuclear repulsion after PCM non-electrostatic terms =       45.6159394339 Hartrees.
 One-electron integrals computed using PRISM.
   1 Symmetry operations used in ECPInt.
 ECPInt:  NShTT=     171 NPrTT=    1054 LenC2=     171 LenP2D=     868.
 LDataN:  DoStor=T MaxTD1= 4 Len=   56
 NBasis=    30 RedAO= T  NBF=    30
 NBsUse=    30 1.00D-06 NBFU=    30
 Defaulting to unpruned grid for atomic number  53.
 Initial guess read from the read-write file.
 B after Tr=     0.000000    0.000000    0.000000
         Rot=    1.000000    0.000000    0.000000    0.000000 Ang=   0.00 deg.
 Initial guess orbital symmetries:
       Occupied  (A) (A) (A) (A) (A) (A) (A) (A) (A) (A) (A) (A)
                 (A)
       Virtual   (A) (A) (A) (A) (A) (A) (A) (A) (A) (A) (A) (A)
                 (A) (A) (A) (A) (A)
 Requested convergence on RMS density matrix=1.00D-08 within 128 cycles.
 Requested convergence on MAX density matrix=1.00D-06.
 Requested convergence on             energy=1.00D-06.
 No special actions if energy rises.
 Keep R1 ints in memory in canonical form, NReq=3478723.
 Defaulting to unpruned grid for atomic number  53.
 Defaulting to unpruned grid for atomic number  53.
 Defaulting to unpruned grid for atomic number  53.
 Defaulting to unpruned grid for atomic number  53.
 Error on total polarization charges =  0.07434
 SCF Done:  E(RM062X) =  -162.993844552     A.U. after   11 cycles
             Convg  =    0.1779D-08             -V/T =  2.0586
 SMD-CDS (non-electrostatic) energy             (kcal/mol) =       1.08
 (included in total energy above)
   1 Symmetry operations used in ECPInt.
 ECPInt:  NShTT=     171 NPrTT=    1054 LenC2=     171 LenP2D=     868.
 LDataN:  DoStor=T MaxTD1= 5 Len=  102
 D1PCM: PCM CHGder 1st derivatives, ID1Alg=3 FixD1E=F DoIter=F DoCFld=F I1PDM=0.
 Calling FoFJK, ICntrl=      2127 FMM=F ISym2X=0 I1Cent= 0 IOpClX= 0 NMat=1 NMatS=1 NMatT=0.
 Defaulting to unpruned grid for atomic number  53.
 Defaulting to unpruned grid for atomic number  53.
 Defaulting to unpruned grid for atomic number  53.
 Defaulting to unpruned grid for atomic number  53.
 ***** Axes restored to original set *****
 -------------------------------------------------------------------
 Center     Atomic                   Forces (Hartrees/Bohr)
 Number     Number              X              Y              Z
 -------------------------------------------------------------------
      1        8          -0.000712341    0.000119160    0.000374714
      2        1           0.003308128   -0.000695853   -0.000006471
      3        8          -0.002679212    0.000314375   -0.000605952
      4        1           0.000276698    0.000099597    0.000423223
      5       53          -0.000193273    0.000162721   -0.000185515
 -------------------------------------------------------------------
 Cartesian Forces:  Max     0.003308128 RMS     0.001157527

 GradGradGradGradGradGradGradGradGradGradGradGradGradGradGradGradGradGrad
 Berny optimization.
 Internal  Forces:  Max     0.002474800 RMS     0.001070845
 Search for a saddle point.
 Step number  20 out of a maximum of   20
 All quantities printed in internal units (Hartrees-Bohrs-Radians)
 Swaping is turned off.
 Update second derivatives using D2CorX and points   11   12   13   14   15
                                                     16   17   18   19   20
 The second derivative matrix:
                          R1        R2        R3        R4        A1
           R1           0.31261
           R2           0.04125   0.18813
           R3           0.04189   0.02960   0.02835
           R4          -0.00306  -0.00416   0.00166   0.59464
           A1           0.02556   0.04230   0.01733  -0.00941   0.10464
           A2           0.08969   0.07178   0.07224  -0.00120   0.04109
           A3           0.01791   0.00044   0.01232   0.01070  -0.00846
           D1          -0.01028  -0.00264  -0.00677  -0.00123  -0.00345
           D2           0.00249   0.00057   0.00227   0.00138  -0.00068
                          A2        A3        D1        D2
           A2           0.17072
           A3          -0.01018   0.09295
           D1          -0.01096  -0.00049   0.02287
           D2          -0.00033   0.02206   0.01111   0.00625
     Eigenvalues ---   -0.00464  -0.00359   0.02673   0.08173   0.09512
     Eigenvalues ---    0.11311   0.20732   0.41014   0.59523
 Eigenvectors required to have negative eigenvalues:
                          R3        D2        A2        A3        D1
   1                    0.81385   0.38675  -0.35320  -0.22895  -0.10247
                          A1        R2        R1        R4
   1                   -0.01800   0.00864  -0.00072  -0.00020
 RFO step:  Lambda0=1.138241126D-03 Lambda=-4.22668806D-03.
 Linear search not attempted -- option 19 set.
 Maximum step size (   0.030) exceeded in Quadratic search.
    -- Step size scaled by   0.053
 Iteration  1 RMS(Cart)=  0.01241908 RMS(Int)=  0.00010516
 Iteration  2 RMS(Cart)=  0.00010933 RMS(Int)=  0.00000001
 Iteration  3 RMS(Cart)=  0.00000001 RMS(Int)=  0.00000000
 Variable       Old X    -DE/DX   Delta X   Delta X   Delta X     New X
                                 (Linear)    (Quad)   (Total)
    R1        1.85925   0.00057   0.00000   0.00008   0.00008   1.85933
    R2        3.85123   0.00017   0.00000   0.00032   0.00032   3.85155
    R3        4.95583  -0.00247   0.00000   0.01175   0.01175   4.96758
    R4        1.85916   0.00009   0.00000   0.00001   0.00001   1.85917
    A1        1.92963  -0.00037   0.00000  -0.00083  -0.00083   1.92880
    A2        1.88770   0.00173   0.00000  -0.00560  -0.00560   1.88210
    A3        1.07692   0.00063   0.00000  -0.00755  -0.00755   1.06936
    D1       -3.02385  -0.00033   0.00000  -0.00947  -0.00947  -3.03332
    D2       -1.58320   0.00043   0.00000   0.02415   0.02415  -1.55905
         Item               Value     Threshold  Converged?
 Maximum Force            0.002475     0.000450     NO 
 RMS     Force            0.001071     0.000300     NO 
 Maximum Displacement     0.015626     0.001800     NO 
 RMS     Displacement     0.012431     0.001200     NO 
 Predicted change in Energy= 2.781501D-05
 Optimization stopped.
    -- Number of steps exceeded,  NStep=  20
    -- Flag reset to prevent archiving.
                           ----------------------------
                           ! Non-Optimized Parameters !
                           ! (Angstroms and Degrees)  !
 --------------------------                            --------------------------
 ! Name  Definition              Value          Derivative Info.                !
 --------------------------------------------------------------------------------
 ! R1    R(1,2)                  0.9839         -DE/DX =    0.0006              !
 ! R2    R(1,5)                  2.0382         -DE/DX =    0.0002              !
 ! R3    R(2,3)                  2.6287         -DE/DX =   -0.0025              !
 ! R4    R(3,4)                  0.9838         -DE/DX =    0.0001              !
 ! A1    A(2,1,5)              110.5119         -DE/DX =   -0.0004              !
 ! A2    A(1,2,3)              107.8362         -DE/DX =    0.0017              !
 ! A3    A(2,3,4)               61.2699         -DE/DX =    0.0006              !
 ! D1    D(5,1,2,3)           -173.7964         -DE/DX =   -0.0003              !
 ! D2    D(1,2,3,4)            -89.3272         -DE/DX =    0.0004              !
 --------------------------------------------------------------------------------
 GradGradGradGradGradGradGradGradGradGradGradGradGradGradGradGradGradGrad

                          Input orientation:                          
 ---------------------------------------------------------------------
 Center     Atomic      Atomic             Coordinates (Angstroms)
 Number     Number       Type             X           Y           Z
 ---------------------------------------------------------------------
      1          8           0       -1.507048    0.677718    0.592535
      2          1           0       -1.141251    0.906964   -0.291571
      3          8           0        1.470027    0.693832   -0.175892
      4          1           0        1.063547    1.565243    0.032256
      5         53           0       -3.542617    0.602900    0.527387
 ---------------------------------------------------------------------
                    Distance matrix (angstroms):
                    1          2          3          4          5
     1  O    0.000000
     2  H    0.983873   0.000000
     3  O    3.074691   2.622514   0.000000
     4  H    2.776612   2.323645   0.983824   0.000000
     5  I    2.037984   2.555329   5.062556   4.731596   0.000000
 Stoichiometry    H2IO2(1-)
 Framework group  C1[X(H2IO2)]
 Deg. of freedom     9
 Full point group                 C1      NOp   1
 Largest Abelian subgroup         C1      NOp   1
 Largest concise Abelian subgroup C1      NOp   1
                         Standard orientation:                         
 ---------------------------------------------------------------------
 Center     Atomic      Atomic             Coordinates (Angstroms)
 Number     Number       Type             X           Y           Z
 ---------------------------------------------------------------------
      1          8           0       -1.114916    0.297121   -0.011115
      2          1           0       -1.596724   -0.528606    0.221357
      3          8           0       -4.163199   -0.095168   -0.099451
      4          1           0       -3.766865    0.083075    0.783193
      5         53           0        0.897896   -0.022077   -0.002265
 ---------------------------------------------------------------------
 Rotational constants (GHZ):    187.2522449      1.2222120      1.2189165

 **********************************************************************

            Population analysis using the SCF density.

 **********************************************************************

 Orbital symmetries:
       Occupied  (A) (A) (A) (A) (A) (A) (A) (A) (A) (A) (A) (A)
                 (A)
       Virtual   (A) (A) (A) (A) (A) (A) (A) (A) (A) (A) (A) (A)
                 (A) (A) (A) (A) (A)
 The electronic state is 1-A.
 Alpha  occ. eigenvalues --  -19.65813 -19.50697  -1.11559  -0.94878  -0.74098
 Alpha  occ. eigenvalues --   -0.54266  -0.43438  -0.42657  -0.39703  -0.31089
 Alpha  occ. eigenvalues --   -0.29926  -0.27290  -0.27098
 Alpha virt. eigenvalues --   -0.05048   0.16761   0.23954   0.41896   0.42490
 Alpha virt. eigenvalues --    0.43235   0.67759   0.70539   0.74649   0.77048
 Alpha virt. eigenvalues --    0.79096   0.91183   0.99967   1.13208   1.41661
 Alpha virt. eigenvalues --    1.47248   9.32415
          Condensed to atoms (all electrons):
              1          2          3          4          5
     1  O    8.596039   0.249778  -0.001556   0.001457   0.036028
     2  H    0.249778   0.306753   0.016611   0.000315  -0.021068
     3  O   -0.001556   0.016611   8.989832   0.271234   0.000633
     4  H    0.001457   0.000315   0.271234   0.415034  -0.000007
     5  I    0.036028  -0.021068   0.000633  -0.000007   6.585489
 Mulliken atomic charges:
              1
     1  O   -0.881747
     2  H    0.447611
     3  O   -1.276754
     4  H    0.311967
     5  I    0.398923
 Sum of Mulliken atomic charges =  -1.00000
 Mulliken charges with hydrogens summed into heavy atoms:
              1
     1  O   -0.434136
     3  O   -0.964787
     5  I    0.398923
 Sum of Mulliken charges with hydrogens summed into heavy atoms =  -1.00000
 Electronic spatial extent (au):  <R**2>=            755.6072
 Charge=             -1.0000 electrons
 Dipole moment (field-independent basis, Debye):
    X=             21.6391    Y=             -1.7875    Z=              2.9421  Tot=             21.9113
 Quadrupole moment (field-independent basis, Debye-Ang):
   XX=           -117.0734   YY=            -35.2011   ZZ=            -34.0714
   XY=             -0.1101   XZ=             -9.8374   YZ=             -0.2086
 Traceless Quadrupole moment (field-independent basis, Debye-Ang):
   XX=            -54.9581   YY=             26.9142   ZZ=             28.0439
   XY=             -0.1101   XZ=             -9.8374   YZ=             -0.2086
 Octapole moment (field-independent basis, Debye-Ang**2):
  XXX=            451.7262  YYY=             -2.0338  ZZZ=              2.1619  XYY=             23.1489
  XXY=              6.1614  XXZ=             35.5915  XZZ=             17.1005  YZZ=             -0.6837
  YYZ=              0.6156  XYZ=             -0.1210
 Hexadecapole moment (field-independent basis, Debye-Ang**3):
 XXXX=          -2595.1770 YYYY=            -53.5429 ZZZZ=            -50.6370 XXXY=            -52.0459
 XXXZ=           -135.3472 YYYX=             -2.1033 YYYZ=             -0.2764 ZZZX=             -7.8513
 ZZZY=             -0.0312 XXYY=           -183.2798 XXZZ=           -158.5454 YYZZ=            -17.5059
 XXYZ=              1.7266 YYXZ=             -2.1324 ZZXY=             -0.6203
 N-N= 4.561593943393D+01 E-N=-4.782760244693D+02  KE= 1.539694301860D+02


 ABSOLUTISM, OBSOLETISM -- IF IT WORKS, IT'S OUT OF DATE

                          -- STAFFORD BEER
 Error termination request processed by link 9999.
 Error termination via Lnk1e in C:\G09W\l9999.exe at Tue Feb 02 04:00:53 2021.
 Job cpu time:  0 days  0 hours  1 minutes 46.0 seconds.
 File lengths (MBytes):  RWF=     12 Int=      0 D2E=      0 Chk=      2 Scr=      1
