 Entering Link 1 = C:\G09W\l1.exe PID=      3680.
  
 Copyright (c) 1988,1990,1992,1993,1995,1998,2003,2009, Gaussian, Inc.
                  All Rights Reserved.
  
 This is part of the Gaussian(R) 09 program.  It is based on
 the Gaussian(R) 03 system (copyright 2003, Gaussian, Inc.),
 the Gaussian(R) 98 system (copyright 1998, Gaussian, Inc.),
 the Gaussian(R) 94 system (copyright 1995, Gaussian, Inc.),
 the Gaussian 92(TM) system (copyright 1992, Gaussian, Inc.),
 the Gaussian 90(TM) system (copyright 1990, Gaussian, Inc.),
 the Gaussian 88(TM) system (copyright 1988, Gaussian, Inc.),
 the Gaussian 86(TM) system (copyright 1986, Carnegie Mellon
 University), and the Gaussian 82(TM) system (copyright 1983,
 Carnegie Mellon University). Gaussian is a federally registered
 trademark of Gaussian, Inc.
  
 This software contains proprietary and confidential information,
 including trade secrets, belonging to Gaussian, Inc.
  
 This software is provided under written license and may be
 used, copied, transmitted, or stored only in accord with that
 written license.
  
 The following legend is applicable only to US Government
 contracts under FAR:
  
                    RESTRICTED RIGHTS LEGEND
  
 Use, reproduction and disclosure by the US Government is
 subject to restrictions as set forth in subparagraphs (a)
 and (c) of the Commercial Computer Software - Restricted
 Rights clause in FAR 52.227-19.
  
 Gaussian, Inc.
 340 Quinnipiac St., Bldg. 40, Wallingford CT 06492
  
  
 ---------------------------------------------------------------
 Warning -- This program may not be used in any manner that
 competes with the business of Gaussian, Inc. or will provide
 assistance to any competitor of Gaussian, Inc.  The licensee
 of this program is prohibited from giving any competitor of
 Gaussian, Inc. access to this program.  By using this program,
 the user acknowledges that Gaussian, Inc. is engaged in the
 business of creating and licensing software in the field of
 computational chemistry and represents and warrants to the
 licensee that it is not a competitor of Gaussian, Inc. and that
 it will not use this program in any manner prohibited above.
 ---------------------------------------------------------------
  

 Cite this work as:
 Gaussian 09, Revision A.02,
 M. J. Frisch, G. W. Trucks, H. B. Schlegel, G. E. Scuseria, 
 M. A. Robb, J. R. Cheeseman, G. Scalmani, V. Barone, B. Mennucci, 
 G. A. Petersson, H. Nakatsuji, M. Caricato, X. Li, H. P. Hratchian, 
 A. F. Izmaylov, J. Bloino, G. Zheng, J. L. Sonnenberg, M. Hada, 
 M. Ehara, K. Toyota, R. Fukuda, J. Hasegawa, M. Ishida, T. Nakajima, 
 Y. Honda, O. Kitao, H. Nakai, T. Vreven, J. A. Montgomery, Jr., 
 J. E. Peralta, F. Ogliaro, M. Bearpark, J. J. Heyd, E. Brothers, 
 K. N. Kudin, V. N. Staroverov, R. Kobayashi, J. Normand, 
 K. Raghavachari, A. Rendell, J. C. Burant, S. S. Iyengar, J. Tomasi, 
 M. Cossi, N. Rega, J. M. Millam, M. Klene, J. E. Knox, J. B. Cross, 
 V. Bakken, C. Adamo, J. Jaramillo, R. Gomperts, R. E. Stratmann, 
 O. Yazyev, A. J. Austin, R. Cammi, C. Pomelli, J. W. Ochterski, 
 R. L. Martin, K. Morokuma, V. G. Zakrzewski, G. A. Voth, 
 P. Salvador, J. J. Dannenberg, S. Dapprich, A. D. Daniels, 
 O. Farkas, J. B. Foresman, J. V. Ortiz, J. Cioslowski, 
 and D. J. Fox, Gaussian, Inc., Wallingford CT, 2009.
 
 ******************************************
 Gaussian 09:  IA32W-G09RevA.02 11-Jun-2009
                08-Feb-2021 
 ******************************************
 %chk=D:\Documents\rayGit\FQ\quimicaComputacional\proyecto\decompositionHydrogenP
 eroxide\descompositionByRadicals\gasPhase\step4\ts\tsM062X.chk
 %mem=1500MB
 %nprocshared=4
 Will use up to    4 processors via shared memory.
 ----------------------------------------------------------------------
 # opt=(readfc,ts,noeigen,maxcycles=100) geom=check guess=check freq=no
 raman 6-31+g(d,p) m062x
 ----------------------------------------------------------------------
 1/5=1,6=100,10=3,11=1,14=-1,18=20,26=3,29=2,38=1/1,3;
 2/9=110,12=2,40=1/2;
 3/5=1,6=6,7=111,11=2,14=-4,16=1,25=1,30=1,71=1,74=-55,116=-2/1,2,3;
 4/5=1/1;
 5/5=2,38=6/2;
 6/7=2,8=2,9=2,10=2,28=1/1;
 7//1,2,3,16;
 1/5=1,6=100,11=1,14=-1,18=20/3(2);
 2/9=110/2;
 99//99;
 2/9=110/2;
 3/5=1,6=6,7=111,11=2,14=-2,16=1,25=1,30=1,71=1,74=-55/1,2,3;
 4/5=5,16=3/1;
 5/5=2,38=5/2;
 7//1,2,3,16;
 1/5=1,6=100,11=1,14=-1,18=20/3(-5);
 2/9=110/2;
 6/7=2,8=2,9=2,10=2,19=2,28=1/1;
 99/9=1/99;
 ---
 ts2
 ---
 Redundant internal coordinates taken from checkpoint file:
 D:\Documents\rayGit\FQ\quimicaComputacional\proyecto\decompositionHydrogenPeroxide\descompositionByRadicals\gasPhase\step4\ts\tsM062X.chk
 Charge =  0 Multiplicity = 1
 O,0,-1.2110803981,-0.5995447984,-0.0206952211
 O,0,-1.1927360375,0.5951163292,0.0255839573
 H,0,2.0609898091,0.8761181579,-0.1521773789
 O,0,1.8157515411,-0.0432599595,-0.0088111585
 H,0,2.6435293467,-0.4946107287,0.183556757
 Recover connectivity data from disk.

 GradGradGradGradGradGradGradGradGradGradGradGradGradGradGradGradGradGrad
 Berny optimization.
 Initialization pass.
 Force constant matrix read from checkpoint file:
 D:\Documents\rayGit\FQ\quimicaComputacional\proyecto\decompositionHydrogenPeroxi
 de\descompositionByRadicals\gasPhase\step4\ts\tsM062X.chk
                           ----------------------------
                           !    Initial Parameters    !
                           ! (Angstroms and Degrees)  !
 --------------------------                            --------------------------
 ! Name  Definition              Value          Derivative Info.                !
 --------------------------------------------------------------------------------
 ! R1    R(1,2)                  1.1957         D2E/DX2 =    0.786              !
 ! R2    R(2,3)                  3.2707         D2E/DX2 =    0.0795             !
 ! R3    R(3,4)                  0.9623         D2E/DX2 =    0.467              !
 ! R4    R(4,5)                  0.9623         D2E/DX2 =    0.5796             !
 ! A1    A(1,2,3)               95.6816         D2E/DX2 =    0.068              !
 ! A2    L(3,4,5,-3,-1)        103.6662         D2E/DX2 =    0.1028             !
 ! A3    L(3,4,5,-1,-2)        194.2207         D2E/DX2 =    0.0064             !
 ! A4    L(2,3,4,1,-1)          70.2841         D2E/DX2 =    0.2334             !
 ! A5    L(2,3,4,1,-2)         192.7702         D2E/DX2 =    0.0666             !
 --------------------------------------------------------------------------------
 Trust Radius=3.00D-01 FncErr=1.00D-07 GrdErr=1.00D-06
 Number of steps in this run= 100 maximum allowed number of steps= 100.
 Search for a saddle point of order  1.
 GradGradGradGradGradGradGradGradGradGradGradGradGradGradGradGradGradGrad

                          Input orientation:                          
 ---------------------------------------------------------------------
 Center     Atomic      Atomic             Coordinates (Angstroms)
 Number     Number       Type             X           Y           Z
 ---------------------------------------------------------------------
      1          8           0       -1.211080   -0.599545   -0.020695
      2          8           0       -1.192736    0.595116    0.025584
      3          1           0        2.060990    0.876118   -0.152177
      4          8           0        1.815752   -0.043260   -0.008811
      5          1           0        2.643529   -0.494611    0.183557
 ---------------------------------------------------------------------
                    Distance matrix (angstroms):
                    1          2          3          4          5
     1  O    0.000000
     2  O    1.195698   0.000000
     3  H    3.591840   3.270672   0.000000
     4  O    3.077549   3.075663   0.962264   0.000000
     5  H    3.861444   3.991164   1.526751   0.962257   0.000000
 Stoichiometry    H2O3
 Framework group  C1[X(H2O3)]
 Deg. of freedom     9
 Full point group                 C1      NOp   1
 Largest Abelian subgroup         C1      NOp   1
 Largest concise Abelian subgroup C1      NOp   1
                         Standard orientation:                         
 ---------------------------------------------------------------------
 Center     Atomic      Atomic             Coordinates (Angstroms)
 Number     Number       Type             X           Y           Z
 ---------------------------------------------------------------------
      1          8           0       -1.211080   -0.599545   -0.020695
      2          8           0       -1.192736    0.595116    0.025584
      3          1           0        2.060990    0.876118   -0.152177
      4          8           0        1.815752   -0.043260   -0.008811
      5          1           0        2.643529   -0.494611    0.183557
 ---------------------------------------------------------------------
 Rotational constants (GHZ):     40.3201667      4.5980084      4.1321711
 Standard basis: 6-31+G(d,p) (6D, 7F)
 There are    67 symmetry adapted basis functions of A   symmetry.
 Integral buffers will be    262144 words long.
 Raffenetti 2 integral format.
 Two-electron integral symmetry is turned on.
    67 basis functions,   110 primitive gaussians,    67 cartesian basis functions
    13 alpha electrons       13 beta electrons
       nuclear repulsion energy        64.1158825901 Hartrees.
 NAtoms=    5 NActive=    5 NUniq=    5 SFac= 7.50D-01 NAtFMM=   80 NAOKFM=F Big=F
 One-electron integrals computed using PRISM.
 NBasis=    67 RedAO= T  NBF=    67
 NBsUse=    67 1.00D-06 NBFU=    67
 Initial guess read from the checkpoint file:  D:\Documents\rayGit\FQ\quimicaComp
 utacional\proyecto\decompositionHydrogenPeroxide\descompositionByRadicals\gasPha
 se\step4\ts\tsM062X.chk
 B after Tr=     0.000000    0.000000    0.000000
         Rot=    1.000000    0.000000    0.000000    0.000000 Ang=   0.00 deg.
 Initial guess orbital symmetries:
       Occupied  (A) (A) (A) (A) (A) (A) (A) (A) (A) (A) (A) (A)
                 (A)
       Virtual   (A) (A) (A) (A) (A) (A) (A) (A) (A) (A) (A) (A)
                 (A) (A) (A) (A) (A) (A) (A) (A) (A) (A) (A) (A)
                 (A) (A) (A) (A) (A) (A) (A) (A) (A) (A) (A) (A)
                 (A) (A) (A) (A) (A) (A) (A) (A) (A) (A) (A) (A)
                 (A) (A) (A) (A) (A) (A)
 Requested convergence on RMS density matrix=1.00D-08 within 128 cycles.
 Requested convergence on MAX density matrix=1.00D-06.
 Requested convergence on             energy=1.00D-06.
 No special actions if energy rises.
 Keep R1 ints in memory in canonical form, NReq=3551380.
 SCF Done:  E(RM062X) =  -226.600615449     A.U. after    1 cycles
             Convg  =    0.7913D-09             -V/T =  2.0081

 **********************************************************************

            Population analysis using the SCF density.

 **********************************************************************

 Orbital symmetries:
       Occupied  (A) (A) (A) (A) (A) (A) (A) (A) (A) (A) (A) (A)
                 (A)
       Virtual   (A) (A) (A) (A) (A) (A) (A) (A) (A) (A) (A) (A)
                 (A) (A) (A) (A) (A) (A) (A) (A) (A) (A) (A) (A)
                 (A) (A) (A) (A) (A) (A) (A) (A) (A) (A) (A) (A)
                 (A) (A) (A) (A) (A) (A) (A) (A) (A) (A) (A) (A)
                 (A) (A) (A) (A) (A) (A)
 The electronic state is 1-A.
 Alpha  occ. eigenvalues --  -19.79575 -19.79505 -19.64931  -1.41776  -1.13424
 Alpha  occ. eigenvalues --   -0.89840  -0.61089  -0.60892  -0.60407  -0.58562
 Alpha  occ. eigenvalues --   -0.46799  -0.39582  -0.32244
 Alpha virt. eigenvalues --   -0.10129   0.06340   0.10567   0.12179   0.14915
 Alpha virt. eigenvalues --    0.16935   0.19392   0.20542   0.23092   0.23655
 Alpha virt. eigenvalues --    0.24221   0.26375   0.30163   0.33869   0.36455
 Alpha virt. eigenvalues --    0.39089   1.00172   1.06170   1.08180   1.13795
 Alpha virt. eigenvalues --    1.14550   1.15519   1.17132   1.20119   1.20735
 Alpha virt. eigenvalues --    1.20942   1.24544   1.29670   1.37502   1.56561
 Alpha virt. eigenvalues --    1.57239   1.58810   1.59636   1.60438   1.66601
 Alpha virt. eigenvalues --    1.69526   1.69978   2.00495   2.00596   2.29225
 Alpha virt. eigenvalues --    2.29727   2.58440   2.59020   2.64415   2.67051
 Alpha virt. eigenvalues --    2.67646   2.68928   2.99160   3.05948   3.38308
 Alpha virt. eigenvalues --    3.55472   3.73203   4.04242   4.11990
          Condensed to atoms (all electrons):
              1          2          3          4          5
     1  O    7.682650   0.316386   0.004562  -0.041954   0.001363
     2  O    0.316386   7.684158  -0.003709   0.024149  -0.000069
     3  H    0.004562  -0.003709   0.366929   0.290886  -0.023866
     4  O   -0.041954   0.024149   0.290886   8.201880   0.284473
     5  H    0.001363  -0.000069  -0.023866   0.284473   0.359942
 Mulliken atomic charges:
              1
     1  O    0.036993
     2  O   -0.020915
     3  H    0.365199
     4  O   -0.759435
     5  H    0.378157
 Sum of Mulliken atomic charges =   0.00000
 Mulliken charges with hydrogens summed into heavy atoms:
              1
     1  O    0.036993
     2  O   -0.020915
     4  O   -0.016078
 Sum of Mulliken charges with hydrogens summed into heavy atoms =   0.00000
 Electronic spatial extent (au):  <R**2>=            272.4907
 Charge=              0.0000 electrons
 Dipole moment (field-independent basis, Debye):
    X=              2.0605    Y=              0.8121    Z=              0.0954  Tot=              2.2168
 Quadrupole moment (field-independent basis, Debye-Ang):
   XX=             -9.7704   YY=            -15.5140   ZZ=            -16.8717
   XY=              1.0812   XZ=              0.3893   YZ=             -0.7151
 Traceless Quadrupole moment (field-independent basis, Debye-Ang):
   XX=              4.2816   YY=             -1.4620   ZZ=             -2.8196
   XY=              1.0812   XZ=              0.3893   YZ=             -0.7151
 Octapole moment (field-independent basis, Debye-Ang**2):
  XXX=             28.7997  YYY=              1.4120  ZZZ=              0.0829  XYY=              4.6305
  XXY=              0.2419  XXZ=              2.1279  XZZ=             -3.0720  YZZ=              0.1489
  YYZ=             -0.1108  XYZ=             -1.3654
 Hexadecapole moment (field-independent basis, Debye-Ang**3):
 XXXX=           -179.2064 YYYY=            -35.4569 ZZZZ=            -13.8830 XXXY=             -3.8634
 XXXZ=              5.2493 YYYX=              2.7067 YYYZ=             -0.7425 ZZZX=              0.2623
 ZZZY=             -0.3839 XXYY=            -39.5222 XXZZ=            -44.9563 YYZZ=             -8.1652
 XXYZ=             -3.4296 YYXZ=             -0.2149 ZZXY=              0.2280
 N-N= 6.411588259013D+01 E-N=-6.631869736707D+02  KE= 2.247799747503D+02
 Calling FoFJK, ICntrl=      2127 FMM=F ISym2X=0 I1Cent= 0 IOpClX= 0 NMat=1 NMatS=1 NMatT=0.
 ***** Axes restored to original set *****
 -------------------------------------------------------------------
 Center     Atomic                   Forces (Hartrees/Bohr)
 Number     Number              X              Y              Z
 -------------------------------------------------------------------
      1        8           0.000159647   -0.000106349    0.000171051
      2        8           0.000519647    0.000079771   -0.000204864
      3        1          -0.001642189    0.000548365   -0.000092484
      4        8           0.001670567    0.000840427    0.000076030
      5        1          -0.000707673   -0.001362214    0.000050266
 -------------------------------------------------------------------
 Cartesian Forces:  Max     0.001670567 RMS     0.000785379

 GradGradGradGradGradGradGradGradGradGradGradGradGradGradGradGradGradGrad
 Berny optimization.
 Internal  Forces:  Max     0.002700634 RMS     0.000975637
 Search for a saddle point.
 Step number   1 out of a maximum of  100
 All quantities printed in internal units (Hartrees-Bohrs-Radians)
 Swaping is turned off.
 Second derivative matrix not updated -- first step.
 The second derivative matrix:
                          R1        R2        R3        R4        A1
           R1           0.78599
           R2          -0.01306   0.07947
           R3          -0.00860   0.00147   0.46704
           R4          -0.00262   0.00457   0.00208   0.57955
           A1          -0.00061   0.04037  -0.00338   0.00116   0.06801
           A2          -0.00081   0.00218   0.02148   0.02891  -0.00391
           A3          -0.00427   0.02064   0.00168   0.00264   0.00839
           A4          -0.02454   0.13720   0.00197   0.00761   0.06237
           A5          -0.01356   0.07114   0.00268   0.00744   0.03317
                          A2        A3        A4        A5
           A2           0.10278
           A3           0.00623   0.00639
           A4           0.00277   0.03553   0.23337
           A5           0.00034   0.01986   0.12330   0.06663
     Eigenvalues ---   -0.00135  -0.00001   0.00242   0.04791   0.10049
     Eigenvalues ---    0.40090   0.46803   0.58206   0.78877
 Eigenvectors required to have negative eigenvalues:
                          R2        A4        A5        A3        A1
   1                    0.76525  -0.55884   0.28246  -0.13610  -0.06127
                          A2        R3        R4        R1
   1                    0.00465  -0.00183  -0.00180  -0.00067
 RFO step:  Lambda0=3.391587131D-06 Lambda=-3.61295329D-04.
 Linear search not attempted -- option 19 set.
 Maximum step size (   0.300) exceeded in Quadratic search.
    -- Step size scaled by   0.344
 Iteration  1 RMS(Cart)=  0.05632581 RMS(Int)=  0.01474740
 Iteration  2 RMS(Cart)=  0.00996035 RMS(Int)=  0.00011698
 Iteration  3 RMS(Cart)=  0.00011191 RMS(Int)=  0.00000000
 Iteration  4 RMS(Cart)=  0.00000000 RMS(Int)=  0.00000000
 Variable       Old X    -DE/DX   Delta X   Delta X   Delta X     New X
                                 (Linear)    (Quad)   (Total)
    R1        2.25954   0.00009   0.00000   0.00010   0.00010   2.25964
    R2        6.18067  -0.00067   0.00000  -0.07990  -0.07990   6.10077
    R3        1.81842   0.00028   0.00000  -0.00073  -0.00073   1.81769
    R4        1.81840   0.00004   0.00000  -0.00153  -0.00153   1.81688
    A1        1.66996  -0.00034   0.00000   0.00124   0.00124   1.67120
    A2        1.80932   0.00270   0.00000   0.02538   0.02538   1.83470
    A3        3.38979  -0.00008   0.00000  -0.24083  -0.24083   3.14896
    A4        1.22669  -0.00078   0.00000  -0.00156  -0.00156   1.22513
    A5        3.36447  -0.00012   0.00000   0.15800   0.15800   3.52248
         Item               Value     Threshold  Converged?
 Maximum Force            0.002701     0.000450     NO 
 RMS     Force            0.000976     0.000300     NO 
 Maximum Displacement     0.098699     0.001800     NO 
 RMS     Displacement     0.058639     0.001200     NO 
 Predicted change in Energy=-1.180942D-04
 GradGradGradGradGradGradGradGradGradGradGradGradGradGradGradGradGradGrad

                          Input orientation:                          
 ---------------------------------------------------------------------
 Center     Atomic      Atomic             Coordinates (Angstroms)
 Number     Number       Type             X           Y           Z
 ---------------------------------------------------------------------
      1          8           0       -1.182289   -0.600878   -0.043632
      2          8           0       -1.161181    0.591519    0.043314
      3          1           0        2.046361    0.876055   -0.187362
      4          8           0        1.796796   -0.023761    0.043418
      5          1           0        2.616768   -0.509116    0.171718
 ---------------------------------------------------------------------
                    Distance matrix (angstroms):
                    1          2          3          4          5
     1  O    0.000000
     2  O    1.195749   0.000000
     3  H    3.553332   3.228389   0.000000
     4  O    3.035719   3.021291   0.961879   0.000000
     5  H    3.806262   3.937103   1.540455   0.961449   0.000000
 Stoichiometry    H2O3
 Framework group  C1[X(H2O3)]
 Deg. of freedom     9
 Full point group                 C1      NOp   1
 Largest Abelian subgroup         C1      NOp   1
 Largest concise Abelian subgroup C1      NOp   1
                         Standard orientation:                         
 ---------------------------------------------------------------------
 Center     Atomic      Atomic             Coordinates (Angstroms)
 Number     Number       Type             X           Y           Z
 ---------------------------------------------------------------------
      1          8           0        1.197570   -0.598534    0.028572
      2          8           0        1.168385    0.595369   -0.031106
      3          1           0       -2.037816    0.854810    0.243593
      4          8           0       -1.785697   -0.038011   -0.010412
      5          1           0       -2.604252   -0.525402   -0.140031
 ---------------------------------------------------------------------
 Rotational constants (GHZ):     40.2916677      4.7462625      4.2534492
 Standard basis: 6-31+G(d,p) (6D, 7F)
 There are    67 symmetry adapted basis functions of A   symmetry.
 Integral buffers will be    262144 words long.
 Raffenetti 2 integral format.
 Two-electron integral symmetry is turned on.
    67 basis functions,   110 primitive gaussians,    67 cartesian basis functions
    13 alpha electrons       13 beta electrons
       nuclear repulsion energy        64.5270222736 Hartrees.
 NAtoms=    5 NActive=    5 NUniq=    5 SFac= 7.50D-01 NAtFMM=   80 NAOKFM=F Big=F
 One-electron integrals computed using PRISM.
 NBasis=    67 RedAO= T  NBF=    67
 NBsUse=    67 1.00D-06 NBFU=    67
 Initial guess read from the read-write file.
 B after Tr=     0.000000    0.000000    0.000000
         Rot=    1.000000    0.000000    0.000000    0.000000 Ang=   0.00 deg.
 Initial guess orbital symmetries:
       Occupied  (A) (A) (A) (A) (A) (A) (A) (A) (A) (A) (A) (A)
                 (A)
       Virtual   (A) (A) (A) (A) (A) (A) (A) (A) (A) (A) (A) (A)
                 (A) (A) (A) (A) (A) (A) (A) (A) (A) (A) (A) (A)
                 (A) (A) (A) (A) (A) (A) (A) (A) (A) (A) (A) (A)
                 (A) (A) (A) (A) (A) (A) (A) (A) (A) (A) (A) (A)
                 (A) (A) (A) (A) (A) (A)
 Harris functional with IExCor= 1009 diagonalized for initial guess.
 ExpMin= 8.45D-02 ExpMax= 5.48D+03 ExpMxC= 8.25D+02 IAcc=2 IRadAn=         0 AccDes= 0.00D+00
 HarFok:  IExCor= 1009 AccDes= 0.00D+00 IRadAn=         0 IDoV= 1
 ScaDFX=  1.000000  1.000000  1.000000  1.000000
 FoFCou: FMM=F IPFlag=           0 FMFlag=      100000 FMFlg1=           0
         NFxFlg=           0 DoJE=T BraDBF=F KetDBF=T FulRan=T
         Omega=  0.000000  0.000000  1.000000  0.000000  0.000000 ICntrl=     500 IOpCl=  0
         NMat0=    1 NMatS0=    1 NMatT0=    0 NMatD0=    1 NMtDS0=    0 NMtDT0=    0
         I1Cent=           4 NGrid=           0.
 Petite list used in FoFCou.
 Requested convergence on RMS density matrix=1.00D-08 within 128 cycles.
 Requested convergence on MAX density matrix=1.00D-06.
 Requested convergence on             energy=1.00D-06.
 No special actions if energy rises.
 Keep R1 ints in memory in canonical form, NReq=3551380.
 Integral accuracy reduced to 1.0D-05 until final iterations.
 Initial convergence to 1.0D-05 achieved.  Increase integral accuracy.
 SCF Done:  E(RM062X) =  -226.600642319     A.U. after   52 cycles
             Convg  =    0.4521D-08             -V/T =  2.0081
 Calling FoFJK, ICntrl=      2127 FMM=F ISym2X=0 I1Cent= 0 IOpClX= 0 NMat=1 NMatS=1 NMatT=0.
 ***** Axes restored to original set *****
 -------------------------------------------------------------------
 Center     Atomic                   Forces (Hartrees/Bohr)
 Number     Number              X              Y              Z
 -------------------------------------------------------------------
      1        8           0.000109817    0.000006158    0.000275693
      2        8           0.000158100   -0.000011784   -0.000297652
      3        1           0.000339439   -0.000155687    0.000323543
      4        8          -0.001046024   -0.000122484   -0.000094795
      5        1           0.000438668    0.000283797   -0.000206789
 -------------------------------------------------------------------
 Cartesian Forces:  Max     0.001046024 RMS     0.000354011

 GradGradGradGradGradGradGradGradGradGradGradGradGradGradGradGradGradGrad
 Berny optimization.
 Internal  Forces:  Max     0.000908782 RMS     0.000402634
 Search for a saddle point.
 Step number   2 out of a maximum of  100
 All quantities printed in internal units (Hartrees-Bohrs-Radians)
 Swaping is turned off.
 Update second derivatives using D2CorX and points    1    2
 The second derivative matrix:
                          R1        R2        R3        R4        A1
           R1           0.78599
           R2          -0.01313   0.07970
           R3          -0.00860   0.00127   0.46704
           R4          -0.00262   0.00473   0.00207   0.57956
           A1          -0.00061   0.04038  -0.00338   0.00116   0.06801
           A2          -0.00073  -0.00026   0.02166   0.02871  -0.00389
           A3          -0.00448   0.02072   0.00110   0.00310   0.00844
           A4          -0.02454   0.13739   0.00196   0.00763   0.06237
           A5          -0.01341   0.07054   0.00309   0.00711   0.03315
                          A2        A3        A4        A5
           A2           0.10581
           A3          -0.00055   0.00491
           A4           0.00255   0.03605   0.23339
           A5           0.00531   0.01928   0.12293   0.06811
     Eigenvalues ---   -0.00141  -0.00068   0.00356   0.04794   0.10332
     Eigenvalues ---    0.40090   0.46807   0.58206   0.78878
 Eigenvectors required to have negative eigenvalues:
                          R2        A4        A3        A5        A1
   1                    0.77210  -0.56919   0.19889   0.19332  -0.05398
                          A2        R4        R3        R1
   1                    0.00600  -0.00243  -0.00211  -0.00051
 RFO step:  Lambda0=2.506056396D-05 Lambda=-6.94885100D-04.
 Linear search not attempted -- option 19 set.
 Maximum step size (   0.300) exceeded in Quadratic search.
    -- Step size scaled by   0.392
 Iteration  1 RMS(Cart)=  0.04567099 RMS(Int)=  0.02717373
 Iteration  2 RMS(Cart)=  0.01881029 RMS(Int)=  0.00042268
 Iteration  3 RMS(Cart)=  0.00041442 RMS(Int)=  0.00000003
 Iteration  4 RMS(Cart)=  0.00000004 RMS(Int)=  0.00000000
 Variable       Old X    -DE/DX   Delta X   Delta X   Delta X     New X
                                 (Linear)    (Quad)   (Total)
    R1        2.25964  -0.00002   0.00000  -0.00031  -0.00031   2.25933
    R2        6.10077  -0.00028   0.00000   0.10483   0.10483   6.20560
    R3        1.81769  -0.00005   0.00000   0.00042   0.00042   1.81811
    R4        1.81688   0.00021   0.00000   0.00113   0.00113   1.81800
    A1        1.67120  -0.00020   0.00000  -0.01532  -0.01532   1.65587
    A2        1.83470  -0.00091   0.00000  -0.00631  -0.00631   1.82839
    A3        3.14896  -0.00022   0.00000  -0.27670  -0.27670   2.87226
    A4        1.22513  -0.00030   0.00000  -0.03281  -0.03281   1.19232
    A5        3.52248  -0.00057   0.00000   0.03310   0.03310   3.55557
         Item               Value     Threshold  Converged?
 Maximum Force            0.000909     0.000450     NO 
 RMS     Force            0.000403     0.000300     NO 
 Maximum Displacement     0.105769     0.001800     NO 
 RMS     Displacement     0.061365     0.001200     NO 
 Predicted change in Energy=-6.154030D-05
 GradGradGradGradGradGradGradGradGradGradGradGradGradGradGradGradGradGrad

                          Input orientation:                          
 ---------------------------------------------------------------------
 Center     Atomic      Atomic             Coordinates (Angstroms)
 Number     Number       Type             X           Y           Z
 ---------------------------------------------------------------------
      1          8           0       -1.183579   -0.607662   -0.024506
      2          8           0       -1.184251    0.587310    0.013840
      3          1           0        2.081089    0.874654   -0.182986
      4          8           0        1.797117   -0.000138    0.099389
      5          1           0        2.606079   -0.520344    0.121720
 ---------------------------------------------------------------------
                    Distance matrix (angstroms):
                    1          2          3          4          5
     1  O    0.000000
     2  O    1.195587   0.000000
     3  H    3.588932   3.283862   0.000000
     4  O    3.044500   3.039896   0.962100   0.000000
     5  H    3.793483   3.950333   1.521341   0.962046   0.000000
 Stoichiometry    H2O3
 Framework group  C1[X(H2O3)]
 Deg. of freedom     9
 Full point group                 C1      NOp   1
 Largest Abelian subgroup         C1      NOp   1
 Largest concise Abelian subgroup C1      NOp   1
                         Standard orientation:                         
 ---------------------------------------------------------------------
 Center     Atomic      Atomic             Coordinates (Angstroms)
 Number     Number       Type             X           Y           Z
 ---------------------------------------------------------------------
      1          8           0        1.196600   -0.600071    0.025559
      2          8           0        1.181594    0.594412   -0.023578
      3          1           0       -2.081196    0.844041    0.251445
      4          8           0       -1.793507   -0.029847   -0.029966
      5          1           0       -2.596299   -0.559990   -0.027561
 ---------------------------------------------------------------------
 Rotational constants (GHZ):     40.2638865      4.7008984      4.2158238
 Standard basis: 6-31+G(d,p) (6D, 7F)
 There are    67 symmetry adapted basis functions of A   symmetry.
 Integral buffers will be    262144 words long.
 Raffenetti 2 integral format.
 Two-electron integral symmetry is turned on.
    67 basis functions,   110 primitive gaussians,    67 cartesian basis functions
    13 alpha electrons       13 beta electrons
       nuclear repulsion energy        64.3968314389 Hartrees.
 NAtoms=    5 NActive=    5 NUniq=    5 SFac= 7.50D-01 NAtFMM=   80 NAOKFM=F Big=F
 One-electron integrals computed using PRISM.
 NBasis=    67 RedAO= T  NBF=    67
 NBsUse=    67 1.00D-06 NBFU=    67
 Initial guess read from the read-write file.
 B after Tr=     0.000000    0.000000    0.000000
         Rot=    1.000000    0.000000    0.000000    0.000000 Ang=   0.00 deg.
 Initial guess orbital symmetries:
       Occupied  (A) (A) (A) (A) (A) (A) (A) (A) (A) (A) (A) (A)
                 (A)
       Virtual   (A) (A) (A) (A) (A) (A) (A) (A) (A) (A) (A) (A)
                 (A) (A) (A) (A) (A) (A) (A) (A) (A) (A) (A) (A)
                 (A) (A) (A) (A) (A) (A) (A) (A) (A) (A) (A) (A)
                 (A) (A) (A) (A) (A) (A) (A) (A) (A) (A) (A) (A)
                 (A) (A) (A) (A) (A) (A)
 Harris functional with IExCor= 1009 diagonalized for initial guess.
 ExpMin= 8.45D-02 ExpMax= 5.48D+03 ExpMxC= 8.25D+02 IAcc=2 IRadAn=         0 AccDes= 0.00D+00
 HarFok:  IExCor= 1009 AccDes= 0.00D+00 IRadAn=         0 IDoV= 1
 ScaDFX=  1.000000  1.000000  1.000000  1.000000
 FoFCou: FMM=F IPFlag=           0 FMFlag=      100000 FMFlg1=           0
         NFxFlg=           0 DoJE=T BraDBF=F KetDBF=T FulRan=T
         Omega=  0.000000  0.000000  1.000000  0.000000  0.000000 ICntrl=     500 IOpCl=  0
         NMat0=    1 NMatS0=    1 NMatT0=    0 NMatD0=    1 NMtDS0=    0 NMtDT0=    0
         I1Cent=           4 NGrid=           0.
 Petite list used in FoFCou.
 Requested convergence on RMS density matrix=1.00D-08 within 128 cycles.
 Requested convergence on MAX density matrix=1.00D-06.
 Requested convergence on             energy=1.00D-06.
 No special actions if energy rises.
 Keep R1 ints in memory in canonical form, NReq=3551380.
 Integral accuracy reduced to 1.0D-05 until final iterations.
 Initial convergence to 1.0D-05 achieved.  Increase integral accuracy.
 SCF Done:  E(RM062X) =  -226.600556081     A.U. after   24 cycles
             Convg  =    0.2451D-08             -V/T =  2.0081
 Calling FoFJK, ICntrl=      2127 FMM=F ISym2X=0 I1Cent= 0 IOpClX= 0 NMat=1 NMatS=1 NMatT=0.
 ***** Axes restored to original set *****
 -------------------------------------------------------------------
 Center     Atomic                   Forces (Hartrees/Bohr)
 Number     Number              X              Y              Z
 -------------------------------------------------------------------
      1        8           0.000013446   -0.000235137    0.000228442
      2        8           0.000406074    0.000194527   -0.000208336
      3        1          -0.002163412    0.001415345    0.000229528
      4        8           0.002427605    0.000761156   -0.000947500
      5        1          -0.000683713   -0.002135891    0.000697866
 -------------------------------------------------------------------
 Cartesian Forces:  Max     0.002427605 RMS     0.001154034

 GradGradGradGradGradGradGradGradGradGradGradGradGradGradGradGradGradGrad
 Berny optimization.
 Internal  Forces:  Max     0.003991212 RMS     0.001399141
 Search for a saddle point.
 Step number   3 out of a maximum of  100
 All quantities printed in internal units (Hartrees-Bohrs-Radians)
 Swaping is turned off.
 Update second derivatives using D2CorX and points    1    2    3
 The second derivative matrix:
                          R1        R2        R3        R4        A1
           R1           0.78600
           R2          -0.01330   0.07994
           R3          -0.00858   0.00080   0.46709
           R4          -0.00261   0.00441   0.00210   0.57958
           A1          -0.00058   0.04029  -0.00328   0.00122   0.06804
           A2          -0.00061  -0.00332   0.02197   0.02890  -0.00326
           A3          -0.00367   0.01979   0.00332   0.00464   0.00882
           A4          -0.02448   0.13757   0.00213   0.00775   0.06235
           A5          -0.01360   0.07057   0.00256   0.00674   0.03310
                          A2        A3        A4        A5
           A2           0.10775
           A3           0.01410   0.00785
           A4           0.00371   0.03503   0.23319
           A5           0.00180   0.01962   0.12326   0.06776
     Eigenvalues ---   -0.00176   0.00049   0.00361   0.04801   0.10685
     Eigenvalues ---    0.40090   0.46818   0.58214   0.78878
 Eigenvectors required to have negative eigenvalues:
                          R2        A4        A5        A3        A1
   1                    0.75887  -0.56528   0.29036  -0.12105  -0.05310
                          A2        R4        R3        R1
   1                    0.05268  -0.00312  -0.00228  -0.00034
 RFO step:  Lambda0=6.539901308D-07 Lambda=-1.87795333D-04.
 Linear search not attempted -- option 19 set.
 Iteration  1 RMS(Cart)=  0.03680673 RMS(Int)=  0.00888440
 Iteration  2 RMS(Cart)=  0.00656208 RMS(Int)=  0.00004727
 Iteration  3 RMS(Cart)=  0.00004564 RMS(Int)=  0.00000000
 Iteration  4 RMS(Cart)=  0.00000000 RMS(Int)=  0.00000000
 Variable       Old X    -DE/DX   Delta X   Delta X   Delta X     New X
                                 (Linear)    (Quad)   (Total)
    R1        2.25933   0.00024   0.00000   0.00012   0.00012   2.25945
    R2        6.20560  -0.00042   0.00000   0.02068   0.02068   6.22628
    R3        1.81811   0.00066   0.00000  -0.00024  -0.00024   1.81786
    R4        1.81800   0.00060   0.00000  -0.00049  -0.00049   1.81751
    A1        1.65587  -0.00001   0.00000   0.00420   0.00420   1.66008
    A2        1.82839   0.00399   0.00000   0.01052   0.01052   1.83891
    A3        2.87226   0.00059   0.00000   0.22193   0.22193   3.09419
    A4        1.19232  -0.00050   0.00000  -0.01652  -0.01652   1.17580
    A5        3.55557  -0.00023   0.00000  -0.06129  -0.06129   3.49429
         Item               Value     Threshold  Converged?
 Maximum Force            0.003991     0.000450     NO 
 RMS     Force            0.001399     0.000300     NO 
 Maximum Displacement     0.096034     0.001800     NO 
 RMS     Displacement     0.041973     0.001200     NO 
 Predicted change in Energy=-9.859173D-05
 GradGradGradGradGradGradGradGradGradGradGradGradGradGradGradGradGradGrad

                          Input orientation:                          
 ---------------------------------------------------------------------
 Center     Atomic      Atomic             Coordinates (Angstroms)
 Number     Number       Type             X           Y           Z
 ---------------------------------------------------------------------
      1          8           0       -1.184589   -0.609938   -0.027683
      2          8           0       -1.184539    0.584425    0.027806
      3          1           0        2.089816    0.887919   -0.177669
      4          8           0        1.799252   -0.000774    0.048570
      5          1           0        2.596515   -0.527813    0.156434
 ---------------------------------------------------------------------
                    Distance matrix (angstroms):
                    1          2          3          4          5
     1  O    0.000000
     2  O    1.195651   0.000000
     3  H    3.603860   3.294804   0.000000
     4  O    3.046342   3.040707   0.961971   0.000000
     5  H    3.786475   3.943348   1.540346   0.961787   0.000000
 Stoichiometry    H2O3
 Framework group  C1[X(H2O3)]
 Deg. of freedom     9
 Full point group                 C1      NOp   1
 Largest Abelian subgroup         C1      NOp   1
 Largest concise Abelian subgroup C1      NOp   1
                         Standard orientation:                         
 ---------------------------------------------------------------------
 Center     Atomic      Atomic             Coordinates (Angstroms)
 Number     Number       Type             X           Y           Z
 ---------------------------------------------------------------------
      1          8           0        1.198159   -0.599544    0.025988
      2          8           0        1.181213    0.594808   -0.027082
      3          1           0       -2.094183    0.853367    0.219216
      4          8           0       -1.794388   -0.030872   -0.012371
      5          1           0       -2.585692   -0.568502   -0.111498
 ---------------------------------------------------------------------
 Rotational constants (GHZ):     40.2183495      4.6972926      4.2116842
 Standard basis: 6-31+G(d,p) (6D, 7F)
 There are    67 symmetry adapted basis functions of A   symmetry.
 Integral buffers will be    262144 words long.
 Raffenetti 2 integral format.
 Two-electron integral symmetry is turned on.
    67 basis functions,   110 primitive gaussians,    67 cartesian basis functions
    13 alpha electrons       13 beta electrons
       nuclear repulsion energy        64.3778986624 Hartrees.
 NAtoms=    5 NActive=    5 NUniq=    5 SFac= 7.50D-01 NAtFMM=   80 NAOKFM=F Big=F
 One-electron integrals computed using PRISM.
 NBasis=    67 RedAO= T  NBF=    67
 NBsUse=    67 1.00D-06 NBFU=    67
 Initial guess read from the read-write file.
 B after Tr=     0.000000    0.000000    0.000000
         Rot=    1.000000    0.000000    0.000000    0.000000 Ang=   0.00 deg.
 Initial guess orbital symmetries:
       Occupied  (A) (A) (A) (A) (A) (A) (A) (A) (A) (A) (A) (A)
                 (A)
       Virtual   (A) (A) (A) (A) (A) (A) (A) (A) (A) (A) (A) (A)
                 (A) (A) (A) (A) (A) (A) (A) (A) (A) (A) (A) (A)
                 (A) (A) (A) (A) (A) (A) (A) (A) (A) (A) (A) (A)
                 (A) (A) (A) (A) (A) (A) (A) (A) (A) (A) (A) (A)
                 (A) (A) (A) (A) (A) (A)
 Harris functional with IExCor= 1009 diagonalized for initial guess.
 ExpMin= 8.45D-02 ExpMax= 5.48D+03 ExpMxC= 8.25D+02 IAcc=2 IRadAn=         0 AccDes= 0.00D+00
 HarFok:  IExCor= 1009 AccDes= 0.00D+00 IRadAn=         0 IDoV= 1
 ScaDFX=  1.000000  1.000000  1.000000  1.000000
 FoFCou: FMM=F IPFlag=           0 FMFlag=      100000 FMFlg1=           0
         NFxFlg=           0 DoJE=T BraDBF=F KetDBF=T FulRan=T
         Omega=  0.000000  0.000000  1.000000  0.000000  0.000000 ICntrl=     500 IOpCl=  0
         NMat0=    1 NMatS0=    1 NMatT0=    0 NMatD0=    1 NMtDS0=    0 NMtDT0=    0
         I1Cent=           4 NGrid=           0.
 Petite list used in FoFCou.
 Requested convergence on RMS density matrix=1.00D-08 within 128 cycles.
 Requested convergence on MAX density matrix=1.00D-06.
 Requested convergence on             energy=1.00D-06.
 No special actions if energy rises.
 Keep R1 ints in memory in canonical form, NReq=3551380.
 Integral accuracy reduced to 1.0D-05 until final iterations.
 Initial convergence to 1.0D-05 achieved.  Increase integral accuracy.
 SCF Done:  E(RM062X) =  -226.600636362     A.U. after   25 cycles
             Convg  =    0.1247D-09             -V/T =  2.0081
 Calling FoFJK, ICntrl=      2127 FMM=F ISym2X=0 I1Cent= 0 IOpClX= 0 NMat=1 NMatS=1 NMatT=0.
 ***** Axes restored to original set *****
 -------------------------------------------------------------------
 Center     Atomic                   Forces (Hartrees/Bohr)
 Number     Number              X              Y              Z
 -------------------------------------------------------------------
      1        8           0.000077939   -0.000091517    0.000216741
      2        8           0.000359024    0.000070133   -0.000220502
      3        1           0.000259467   -0.000319339    0.000326967
      4        8          -0.000867612   -0.000161036   -0.000184050
      5        1           0.000171182    0.000501760   -0.000139156
 -------------------------------------------------------------------
 Cartesian Forces:  Max     0.000867612 RMS     0.000329956

 GradGradGradGradGradGradGradGradGradGradGradGradGradGradGradGradGradGrad
 Berny optimization.
 Internal  Forces:  Max     0.000943881 RMS     0.000423986
 Search for a saddle point.
 Step number   4 out of a maximum of  100
 All quantities printed in internal units (Hartrees-Bohrs-Radians)
 Swaping is turned off.
 Update second derivatives using D2CorX and points    1    2    3    4
 The second derivative matrix:
                          R1        R2        R3        R4        A1
           R1           0.78602
           R2          -0.01396   0.08491
           R3          -0.00859   0.00160   0.46718
           R4          -0.00262   0.00516   0.00217   0.57963
           A1          -0.00055   0.04109  -0.00326   0.00123   0.06798
           A2          -0.00062   0.00123   0.02289   0.02958  -0.00294
           A3          -0.00393   0.02175   0.00398   0.00521   0.00931
           A4          -0.02435   0.13991   0.00167   0.00737   0.06183
           A5          -0.01331   0.07226   0.00279   0.00686   0.03281
                          A2        A3        A4        A5
           A2           0.11571
           A3           0.01799   0.00860
           A4           0.00129   0.03644   0.23078
           A5           0.00400   0.02076   0.12106   0.06674
     Eigenvalues ---   -0.00037  -0.00026   0.00358   0.04808   0.11517
     Eigenvalues ---    0.40173   0.46843   0.58237   0.78883
 Eigenvectors required to have negative eigenvalues:
                          R2        A4        A5        A3        A1
   1                    0.77820  -0.57525   0.17948   0.16372  -0.05747
                          A2        R3        R4        R1
   1                   -0.03418  -0.00180  -0.00134  -0.00023
 RFO step:  Lambda0=2.565347468D-05 Lambda=-3.34402378D-04.
 Linear search not attempted -- option 19 set.
 Maximum step size (   0.300) exceeded in Quadratic search.
    -- Step size scaled by   0.379
 Iteration  1 RMS(Cart)=  0.03847189 RMS(Int)=  0.02640253
 Iteration  2 RMS(Cart)=  0.01953484 RMS(Int)=  0.00053782
 Iteration  3 RMS(Cart)=  0.00051794 RMS(Int)=  0.00000012
 Iteration  4 RMS(Cart)=  0.00000011 RMS(Int)=  0.00000000
 Variable       Old X    -DE/DX   Delta X   Delta X   Delta X     New X
                                 (Linear)    (Quad)   (Total)
    R1        2.25945   0.00009   0.00000  -0.00006  -0.00006   2.25939
    R2        6.22628  -0.00044   0.00000   0.05508   0.05508   6.28136
    R3        1.81786  -0.00017   0.00000   0.00003   0.00003   1.81789
    R4        1.81751  -0.00015   0.00000   0.00055   0.00055   1.81806
    A1        1.66008  -0.00015   0.00000  -0.00368  -0.00368   1.65639
    A2        1.83891  -0.00094   0.00000  -0.04390  -0.04390   1.79501
    A3        3.09419  -0.00011   0.00000   0.27840   0.27840   3.37258
    A4        1.17580  -0.00051   0.00000  -0.03553  -0.03553   1.14026
    A5        3.49429  -0.00042   0.00000  -0.07911  -0.07911   3.41518
         Item               Value     Threshold  Converged?
 Maximum Force            0.000944     0.000450     NO 
 RMS     Force            0.000424     0.000300     NO 
 Maximum Displacement     0.121889     0.001800     NO 
 RMS     Displacement     0.054000     0.001200     NO 
 Predicted change in Energy=-4.874777D-05
 GradGradGradGradGradGradGradGradGradGradGradGradGradGradGradGradGradGrad

                          Input orientation:                          
 ---------------------------------------------------------------------
 Center     Atomic      Atomic             Coordinates (Angstroms)
 Number     Number       Type             X           Y           Z
 ---------------------------------------------------------------------
      1          8           0       -1.186968   -0.611801   -0.032763
      2          8           0       -1.189034    0.581163    0.046847
      3          1           0        2.113964    0.885990   -0.167461
      4          8           0        1.793773   -0.008399   -0.015931
      5          1           0        2.584718   -0.513134    0.196766
 ---------------------------------------------------------------------
                    Distance matrix (angstroms):
                    1          2          3          4          5
     1  O    0.000000
     2  O    1.195619   0.000000
     3  H    3.627351   3.323950   0.000000
     4  O    3.041249   3.041162   0.961985   0.000000
     5  H    3.779952   3.932069   1.520466   0.962077   0.000000
 Stoichiometry    H2O3
 Framework group  C1[X(H2O3)]
 Deg. of freedom     9
 Full point group                 C1      NOp   1
 Largest Abelian subgroup         C1      NOp   1
 Largest concise Abelian subgroup C1      NOp   1
                         Standard orientation:                         
 ---------------------------------------------------------------------
 Center     Atomic      Atomic             Coordinates (Angstroms)
 Number     Number       Type             X           Y           Z
 ---------------------------------------------------------------------
      1          8           0       -1.196540   -0.598774   -0.025542
      2          8           0       -1.182894    0.595462    0.030289
      3          1           0        2.124619    0.851892   -0.177662
      4          8           0        1.791944   -0.034946   -0.009554
      5          1           0        2.575308   -0.545833    0.216115
 ---------------------------------------------------------------------
 Rotational constants (GHZ):     40.2416779      4.6993566      4.2149341
 Standard basis: 6-31+G(d,p) (6D, 7F)
 There are    67 symmetry adapted basis functions of A   symmetry.
 Integral buffers will be    262144 words long.
 Raffenetti 2 integral format.
 Two-electron integral symmetry is turned on.
    67 basis functions,   110 primitive gaussians,    67 cartesian basis functions
    13 alpha electrons       13 beta electrons
       nuclear repulsion energy        64.3848578429 Hartrees.
 NAtoms=    5 NActive=    5 NUniq=    5 SFac= 7.50D-01 NAtFMM=   80 NAOKFM=F Big=F
 One-electron integrals computed using PRISM.
 NBasis=    67 RedAO= T  NBF=    67
 NBsUse=    67 1.00D-06 NBFU=    67
 Initial guess read from the read-write file.
 B after Tr=     0.000000    0.000000    0.000000
         Rot=    1.000000    0.000000    0.000000    0.000000 Ang=   0.00 deg.
 Initial guess orbital symmetries:
       Occupied  (A) (A) (A) (A) (A) (A) (A) (A) (A) (A) (A) (A)
                 (A)
       Virtual   (A) (A) (A) (A) (A) (A) (A) (A) (A) (A) (A) (A)
                 (A) (A) (A) (A) (A) (A) (A) (A) (A) (A) (A) (A)
                 (A) (A) (A) (A) (A) (A) (A) (A) (A) (A) (A) (A)
                 (A) (A) (A) (A) (A) (A) (A) (A) (A) (A) (A) (A)
                 (A) (A) (A) (A) (A) (A)
 Harris functional with IExCor= 1009 diagonalized for initial guess.
 ExpMin= 8.45D-02 ExpMax= 5.48D+03 ExpMxC= 8.25D+02 IAcc=2 IRadAn=         0 AccDes= 0.00D+00
 HarFok:  IExCor= 1009 AccDes= 0.00D+00 IRadAn=         0 IDoV= 1
 ScaDFX=  1.000000  1.000000  1.000000  1.000000
 FoFCou: FMM=F IPFlag=           0 FMFlag=      100000 FMFlg1=           0
         NFxFlg=           0 DoJE=T BraDBF=F KetDBF=T FulRan=T
         Omega=  0.000000  0.000000  1.000000  0.000000  0.000000 ICntrl=     500 IOpCl=  0
         NMat0=    1 NMatS0=    1 NMatT0=    0 NMatD0=    1 NMtDS0=    0 NMtDT0=    0
         I1Cent=           4 NGrid=           0.
 Petite list used in FoFCou.
 Requested convergence on RMS density matrix=1.00D-08 within 128 cycles.
 Requested convergence on MAX density matrix=1.00D-06.
 Requested convergence on             energy=1.00D-06.
 No special actions if energy rises.
 Keep R1 ints in memory in canonical form, NReq=3551380.
 Integral accuracy reduced to 1.0D-05 until final iterations.
 Initial convergence to 1.0D-05 achieved.  Increase integral accuracy.
 SCF Done:  E(RM062X) =  -226.600551144     A.U. after   30 cycles
             Convg  =    0.4916D-08             -V/T =  2.0081
 Calling FoFJK, ICntrl=      2127 FMM=F ISym2X=0 I1Cent= 0 IOpClX= 0 NMat=1 NMatS=1 NMatT=0.
 ***** Axes restored to original set *****
 -------------------------------------------------------------------
 Center     Atomic                   Forces (Hartrees/Bohr)
 Number     Number              X              Y              Z
 -------------------------------------------------------------------
      1        8           0.000065007   -0.000146884    0.000181552
      2        8           0.000332703    0.000126785   -0.000212434
      3        1          -0.002188795    0.001503660   -0.000427397
      4        8           0.002596382    0.000821120    0.000252438
      5        1          -0.000805297   -0.002304681    0.000205841
 -------------------------------------------------------------------
 Cartesian Forces:  Max     0.002596382 RMS     0.001181714

 GradGradGradGradGradGradGradGradGradGradGradGradGradGradGradGradGradGrad
 Berny optimization.
 Internal  Forces:  Max     0.004166217 RMS     0.001440738
 Search for a saddle point.
 Step number   5 out of a maximum of  100
 All quantities printed in internal units (Hartrees-Bohrs-Radians)
 Swaping is turned off.
 Update second derivatives using D2CorX and points    1    2    3    4    5
 The second derivative matrix:
                          R1        R2        R3        R4        A1
           R1           0.78602
           R2          -0.01413   0.08724
           R3          -0.00858  -0.00068   0.46726
           R4          -0.00262   0.00378   0.00221   0.57965
           A1          -0.00054   0.04244  -0.00305   0.00136   0.06766
           A2          -0.00055  -0.00553   0.02377   0.03015  -0.00242
           A3          -0.00407   0.02182   0.00144   0.00341   0.00915
           A4          -0.02425   0.14159   0.00303   0.00814   0.06025
           A5          -0.01329   0.07584   0.00348   0.00749   0.03353
                          A2        A3        A4        A5
           A2           0.12242
           A3           0.00542   0.00730
           A4           0.00414   0.03537   0.22587
           A5           0.01036   0.02110   0.12088   0.07070
     Eigenvalues ---   -0.00189   0.00083   0.00482   0.04807   0.12019
     Eigenvalues ---    0.40217   0.46862   0.58249   0.78883
 Eigenvectors required to have negative eigenvalues:
                          R2        A4        A5        A1        A2
   1                    0.87188  -0.46164  -0.12771  -0.07294   0.06176
                          A3        R3        R4        R1
   1                    0.03559   0.00147  -0.00081  -0.00053
 RFO step:  Lambda0=4.288759720D-08 Lambda=-1.92222067D-04.
 Linear search not attempted -- option 19 set.
 Iteration  1 RMS(Cart)=  0.04028083 RMS(Int)=  0.00233625
 Iteration  2 RMS(Cart)=  0.00243436 RMS(Int)=  0.00000194
 Iteration  3 RMS(Cart)=  0.00000253 RMS(Int)=  0.00000000
 Iteration  4 RMS(Cart)=  0.00000000 RMS(Int)=  0.00000000
 Variable       Old X    -DE/DX   Delta X   Delta X   Delta X     New X
                                 (Linear)    (Quad)   (Total)
    R1        2.25939   0.00011   0.00000   0.00007   0.00007   2.25946
    R2        6.28136  -0.00038   0.00000   0.00817   0.00817   6.28953
    R3        1.81789   0.00087   0.00000   0.00015   0.00015   1.81804
    R4        1.81806   0.00059   0.00000  -0.00048  -0.00048   1.81758
    A1        1.65639  -0.00010   0.00000  -0.00082  -0.00082   1.65557
    A2        1.79501   0.00417   0.00000   0.04025   0.04025   1.83525
    A3        3.37258  -0.00015   0.00000  -0.19261  -0.19261   3.17997
    A4        1.14026  -0.00017   0.00000   0.00857   0.00857   1.14884
    A5        3.41518  -0.00001   0.00000   0.02840   0.02840   3.44359
         Item               Value     Threshold  Converged?
 Maximum Force            0.004166     0.000450     NO 
 RMS     Force            0.001441     0.000300     NO 
 Maximum Displacement     0.078567     0.001800     NO 
 RMS     Displacement     0.040314     0.001200     NO 
 Predicted change in Energy=-9.990016D-05
 GradGradGradGradGradGradGradGradGradGradGradGradGradGradGradGradGradGrad

                          Input orientation:                          
 ---------------------------------------------------------------------
 Center     Atomic      Atomic             Coordinates (Angstroms)
 Number     Number       Type             X           Y           Z
 ---------------------------------------------------------------------
      1          8           0       -1.186896   -0.613846   -0.020078
      2          8           0       -1.195619    0.580903    0.025577
      3          1           0        2.112137    0.894524   -0.168869
      4          8           0        1.800978    0.005190    0.025645
      5          1           0        2.585854   -0.532953    0.165182
 ---------------------------------------------------------------------
                    Distance matrix (angstroms):
                    1          2          3          4          5
     1  O    0.000000
     2  O    1.195654   0.000000
     3  H    3.630556   3.328275   0.000000
     4  O    3.051669   3.051399   0.962066   0.000000
     5  H    3.778161   3.944578   1.540678   0.961820   0.000000
 Stoichiometry    H2O3
 Framework group  C1[X(H2O3)]
 Deg. of freedom     9
 Full point group                 C1      NOp   1
 Largest Abelian subgroup         C1      NOp   1
 Largest concise Abelian subgroup C1      NOp   1
                         Standard orientation:                         
 ---------------------------------------------------------------------
 Center     Atomic      Atomic             Coordinates (Angstroms)
 Number     Number       Type             X           Y           Z
 ---------------------------------------------------------------------
      1          8           0        1.198681   -0.599806    0.024304
      2          8           0        1.187780    0.594727   -0.026281
      3          1           0       -2.123295    0.855695    0.188419
      4          8           0       -1.799049   -0.029304   -0.004486
      5          1           0       -2.575999   -0.580632   -0.136713
 ---------------------------------------------------------------------
 Rotational constants (GHZ):     40.1861878      4.6713914      4.1898307
 Standard basis: 6-31+G(d,p) (6D, 7F)
 There are    67 symmetry adapted basis functions of A   symmetry.
 Integral buffers will be    262144 words long.
 Raffenetti 2 integral format.
 Two-electron integral symmetry is turned on.
    67 basis functions,   110 primitive gaussians,    67 cartesian basis functions
    13 alpha electrons       13 beta electrons
       nuclear repulsion energy        64.2993125353 Hartrees.
 NAtoms=    5 NActive=    5 NUniq=    5 SFac= 7.50D-01 NAtFMM=   80 NAOKFM=F Big=F
 One-electron integrals computed using PRISM.
 NBasis=    67 RedAO= T  NBF=    67
 NBsUse=    67 1.00D-06 NBFU=    67
 Initial guess read from the read-write file.
 B after Tr=     0.000000    0.000000    0.000000
         Rot=    1.000000    0.000000    0.000000    0.000000 Ang=   0.00 deg.
 Initial guess orbital symmetries:
       Occupied  (A) (A) (A) (A) (A) (A) (A) (A) (A) (A) (A) (A)
                 (A)
       Virtual   (A) (A) (A) (A) (A) (A) (A) (A) (A) (A) (A) (A)
                 (A) (A) (A) (A) (A) (A) (A) (A) (A) (A) (A) (A)
                 (A) (A) (A) (A) (A) (A) (A) (A) (A) (A) (A) (A)
                 (A) (A) (A) (A) (A) (A) (A) (A) (A) (A) (A) (A)
                 (A) (A) (A) (A) (A) (A)
 Harris functional with IExCor= 1009 diagonalized for initial guess.
 ExpMin= 8.45D-02 ExpMax= 5.48D+03 ExpMxC= 8.25D+02 IAcc=2 IRadAn=         0 AccDes= 0.00D+00
 HarFok:  IExCor= 1009 AccDes= 0.00D+00 IRadAn=         0 IDoV= 1
 ScaDFX=  1.000000  1.000000  1.000000  1.000000
 FoFCou: FMM=F IPFlag=           0 FMFlag=      100000 FMFlg1=           0
         NFxFlg=           0 DoJE=T BraDBF=F KetDBF=T FulRan=T
         Omega=  0.000000  0.000000  1.000000  0.000000  0.000000 ICntrl=     500 IOpCl=  0
         NMat0=    1 NMatS0=    1 NMatT0=    0 NMatD0=    1 NMtDS0=    0 NMtDT0=    0
         I1Cent=           4 NGrid=           0.
 Petite list used in FoFCou.
 Requested convergence on RMS density matrix=1.00D-08 within 128 cycles.
 Requested convergence on MAX density matrix=1.00D-06.
 Requested convergence on             energy=1.00D-06.
 No special actions if energy rises.
 Keep R1 ints in memory in canonical form, NReq=3551380.
 Integral accuracy reduced to 1.0D-05 until final iterations.
 Initial convergence to 1.0D-05 achieved.  Increase integral accuracy.
 SCF Done:  E(RM062X) =  -226.600632208     A.U. after   57 cycles
             Convg  =    0.7530D-08             -V/T =  2.0081
 Calling FoFJK, ICntrl=      2127 FMM=F ISym2X=0 I1Cent= 0 IOpClX= 0 NMat=1 NMatS=1 NMatT=0.
 ***** Axes restored to original set *****
 -------------------------------------------------------------------
 Center     Atomic                   Forces (Hartrees/Bohr)
 Number     Number              X              Y              Z
 -------------------------------------------------------------------
      1        8           0.000068651   -0.000060530    0.000187259
      2        8           0.000441401    0.000032901   -0.000197276
      3        1           0.000245849   -0.000438750    0.000310258
      4        8          -0.000919759   -0.000119572   -0.000054931
      5        1           0.000163858    0.000585952   -0.000245310
 -------------------------------------------------------------------
 Cartesian Forces:  Max     0.000919759 RMS     0.000357875

 GradGradGradGradGradGradGradGradGradGradGradGradGradGradGradGradGradGrad
 Berny optimization.
 Internal  Forces:  Max     0.001084763 RMS     0.000477924
 Search for a saddle point.
 Step number   6 out of a maximum of  100
 All quantities printed in internal units (Hartrees-Bohrs-Radians)
 Swaping is turned off.
 Update second derivatives using D2CorX and points    1    2    3    4    5
                                                      6
 The second derivative matrix:
                          R1        R2        R3        R4        A1
           R1           0.78602
           R2          -0.01459   0.09416
           R3          -0.00860   0.00171   0.46746
           R4          -0.00263   0.00594   0.00237   0.57979
           A1          -0.00051   0.04290  -0.00318   0.00124   0.06764
           A2          -0.00075   0.00541   0.02520   0.03140  -0.00243
           A3          -0.00382   0.02214   0.00060   0.00253   0.00844
           A4          -0.02412   0.14388   0.00222   0.00742   0.05989
           A5          -0.01322   0.07804   0.00332   0.00732   0.03338
                          A2        A3        A4        A5
           A2           0.13220
           A3           0.00229   0.00541
           A4           0.00236   0.03198   0.22361
           A5           0.01111   0.01912   0.11955   0.07016
     Eigenvalues ---   -0.00067   0.00150   0.00471   0.04810   0.12875
     Eigenvalues ---    0.40323   0.46906   0.58292   0.78886
 Eigenvectors required to have negative eigenvalues:
                          A3        R2        A4        A5        A1
   1                    0.77133  -0.53418   0.30280  -0.15798   0.05249
                          A2        R4        R1        R3
   1                    0.01744  -0.00082   0.00051   0.00009
 RFO step:  Lambda0=1.759044712D-09 Lambda=-2.30450876D-05.
 Linear search not attempted -- option 19 set.
 Iteration  1 RMS(Cart)=  0.02849082 RMS(Int)=  0.00086074
 Iteration  2 RMS(Cart)=  0.00081686 RMS(Int)=  0.00000059
 Iteration  3 RMS(Cart)=  0.00000046 RMS(Int)=  0.00000000
 Variable       Old X    -DE/DX   Delta X   Delta X   Delta X     New X
                                 (Linear)    (Quad)   (Total)
    R1        2.25946   0.00006   0.00000   0.00002   0.00002   2.25948
    R2        6.28953  -0.00051   0.00000  -0.06329  -0.06329   6.22624
    R3        1.81804  -0.00023   0.00000  -0.00009  -0.00009   1.81795
    R4        1.81758  -0.00023   0.00000   0.00016   0.00016   1.81774
    A1        1.65557  -0.00013   0.00000   0.00452   0.00452   1.66009
    A2        1.83525  -0.00108   0.00000  -0.00697  -0.00697   1.82828
    A3        3.17997  -0.00019   0.00000  -0.05093  -0.05093   3.12904
    A4        1.14884  -0.00054   0.00000   0.03362   0.03362   1.18246
    A5        3.44359  -0.00040   0.00000   0.02024   0.02024   3.46383
         Item               Value     Threshold  Converged?
 Maximum Force            0.001085     0.000450     NO 
 RMS     Force            0.000478     0.000300     NO 
 Maximum Displacement     0.048596     0.001800     NO 
 RMS     Displacement     0.028514     0.001200     NO 
 Predicted change in Energy=-1.161701D-05
 GradGradGradGradGradGradGradGradGradGradGradGradGradGradGradGradGradGrad

                          Input orientation:                          
 ---------------------------------------------------------------------
 Center     Atomic      Atomic             Coordinates (Angstroms)
 Number     Number       Type             X           Y           Z
 ---------------------------------------------------------------------
      1          8           0       -1.190293   -0.607974   -0.022691
      2          8           0       -1.189121    0.586819    0.022938
      3          1           0        2.086421    0.885033   -0.170698
      4          8           0        1.801638   -0.009016    0.041558
      5          1           0        2.607809   -0.521043    0.156351
 ---------------------------------------------------------------------
                    Distance matrix (angstroms):
                    1          2          3          4          5
     1  O    0.000000
     2  O    1.195664   0.000000
     3  H    3.603863   3.294784   0.000000
     4  O    3.051971   3.049591   0.962018   0.000000
     5  H    3.803313   3.957504   1.534881   0.961905   0.000000
 Stoichiometry    H2O3
 Framework group  C1[X(H2O3)]
 Deg. of freedom     9
 Full point group                 C1      NOp   1
 Largest Abelian subgroup         C1      NOp   1
 Largest concise Abelian subgroup C1      NOp   1
                         Standard orientation:                         
 ---------------------------------------------------------------------
 Center     Atomic      Atomic             Coordinates (Angstroms)
 Number     Number       Type             X           Y           Z
 ---------------------------------------------------------------------
      1          8           0        1.199825   -0.599869    0.024317
      2          8           0        1.185444    0.594659   -0.025778
      3          1           0       -2.090795    0.858881    0.202367
      4          8           0       -1.798831   -0.032913   -0.009620
      5          1           0       -2.600705   -0.553898   -0.113713
 ---------------------------------------------------------------------
 Rotational constants (GHZ):     40.2565975      4.6741691      4.1928516
 Standard basis: 6-31+G(d,p) (6D, 7F)
 There are    67 symmetry adapted basis functions of A   symmetry.
 Integral buffers will be    262144 words long.
 Raffenetti 2 integral format.
 Two-electron integral symmetry is turned on.
    67 basis functions,   110 primitive gaussians,    67 cartesian basis functions
    13 alpha electrons       13 beta electrons
       nuclear repulsion energy        64.3163309221 Hartrees.
 NAtoms=    5 NActive=    5 NUniq=    5 SFac= 7.50D-01 NAtFMM=   80 NAOKFM=F Big=F
 One-electron integrals computed using PRISM.
 NBasis=    67 RedAO= T  NBF=    67
 NBsUse=    67 1.00D-06 NBFU=    67
 Initial guess read from the read-write file.
 B after Tr=     0.000000    0.000000    0.000000
         Rot=    1.000000    0.000000    0.000000    0.000000 Ang=   0.00 deg.
 Initial guess orbital symmetries:
       Occupied  (A) (A) (A) (A) (A) (A) (A) (A) (A) (A) (A) (A)
                 (A)
       Virtual   (A) (A) (A) (A) (A) (A) (A) (A) (A) (A) (A) (A)
                 (A) (A) (A) (A) (A) (A) (A) (A) (A) (A) (A) (A)
                 (A) (A) (A) (A) (A) (A) (A) (A) (A) (A) (A) (A)
                 (A) (A) (A) (A) (A) (A) (A) (A) (A) (A) (A) (A)
                 (A) (A) (A) (A) (A) (A)
 Harris functional with IExCor= 1009 diagonalized for initial guess.
 ExpMin= 8.45D-02 ExpMax= 5.48D+03 ExpMxC= 8.25D+02 IAcc=2 IRadAn=         0 AccDes= 0.00D+00
 HarFok:  IExCor= 1009 AccDes= 0.00D+00 IRadAn=         0 IDoV= 1
 ScaDFX=  1.000000  1.000000  1.000000  1.000000
 FoFCou: FMM=F IPFlag=           0 FMFlag=      100000 FMFlg1=           0
         NFxFlg=           0 DoJE=T BraDBF=F KetDBF=T FulRan=T
         Omega=  0.000000  0.000000  1.000000  0.000000  0.000000 ICntrl=     500 IOpCl=  0
         NMat0=    1 NMatS0=    1 NMatT0=    0 NMatD0=    1 NMtDS0=    0 NMtDT0=    0
         I1Cent=           4 NGrid=           0.
 Petite list used in FoFCou.
 Requested convergence on RMS density matrix=1.00D-08 within 128 cycles.
 Requested convergence on MAX density matrix=1.00D-06.
 Requested convergence on             energy=1.00D-06.
 No special actions if energy rises.
 Keep R1 ints in memory in canonical form, NReq=3551380.
 Integral accuracy reduced to 1.0D-05 until final iterations.
 Initial convergence to 1.0D-05 achieved.  Increase integral accuracy.
 SCF Done:  E(RM062X) =  -226.600643896     A.U. after   22 cycles
             Convg  =    0.2769D-08             -V/T =  2.0081
 Calling FoFJK, ICntrl=      2127 FMM=F ISym2X=0 I1Cent= 0 IOpClX= 0 NMat=1 NMatS=1 NMatT=0.
 ***** Axes restored to original set *****
 -------------------------------------------------------------------
 Center     Atomic                   Forces (Hartrees/Bohr)
 Number     Number              X              Y              Z
 -------------------------------------------------------------------
      1        8           0.000064753   -0.000084212    0.000204921
      2        8           0.000445570    0.000052826   -0.000210566
      3        1          -0.000450439    0.000147372    0.000220062
      4        8           0.000113732    0.000134873   -0.000244755
      5        1          -0.000173616   -0.000250859    0.000030338
 -------------------------------------------------------------------
 Cartesian Forces:  Max     0.000450439 RMS     0.000224648

 GradGradGradGradGradGradGradGradGradGradGradGradGradGradGradGradGradGrad
 Berny optimization.
 Internal  Forces:  Max     0.000666888 RMS     0.000355603
 Search for a saddle point.
 Step number   7 out of a maximum of  100
 All quantities printed in internal units (Hartrees-Bohrs-Radians)
 Swaping is turned off.
 Update second derivatives using D2CorX and points    1    2    3    4    5
                                                      6    7
 The second derivative matrix:
                          R1        R2        R3        R4        A1
           R1           0.78603
           R2          -0.01394   0.08612
           R3          -0.00860   0.00197   0.46750
           R4          -0.00264   0.00560   0.00240   0.57981
           A1          -0.00057   0.04185  -0.00312   0.00135   0.06793
           A2          -0.00046   0.00554   0.02595   0.03171  -0.00243
           A3          -0.00306   0.01783   0.00158   0.00284   0.00795
           A4          -0.02501   0.14302   0.00199   0.00802   0.06211
           A5          -0.01211   0.06882   0.00345   0.00652   0.03156
                          A2        A3        A4        A5
           A2           0.13943
           A3           0.01002   0.00610
           A4          -0.00119   0.02816   0.23846
           A5           0.01197   0.01641   0.11383   0.06012
     Eigenvalues ---   -0.00039   0.00105   0.00481   0.04816   0.13679
     Eigenvalues ---    0.40002   0.46924   0.58299   0.78881
 Eigenvectors required to have negative eigenvalues:
                          R2        A4        A3        A5        A1
   1                    0.81859  -0.49713  -0.24981   0.11718  -0.07564
                          A2        R4        R1        R3
   1                   -0.03023   0.00070  -0.00054  -0.00020
 RFO step:  Lambda0=3.836178982D-05 Lambda=-4.64109338D-06.
 Linear search not attempted -- option 19 set.
 Iteration  1 RMS(Cart)=  0.11087275 RMS(Int)=  0.01806155
 Iteration  2 RMS(Cart)=  0.01896434 RMS(Int)=  0.00002853
 Iteration  3 RMS(Cart)=  0.00004294 RMS(Int)=  0.00000000
 Iteration  4 RMS(Cart)=  0.00000000 RMS(Int)=  0.00000000
 Variable       Old X    -DE/DX   Delta X   Delta X   Delta X     New X
                                 (Linear)    (Quad)   (Total)
    R1        2.25948   0.00009   0.00000  -0.00015  -0.00015   2.25932
    R2        6.22624  -0.00051   0.00000   0.24690   0.24690   6.47314
    R3        1.81795   0.00008   0.00000  -0.00008  -0.00008   1.81787
    R4        1.81774  -0.00001   0.00000   0.00003   0.00003   1.81777
    A1        1.66009  -0.00013   0.00000  -0.02166  -0.02166   1.63844
    A2        1.82828   0.00055   0.00000  -0.00556  -0.00556   1.82272
    A3        3.12904   0.00000   0.00000  -0.06334  -0.06334   3.06570
    A4        1.18246  -0.00067   0.00000  -0.15232  -0.15232   1.03014
    A5        3.46383  -0.00031   0.00000   0.03035   0.03035   3.49419
         Item               Value     Threshold  Converged?
 Maximum Force            0.000667     0.000450     NO 
 RMS     Force            0.000356     0.000300     NO 
 Maximum Displacement     0.209163     0.001800     NO 
 RMS     Displacement     0.111723     0.001200     NO 
 Predicted change in Energy= 1.857537D-05
 GradGradGradGradGradGradGradGradGradGradGradGradGradGradGradGradGradGrad

                          Input orientation:                          
 ---------------------------------------------------------------------
 Center     Atomic      Atomic             Coordinates (Angstroms)
 Number     Number       Type             X           Y           Z
 ---------------------------------------------------------------------
      1          8           0       -1.168333   -0.633768   -0.013085
      2          8           0       -1.205283    0.560672    0.023850
      3          1           0        2.197105    0.903819   -0.175219
      4          8           0        1.783717    0.062492    0.040828
      5          1           0        2.509247   -0.559395    0.151084
 ---------------------------------------------------------------------
                    Distance matrix (angstroms):
                    1          2          3          4          5
     1  O    0.000000
     2  O    1.195583   0.000000
     3  H    3.703598   3.425437   0.000000
     4  O    3.033527   3.030279   0.961976   0.000000
     5  H    3.681994   3.881813   1.531307   0.961922   0.000000
 Stoichiometry    H2O3
 Framework group  C1[X(H2O3)]
 Deg. of freedom     9
 Full point group                 C1      NOp   1
 Largest Abelian subgroup         C1      NOp   1
 Largest concise Abelian subgroup C1      NOp   1
                         Standard orientation:                         
 ---------------------------------------------------------------------
 Center     Atomic      Atomic             Coordinates (Angstroms)
 Number     Number       Type             X           Y           Z
 ---------------------------------------------------------------------
      1          8           0        1.191663   -0.598641    0.024908
      2          8           0        1.182865    0.595888   -0.024500
      3          1           0       -2.228434    0.811741    0.199257
      4          8           0       -1.785066   -0.015514   -0.011625
      5          1           0       -2.487267   -0.665609   -0.109521
 ---------------------------------------------------------------------
 Rotational constants (GHZ):     40.1136414      4.7261507      4.2328952
 Standard basis: 6-31+G(d,p) (6D, 7F)
 There are    67 symmetry adapted basis functions of A   symmetry.
 Integral buffers will be    262144 words long.
 Raffenetti 2 integral format.
 Two-electron integral symmetry is turned on.
    67 basis functions,   110 primitive gaussians,    67 cartesian basis functions
    13 alpha electrons       13 beta electrons
       nuclear repulsion energy        64.4343111237 Hartrees.
 NAtoms=    5 NActive=    5 NUniq=    5 SFac= 7.50D-01 NAtFMM=   80 NAOKFM=F Big=F
 One-electron integrals computed using PRISM.
 NBasis=    67 RedAO= T  NBF=    67
 NBsUse=    67 1.00D-06 NBFU=    67
 Initial guess read from the read-write file.
 B after Tr=     0.000000    0.000000    0.000000
         Rot=    1.000000    0.000000    0.000000    0.000000 Ang=   0.00 deg.
 Initial guess orbital symmetries:
       Occupied  (A) (A) (A) (A) (A) (A) (A) (A) (A) (A) (A) (A)
                 (A)
       Virtual   (A) (A) (A) (A) (A) (A) (A) (A) (A) (A) (A) (A)
                 (A) (A) (A) (A) (A) (A) (A) (A) (A) (A) (A) (A)
                 (A) (A) (A) (A) (A) (A) (A) (A) (A) (A) (A) (A)
                 (A) (A) (A) (A) (A) (A) (A) (A) (A) (A) (A) (A)
                 (A) (A) (A) (A) (A) (A)
 Harris functional with IExCor= 1009 diagonalized for initial guess.
 ExpMin= 8.45D-02 ExpMax= 5.48D+03 ExpMxC= 8.25D+02 IAcc=2 IRadAn=         0 AccDes= 0.00D+00
 HarFok:  IExCor= 1009 AccDes= 0.00D+00 IRadAn=         0 IDoV= 1
 ScaDFX=  1.000000  1.000000  1.000000  1.000000
 FoFCou: FMM=F IPFlag=           0 FMFlag=      100000 FMFlg1=           0
         NFxFlg=           0 DoJE=T BraDBF=F KetDBF=T FulRan=T
         Omega=  0.000000  0.000000  1.000000  0.000000  0.000000 ICntrl=     500 IOpCl=  0
         NMat0=    1 NMatS0=    1 NMatT0=    0 NMatD0=    1 NMtDS0=    0 NMtDT0=    0
         I1Cent=           4 NGrid=           0.
 Petite list used in FoFCou.
 Requested convergence on RMS density matrix=1.00D-08 within 128 cycles.
 Requested convergence on MAX density matrix=1.00D-06.
 Requested convergence on             energy=1.00D-06.
 No special actions if energy rises.
 Keep R1 ints in memory in canonical form, NReq=3551380.
 Integral accuracy reduced to 1.0D-05 until final iterations.
 Initial convergence to 1.0D-05 achieved.  Increase integral accuracy.
 SCF Done:  E(RM062X) =  -226.600598768     A.U. after   26 cycles
             Convg  =    0.3415D-08             -V/T =  2.0081
 Calling FoFJK, ICntrl=      2127 FMM=F ISym2X=0 I1Cent= 0 IOpClX= 0 NMat=1 NMatS=1 NMatT=0.
 ***** Axes restored to original set *****
 -------------------------------------------------------------------
 Center     Atomic                   Forces (Hartrees/Bohr)
 Number     Number              X              Y              Z
 -------------------------------------------------------------------
      1        8           0.000097901   -0.000067463    0.000166517
      2        8           0.000228803    0.000066707   -0.000161006
      3        1          -0.000813436    0.000597493    0.000060062
      4        8           0.000841194    0.000144040   -0.000123677
      5        1          -0.000354463   -0.000740777    0.000058104
 -------------------------------------------------------------------
 Cartesian Forces:  Max     0.000841194 RMS     0.000413787

 GradGradGradGradGradGradGradGradGradGradGradGradGradGradGradGradGradGrad
 Berny optimization.
 Internal  Forces:  Max     0.001451711 RMS     0.000529133
 Search for a saddle point.
 Step number   8 out of a maximum of  100
 All quantities printed in internal units (Hartrees-Bohrs-Radians)
 Swaping is turned off.
 Update second derivatives using D2CorX and points    1    2    3    4    5
                                                      6    7    8
 The second derivative matrix:
                          R1        R2        R3        R4        A1
           R1           0.78603
           R2          -0.01423   0.08871
           R3          -0.00859   0.00125   0.46757
           R4          -0.00264   0.00516   0.00244   0.57984
           A1          -0.00055   0.04250  -0.00303   0.00141   0.06785
           A2          -0.00041   0.00176   0.02639   0.03202  -0.00197
           A3          -0.00353   0.02060   0.00225   0.00368   0.00857
           A4          -0.02486   0.14409   0.00252   0.00835   0.06161
           A5          -0.01197   0.06905   0.00319   0.00623   0.03141
                          A2        A3        A4        A5
           A2           0.14248
           A3           0.01171   0.00726
           A4           0.00124   0.03216   0.23640
           A5           0.01151   0.01789   0.11207   0.05934
     Eigenvalues ---   -0.00002   0.00148   0.00488   0.04816   0.13958
     Eigenvalues ---    0.40007   0.46939   0.58311   0.78882
 Eigenvectors required to have negative eigenvalues:
                          R2        A4        A3        A1        A5
   1                    0.78898  -0.43854  -0.41691  -0.07598   0.07173
                          A2        R1        R4        R3
   1                    0.02145  -0.00041   0.00017   0.00005
 RFO step:  Lambda0=9.515505934D-05 Lambda=-2.56881298D-05.
 Linear search not attempted -- option 19 set.
 Maximum step size (   0.300) exceeded in Quadratic search.
    -- Step size scaled by   0.328
 Iteration  1 RMS(Cart)=  0.10389271 RMS(Int)=  0.01399424
 Iteration  2 RMS(Cart)=  0.01485130 RMS(Int)=  0.00005188
 Iteration  3 RMS(Cart)=  0.00004642 RMS(Int)=  0.00000000
 Iteration  4 RMS(Cart)=  0.00000000 RMS(Int)=  0.00000000
 Variable       Old X    -DE/DX   Delta X   Delta X   Delta X     New X
                                 (Linear)    (Quad)   (Total)
    R1        2.25932   0.00006   0.00000  -0.00011  -0.00011   2.25922
    R2        6.47314  -0.00033   0.00000   0.23139   0.23139   6.70453
    R3        1.81787   0.00031   0.00000   0.00004   0.00004   1.81791
    R4        1.81777   0.00023   0.00000   0.00000   0.00000   1.81777
    A1        1.63844  -0.00019   0.00000  -0.02257  -0.02257   1.61587
[...]

 **********************************************************************

            Population analysis using the SCF density.

 **********************************************************************

 Orbital symmetries:
       Occupied  (A) (A) (A) (A) (A) (A) (A) (A) (A) (A) (A) (A)
                 (A)
       Virtual   (A) (A) (A) (A) (A) (A) (A) (A) (A) (A) (A) (A)
                 (A) (A) (A) (A) (A) (A) (A) (A) (A) (A) (A) (A)
                 (A) (A) (A) (A) (A) (A) (A) (A) (A) (A) (A) (A)
                 (A) (A) (A) (A) (A) (A) (A) (A) (A) (A) (A) (A)
                 (A) (A) (A) (A) (A) (A)
 The electronic state is 1-A.
 Alpha  occ. eigenvalues --  -19.79263 -19.79205 -19.64902  -1.41476  -1.13371
 Alpha  occ. eigenvalues --   -0.89541  -0.61094  -0.60620  -0.60340  -0.58272
 Alpha  occ. eigenvalues --   -0.46566  -0.39576  -0.31931
 Alpha virt. eigenvalues --   -0.09837   0.06475   0.10526   0.12333   0.15269
 Alpha virt. eigenvalues --    0.16760   0.19815   0.20627   0.23343   0.24036
 Alpha virt. eigenvalues --    0.24289   0.26341   0.31695   0.32635   0.36687
 Alpha virt. eigenvalues --    0.40947   1.01741   1.06039   1.10266   1.14045
 Alpha virt. eigenvalues --    1.14163   1.14857   1.16327   1.20334   1.20974
 Alpha virt. eigenvalues --    1.21020   1.24502   1.29573   1.37376   1.56301
 Alpha virt. eigenvalues --    1.57522   1.58808   1.59910   1.60755   1.67849
 Alpha virt. eigenvalues --    1.68982   1.70540   2.00908   2.01069   2.28963
 Alpha virt. eigenvalues --    2.29667   2.59253   2.59386   2.64713   2.67635
 Alpha virt. eigenvalues --    2.68120   2.68185   2.99785   3.06247   3.37840
 Alpha virt. eigenvalues --    3.55507   3.72636   4.04733   4.13072
          Condensed to atoms (all electrons):
              1          2          3          4          5
     1  O    7.661139   0.340598   0.002987  -0.019415  -0.000657
     2  O    0.340598   7.659831  -0.001401  -0.008317   0.002307
     3  H    0.002987  -0.001401   0.360691   0.288531  -0.023082
     4  O   -0.019415  -0.008317   0.288531   8.220630   0.287521
     5  H   -0.000657   0.002307  -0.023082   0.287521   0.359565
 Mulliken atomic charges:
              1
     1  O    0.015348
     2  O    0.006983
     3  H    0.372274
     4  O   -0.768951
     5  H    0.374346
 Sum of Mulliken atomic charges =   0.00000
 Mulliken charges with hydrogens summed into heavy atoms:
              1
     1  O    0.015348
     2  O    0.006983
     4  O   -0.022330
 Sum of Mulliken charges with hydrogens summed into heavy atoms =   0.00000
 APT atomic charges:
              1
     1  O    0.001534
     2  O   -0.002828
     3  H    0.300898
     4  O   -0.598522
     5  H    0.298917
 Sum of APT charges=   0.00000
 APT Atomic charges with hydrogens summed into heavy atoms:
              1
     1  O    0.001534
     2  O   -0.002828
     3  H    0.000000
     4  O    0.001293
     5  H    0.000000
 Sum of APT charges=   0.00000
 Electronic spatial extent (au):  <R**2>=            262.0360
 Charge=              0.0000 electrons
 Dipole moment (field-independent basis, Debye):
    X=              2.2071    Y=              0.0951    Z=              0.2860  Tot=              2.2275
 Quadrupole moment (field-independent basis, Debye-Ang):
   XX=             -9.8439   YY=            -15.0378   ZZ=            -17.0184
   XY=              0.0968   XZ=              0.7712   YZ=              0.0276
 Traceless Quadrupole moment (field-independent basis, Debye-Ang):
   XX=              4.1228   YY=             -1.0711   ZZ=             -3.0517
   XY=              0.0968   XZ=              0.7712   YZ=              0.0276
 Octapole moment (field-independent basis, Debye-Ang**2):
  XXX=             26.9189  YYY=              0.1946  ZZZ=              0.1835  XYY=              6.0096
  XXY=             -0.1139  XXZ=              1.6135  XZZ=             -3.2992  YZZ=              0.0174
  YYZ=              0.1827  XYZ=              0.0458
 Hexadecapole moment (field-independent basis, Debye-Ang**3):
 XXXX=           -179.0799 YYYY=            -35.4235 ZZZZ=            -13.8670 XXXY=             -0.9646
 XXXZ=              4.6340 YYYX=              0.3594 YYYZ=              0.0373 ZZZX=              0.4710
 ZZZY=              0.0135 XXYY=            -34.1220 XXZZ=            -43.6739 YYZZ=             -8.2214
 XXYZ=              0.0978 YYXZ=              0.5174 ZZXY=              0.0261
 N-N= 6.475107924810D+01 E-N=-6.645061371168D+02  KE= 2.247797451314D+02
  Exact polarizability:  13.783  -0.029  20.130  -0.049  -0.006  12.086
 Approx polarizability:  12.832  -0.035  26.768   0.114  -0.006  12.257
 Calling FoFJK, ICntrl=    100127 FMM=F ISym2X=0 I1Cent= 0 IOpClX= 0 NMat=1 NMatS=1 NMatT=0.
 Full mass-weighted force constant matrix:
 Low frequencies --- -115.6673  -58.3132   -0.0018   -0.0018   -0.0013   23.2174
 Low frequencies ---   31.5754  107.5441  173.5286
 ******    1 imaginary frequencies (negative Signs) ****** 
 Diagonal vibrational polarizability:
        9.4215578     171.1638309     487.8750563
 Harmonic frequencies (cm**-1), IR intensities (KM/Mole), Raman scattering
 activities (A**4/AMU), depolarization ratios for plane and unpolarized
 incident light, reduced masses (AMU), force constants (mDyne/A),
 and normal coordinates:
                     1                      2                      3
                     A                      A                      A
 Frequencies --  -105.8312               107.5440               166.1910
 Red. masses --     1.1201                 7.6747                 1.2574
 Frc consts  --     0.0074                 0.0523                 0.0205
 IR Inten    --   171.4328                 0.1323               218.1813
  Atom  AN      X      Y      Z        X      Y      Z        X      Y      Z
     1   8    -0.01   0.01   0.00     0.30   0.00   0.00    -0.06  -0.01   0.03
     2   8     0.02   0.01  -0.01     0.29   0.00   0.00     0.07  -0.01  -0.01
     3   1    -0.47   0.29  -0.32    -0.47  -0.03   0.01    -0.39   0.17   0.80
     4   8    -0.01  -0.06   0.06    -0.52   0.01   0.00     0.01  -0.01  -0.08
     5   1     0.53   0.34  -0.44    -0.57  -0.03   0.03     0.22   0.20   0.29
                     4                      5                      6
                     A                      A                      A
 Frequencies --   184.8972               189.4603              1605.5984
 Red. masses --     4.1577                 1.2413                 1.0837
 Frc consts  --     0.0837                 0.0263                 1.6461
 IR Inten    --     6.1938                50.0527               106.0559
  Atom  AN      X      Y      Z        X      Y      Z        X      Y      Z
     1   8     0.30   0.06   0.05    -0.05  -0.02   0.05     0.00   0.00   0.00
     2   8    -0.30   0.06  -0.04     0.05  -0.02  -0.05     0.00   0.00   0.00
     3   1    -0.19  -0.07   0.75     0.22  -0.14   0.40     0.58  -0.40   0.07
     4   8     0.00  -0.12  -0.02    -0.01   0.05   0.04    -0.07   0.00  -0.01
     5   1     0.14  -0.04  -0.41    -0.14  -0.14  -0.85     0.54   0.45   0.08
                     7                      8                      9
                     A                      A                      A
 Frequencies --  1778.1019              3888.5884              4014.0192
 Red. masses --    15.9779                 1.0444                 1.0833
 Frc consts  --    29.7635                 9.3049                10.2843
 IR Inten    --     0.0175                11.0487                78.2346
  Atom  AN      X      Y      Z        X      Y      Z        X      Y      Z
     1   8     0.00   0.71   0.00     0.00   0.00   0.00     0.00   0.00   0.00
     2   8     0.00  -0.71   0.00     0.00   0.00   0.00     0.00   0.00   0.00
     3   1     0.02  -0.01   0.00    -0.37  -0.63  -0.06     0.38   0.56   0.06
     4   8     0.00   0.00   0.00     0.05   0.01   0.01     0.01  -0.07   0.00
     5   1     0.02   0.02   0.00    -0.40   0.55  -0.05    -0.46   0.56  -0.05

 -------------------
 - Thermochemistry -
 -------------------
 Temperature   298.150 Kelvin.  Pressure   1.00000 Atm.
 Atom     1 has atomic number  8 and mass  15.99491
 Atom     2 has atomic number  8 and mass  15.99491
 Atom     3 has atomic number  1 and mass   1.00783
 Atom     4 has atomic number  8 and mass  15.99491
 Atom     5 has atomic number  1 and mass   1.00783
 Molecular mass:    50.00039 amu.
 Principal axes and moments of inertia in atomic units:
                           1         2         3
     Eigenvalues --    45.10456 372.21981 417.24578
           X            1.00000   0.00056   0.00272
           Y           -0.00056   1.00000   0.00069
           Z           -0.00272  -0.00069   1.00000
 This molecule is an asymmetric top.
 Rotational symmetry number  1.
 Rotational temperatures (Kelvin)      1.92029     0.23270     0.20758
 Rotational constants (GHZ):          40.01239     4.84859     4.32537
    1 imaginary frequencies ignored.
 Zero-point vibrational energy      71383.6 (Joules/Mol)
                                   17.06108 (Kcal/Mol)
 Warning -- explicit consideration of   4 degrees of freedom as
           vibrations may cause significant error
 Vibrational temperatures:    154.73   239.11   266.03   272.59  2310.10
          (Kelvin)           2558.29  5594.80  5775.27
 
 Zero-point correction=                           0.027189 (Hartree/Particle)
 Thermal correction to Energy=                    0.032524
 Thermal correction to Enthalpy=                  0.033468
 Thermal correction to Gibbs Free Energy=        -0.000470
 Sum of electronic and zero-point Energies=           -226.573467
 Sum of electronic and thermal Energies=              -226.568132
 Sum of electronic and thermal Enthalpies=            -226.567188
 Sum of electronic and thermal Free Energies=         -226.601126
 
                     E (Thermal)             CV                S
                      KCal/Mol        Cal/Mol-Kelvin    Cal/Mol-Kelvin
 Total                   20.409             13.583             71.430
 Electronic               0.000              0.000              0.000
 Translational            0.889              2.981             37.652
 Rotational               0.889              2.981             23.464
 Vibrational             18.632              7.621             10.313
 Vibration     1          0.606              1.943              3.313
 Vibration     2          0.624              1.884              2.478
 Vibration     3          0.631              1.860              2.278
 Vibration     4          0.633              1.854              2.233
                       Q            Log10(Q)             Ln(Q)
 Total Bot       0.164577D+01          0.216368          0.498206
 Total V=0       0.527488D+13         12.722213         29.293978
 Vib (Bot)       0.395276D-11        -11.403100        -26.256607
 Vib (Bot)    1  0.190543D+01          0.279993          0.644708
 Vib (Bot)    2  0.121411D+01          0.084257          0.194010
 Vib (Bot)    3  0.108443D+01          0.035200          0.081051
 Vib (Bot)    4  0.105658D+01          0.023902          0.055035
 Vib (V=0)       0.126691D+02          1.102745          2.539165
 Vib (V=0)    1  0.246994D+01          0.392686          0.904194
 Vib (V=0)    2  0.181303D+01          0.258406          0.595002
 Vib (V=0)    3  0.169414D+01          0.228950          0.527177
 Vib (V=0)    4  0.166891D+01          0.222434          0.512172
 Electronic      0.100000D+01          0.000000          0.000000
 Translational   0.138968D+08          7.142915         16.447170
 Rotational      0.299607D+05          4.476552         10.307643
 ***** Axes restored to original set *****
 -------------------------------------------------------------------
 Center     Atomic                   Forces (Hartrees/Bohr)
 Number     Number              X              Y              Z
 -------------------------------------------------------------------
      1        8           0.000000846    0.000000485   -0.000020613
      2        8           0.000000072   -0.000000056   -0.000001068
      3        1           0.000002589   -0.000007871    0.000022999
      4        8          -0.000009302    0.000004195    0.000004304
      5        1           0.000005795    0.000003247   -0.000005621
 -------------------------------------------------------------------
 Cartesian Forces:  Max     0.000022999 RMS     0.000009029

 GradGradGradGradGradGradGradGradGradGradGradGradGradGradGradGradGradGrad
 Berny optimization.
 Internal  Forces:  Max     0.000011110 RMS     0.000004610
 Search for a saddle point.
 Step number   1 out of a maximum of    2
 All quantities printed in internal units (Hartrees-Bohrs-Radians)
 Swaping is turned off.
 Second derivative matrix not updated -- analytic derivatives used.
 The second derivative matrix:
                          R1        R2        R3        R4        A1
           R1           0.95712
           R2          -0.00159   0.00502
           R3           0.00037  -0.00257   0.56163
           R4          -0.00020   0.00027  -0.00762   0.56244
           A1           0.00143   0.00613  -0.00854  -0.00065   0.05524
           A2           0.00084  -0.00029   0.02850   0.02789  -0.00199
           A3           0.00025  -0.00015  -0.00049  -0.00143   0.00005
           A4          -0.00312   0.00769  -0.00342   0.00090   0.00377
           A5          -0.00011   0.00014   0.00058   0.00099  -0.00042
                          A2        A3        A4        A5
           A2           0.14702
           A3          -0.00821   0.00090
           A4           0.00060   0.00112   0.01299
           A5           0.00532   0.00101   0.00030   0.00146
     Eigenvalues ---   -0.00089   0.00041   0.00225   0.01666   0.05630
     Eigenvalues ---    0.14381   0.55838   0.56975   0.95713
 Eigenvectors required to have negative eigenvalues:
                          A3        A5        R2        A4        A2
   1                    0.73058  -0.44065   0.43232  -0.28434   0.05837
                          A1        R3        R1        R4
   1                   -0.03033  -0.00208  -0.00046  -0.00008
 Angle between quadratic step and forces=  81.95 degrees.
 Linear search not attempted -- option 19 set.
 Iteration  1 RMS(Cart)=  0.00035316 RMS(Int)=  0.00000012
 Iteration  2 RMS(Cart)=  0.00000015 RMS(Int)=  0.00000000
 Variable       Old X    -DE/DX   Delta X   Delta X   Delta X     New X
                                 (Linear)    (Quad)   (Total)
    R1        2.25917   0.00000   0.00000   0.00000   0.00000   2.25917
    R2        6.56440   0.00000   0.00000  -0.00015  -0.00015   6.56425
    R3        1.81764   0.00000   0.00000  -0.00001  -0.00001   1.81763
    R4        1.81763   0.00000   0.00000   0.00000   0.00000   1.81763
    A1        1.62933   0.00000   0.00000  -0.00005  -0.00005   1.62928
    A2        1.85076  -0.00001   0.00000  -0.00014  -0.00014   1.85062
    A3        3.33181   0.00000   0.00000  -0.00045  -0.00045   3.33136
    A4        0.92621   0.00000   0.00000  -0.00017  -0.00017   0.92604
    A5        3.00904   0.00000   0.00000   0.00120   0.00120   3.01024
         Item               Value     Threshold  Converged?
 Maximum Force            0.000011     0.000450     YES
 RMS     Force            0.000005     0.000300     YES
 Maximum Displacement     0.000523     0.001800     YES
 RMS     Displacement     0.000353     0.001200     YES
 Predicted change in Energy=-1.270693D-09
 Optimization completed.
    -- Stationary point found.
                           ----------------------------
                           !   Optimized Parameters   !
                           ! (Angstroms and Degrees)  !
 --------------------------                            --------------------------
 ! Name  Definition              Value          Derivative Info.                !
 --------------------------------------------------------------------------------
 ! R1    R(1,2)                  1.1955         -DE/DX =    0.0                 !
 ! R2    R(2,3)                  3.4737         -DE/DX =    0.0                 !
 ! R3    R(3,4)                  0.9619         -DE/DX =    0.0                 !
 ! R4    R(4,5)                  0.9618         -DE/DX =    0.0                 !
 ! A1    A(1,2,3)               93.354          -DE/DX =    0.0                 !
 ! A2    L(3,4,5,-3,-1)        106.0407         -DE/DX =    0.0                 !
 ! A3    L(3,4,5,-1,-2)        190.8986         -DE/DX =    0.0                 !
 ! A4    L(2,3,4,1,-1)          53.0678         -DE/DX =    0.0                 !
 ! A5    L(2,3,4,1,-2)         172.4054         -DE/DX =    0.0                 !
 --------------------------------------------------------------------------------
 GradGradGradGradGradGradGradGradGradGradGradGradGradGradGradGradGradGrad

 1|1|UNPC-DESKTOP-319GPER|Freq|RM062X|6-31+G(d,p)|H2O3|SAGAD|08-Feb-202
 1|0||#N Geom=AllCheck Guess=TCheck SCRF=Check GenChk RM062X/6-31+G(d,p
 ) Freq||ts2||0,1|O,-1.1312955873,-0.6448821796,0.0914137051|O,-1.19482
 64042,0.5389399612,-0.0627153937|H,2.2570141791,0.9281674174,-0.072335
 8785|O,1.767236028,0.1008552795,-0.04346438|H,2.4183260458,-0.58926147
 8,0.1145589029||Version=IA32W-G09RevA.02|State=1-A|HF=-226.6006557|RMS
 D=5.882e-009|RMSF=9.029e-006|ZeroPoint=0.0271886|Thermal=0.0325239|Dip
 ole=0.8655539,0.0990466,0.0951148|DipoleDeriv=0.0016535,-0.0341371,0.0
 036297,0.0017984,-0.0133026,0.0109322,-0.0024186,0.0041868,0.0162524,-
 0.0031669,0.0334281,-0.0045117,-0.0013109,-0.0163347,-0.003334,-0.0015
 481,0.0030195,0.0110188,0.2405769,-0.0656172,-0.0152963,-0.0791794,0.2
 599321,0.006394,-0.013725,0.0034121,0.402185,-0.4481562,0.0146976,0.04
 70285,0.0157504,-0.5231293,-0.0333525,0.0513941,-0.0327823,-0.8242811,
 0.2090927,0.0516286,-0.0308502,0.0629415,0.2928344,0.0193604,-0.033702
 4,0.0221639,0.394825|Polar=13.805507,-0.3891479,19.9741204,-0.0100036,
 -1.0227287,12.2192211|PG=C01 [X(H2O3)]|NImag=1||0.01406080,-0.04999736
 ,0.93841703,0.00652002,-0.12239118,0.01570647,-0.01156746,0.04850490,-
 0.00633551,0.01409824,0.05202701,-0.93810589,0.12221018,-0.05030647,0.
 93837310,-0.00677595,0.12184034,-0.01669984,0.00652991,-0.12197952,0.0
 1593352,-0.00047965,0.00037948,0.00008461,0.00024370,-0.00040521,0.000
 22005,0.16522307,-0.00001490,-0.00014856,0.00002200,-0.00010588,0.0000
 5916,-0.00005837,0.21807946,0.43900166,0.00006412,-0.00010214,-0.00015
 010,-0.00000882,0.00002912,-0.00058265,-0.00288254,-0.01934589,0.00280
 172,-0.00208081,0.00059536,-0.00037387,-0.00236741,-0.00090010,-0.0000
 9969,-0.17606115,-0.19227305,-0.00149949,0.45797724,-0.00208753,-0.000
 33846,0.00024649,0.00192757,-0.00009996,0.00016583,-0.25209897,-0.4128
 1009,0.01230316,-0.02234310,0.71453432,0.00020990,0.00082632,0.0016376
 2,-0.00024254,-0.00036534,0.00132625,0.00481132,0.01968268,-0.00155210
 ,0.06128447,-0.07954589,0.01358491,0.00006712,0.00051762,0.00010475,-0
 .00040708,-0.00041524,0.00012568,0.01107403,-0.02568563,0.00432673,-0.
 27746788,0.27460203,-0.06606315,0.26673380,0.00007278,0.00017588,-0.00
 008749,-0.00002012,-0.00022641,0.00003172,0.03404523,-0.02610217,0.007
 11576,0.21492089,-0.30128581,0.05940223,-0.24901878,0.32743851,-0.0000
 1809,-0.00017334,-0.00049415,0.00005696,0.00010556,0.00002272,-0.00223
 345,-0.00030042,-0.00051687,-0.05931143,0.06683041,-0.01499667,0.06150
 600,-0.06646222,0.01598497||-0.00000085,-0.00000048,0.00002061,-0.0000
 0007,0.00000006,0.00000107,-0.00000259,0.00000787,-0.00002300,0.000009
 30,-0.00000419,-0.00000430,-0.00000580,-0.00000325,0.00000562|||@


 TWO ROADS DIVERGED IN A WOOD, AND I--
 I TOOK THE ONE LESS TRAVELED BY,
 AND THAT HAS MADE ALL THE DIFFERENCE.

                       -- ROBERT FROST
 Job cpu time:  0 days  0 hours  0 minutes 14.0 seconds.
 File lengths (MBytes):  RWF=      6 Int=      0 D2E=      0 Chk=      1 Scr=      1
 Normal termination of Gaussian 09 at Mon Feb 08 20:08:42 2021.
